
                                 *****************
                                 * O   R   C   A *
                                 *****************

                                            #,                                       
                                            ###                                      
                                            ####                                     
                                            #####                                    
                                            ######                                   
                                           ########,                                 
                                     ,,################,,,,,                         
                               ,,#################################,,                 
                          ,,##########################################,,             
                       ,#########################################, ''#####,          
                    ,#############################################,,   '####,        
                  ,##################################################,,,,####,       
                ,###########''''           ''''###############################       
              ,#####''   ,,,,##########,,,,          '''####'''          '####       
            ,##' ,,,,###########################,,,                        '##       
           ' ,,###''''                  '''############,,,                           
         ,,##''                                '''############,,,,        ,,,,,,###''
      ,#''                                            '''#######################'''  
     '                                                          ''''####''''         
             ,#######,   #######,   ,#######,      ##                                
            ,#'     '#,  ##    ##  ,#'     '#,    #''#        ######   ,####,        
            ##       ##  ##   ,#'  ##            #'  '#       #        #'  '#        
            ##       ##  #######   ##           ,######,      #####,   #    #        
            '#,     ,#'  ##    ##  '#,     ,#' ,#      #,         ##   #,  ,#        
             '#######'   ##     ##  '#######'  #'      '#     #####' # '####'        



                  #######################################################
                  #                        -***-                        #
                  #          Department of theory and spectroscopy      #
                  #    Directorship and core code : Frank Neese         #
                  #        Max Planck Institute fuer Kohlenforschung    #
                  #                Kaiser Wilhelm Platz 1               #
                  #                 D-45470 Muelheim/Ruhr               #
                  #                      Germany                        #
                  #                                                     #
                  #                  All rights reserved                #
                  #                        -***-                        #
                  #######################################################


                         Program Version 5.0.4 -  RELEASE  -


 With contributions from (in alphabetic order):
   Daniel Aravena         : Magnetic Suceptibility
   Michael Atanasov       : Ab Initio Ligand Field Theory (pilot matlab implementation)
   Alexander A. Auer      : GIAO ZORA, VPT2 properties, NMR spectrum
   Ute Becker             : Parallelization
   Giovanni Bistoni       : ED, misc. LED, open-shell LED, HFLD
   Martin Brehm           : Molecular dynamics
   Dmytro Bykov           : SCF Hessian
   Vijay G. Chilkuri      : MRCI spin determinant printing, contributions to CSF-ICE
   Dipayan Datta          : RHF DLPNO-CCSD density
   Achintya Kumar Dutta   : EOM-CC, STEOM-CC
   Dmitry Ganyushin       : Spin-Orbit,Spin-Spin,Magnetic field MRCI
   Miquel Garcia          : C-PCM and meta-GGA Hessian, CC/C-PCM, Gaussian charge scheme
   Yang Guo               : DLPNO-NEVPT2, F12-NEVPT2, CIM, IAO-localization
   Andreas Hansen         : Spin unrestricted coupled pair/coupled cluster methods
   Benjamin Helmich-Paris : MC-RPA, TRAH-SCF, COSX integrals
   Lee Huntington         : MR-EOM, pCC
   Robert Izsak           : Overlap fitted RIJCOSX, COSX-SCS-MP3, EOM
   Marcus Kettner         : VPT2
   Christian Kollmar      : KDIIS, OOCD, Brueckner-CCSD(T), CCSD density, CASPT2, CASPT2-K
   Simone Kossmann        : Meta GGA functionals, TD-DFT gradient, OOMP2, MP2 Hessian
   Martin Krupicka        : Initial AUTO-CI
   Lucas Lang             : DCDCAS
   Marvin Lechner         : AUTO-CI (C++ implementation), FIC-MRCC
   Dagmar Lenk            : GEPOL surface, SMD
   Dimitrios Liakos       : Extrapolation schemes; Compound Job, initial MDCI parallelization
   Dimitrios Manganas     : Further ROCIS development; embedding schemes
   Dimitrios Pantazis     : SARC Basis sets
   Anastasios Papadopoulos: AUTO-CI, single reference methods and gradients
   Taras Petrenko         : DFT Hessian,TD-DFT gradient, ASA, ECA, R-Raman, ABS, FL, XAS/XES, NRVS
   Peter Pinski           : DLPNO-MP2, DLPNO-MP2 Gradient
   Christoph Reimann      : Effective Core Potentials
   Marius Retegan         : Local ZFS, SOC
   Christoph Riplinger    : Optimizer, TS searches, QM/MM, DLPNO-CCSD(T), (RO)-DLPNO pert. Triples
   Tobias Risthaus        : Range-separated hybrids, TD-DFT gradient, RPA, STAB
   Michael Roemelt        : Original ROCIS implementation
   Masaaki Saitow         : Open-shell DLPNO-CCSD energy and density
   Barbara Sandhoefer     : DKH picture change effects
   Avijit Sen             : IP-ROCIS
   Kantharuban Sivalingam : CASSCF convergence, NEVPT2, FIC-MRCI
   Bernardo de Souza      : ESD, SOC TD-DFT
   Georgi Stoychev        : AutoAux, RI-MP2 NMR, DLPNO-MP2 response
   Willem Van den Heuvel  : Paramagnetic NMR
   Boris Wezisla          : Elementary symmetry handling
   Frank Wennmohs         : Technical directorship


 We gratefully acknowledge several colleagues who have allowed us to
 interface, adapt or use parts of their codes:
   Stefan Grimme, W. Hujo, H. Kruse, P. Pracht,  : VdW corrections, initial TS optimization,
                  C. Bannwarth, S. Ehlert          DFT functionals, gCP, sTDA/sTD-DF
   Ed Valeev, F. Pavosevic, A. Kumar             : LibInt (2-el integral package), F12 methods
   Garnet Chan, S. Sharma, J. Yang, R. Olivares  : DMRG
   Ulf Ekstrom                                   : XCFun DFT Library
   Mihaly Kallay                                 : mrcc  (arbitrary order and MRCC methods)
   Jiri Pittner, Ondrej Demel                    : Mk-CCSD
   Frank Weinhold                                : gennbo (NPA and NBO analysis)
   Christopher J. Cramer and Donald G. Truhlar   : smd solvation model
   Lars Goerigk                                  : TD-DFT with DH, B97 family of functionals
   V. Asgeirsson, H. Jonsson                     : NEB implementation
   FAccTs GmbH                                   : IRC, NEB, NEB-TS, DLPNO-Multilevel, CI-OPT
                                                   MM, QMMM, 2- and 3-layer-ONIOM, Crystal-QMMM,
                                                   LR-CPCM, SF, NACMEs, symmetry and pop. for TD-DFT,
                                                   nearIR, NL-DFT gradient (VV10), updates on ESD,
                                                   ML-optimized integration grids
   S Lehtola, MJT Oliveira, MAL Marques          : LibXC Library
   Liviu Ungur et al                             : ANISO software


 Your calculation uses the libint2 library for the computation of 2-el integrals
 For citations please refer to: http://libint.valeyev.net

 Your ORCA version has been built with support for libXC version: 5.1.0
 For citations please refer to: https://tddft.org/programs/libxc/

 This ORCA versions uses:
   CBLAS   interface :  Fast vector & matrix operations
   LAPACKE interface :  Fast linear algebra routines
   SCALAPACK package :  Parallel linear algebra routines
   Shared memory     :  Shared parallel matrices
   BLAS/LAPACK       :  OpenBLAS 0.3.15  USE64BITINT DYNAMIC_ARCH NO_AFFINITY SkylakeX SINGLE_THREADED
        Core in use  :  SkylakeX
   Copyright (c) 2011-2014, The OpenBLAS Project




***************************************
The coordinates will be read from file: /users/fjb15167/WWenergy/structures/Nt.xyz
***************************************


Your calculation utilizes the atom-pairwise dispersion correction
based on tight binding partial charges (D4)
Cite in your paper:
E.Caldeweyher, C.Bannwarth, S.Grimme, J.Chem.Phys., (2017), 147, 034112.
E.Caldeweyher, S.Ehlert, A.Hansen, H.Neugebauer, S.Grimme, J.Chem.Phys., (2018), in progress.
   

================================================================================

----- Orbital basis set information -----
Your calculation utilizes the basis: 6-31G(d)
   H-He, Li-Ne : W. J. Hehre, R. Ditchfield and J.A. Pople, J. Chem. Phys. 56, 2257 (1972).
                 Note: He and Ne are unpublished basis sets taken from the Gaussian program.
                 Note: Li and B from J. D. Dill and J. A. Pople, J. Chem. Phys. 62, 2921 (1975).
   Na - Ar     : M. M. Francl, W. J. Pietro, W. J. Hehre, J. S. Binkley, M. S. Gordon, 
                 D. J. DeFrees and J. A. Pople, J. Chem. Phys. 77, 3654 (1982).
   K - Zn      : V. A. Rassolov, J. A. Pople, M. A. Ratner, and T. L. Windus, J. Chem. Phys. 109, 1223 (1998).

----- AuxJ basis set information -----
Your calculation utilizes the AutoAux generation procedure.
  G. L. Stoychev, A. A. Auer, F. Neese, J. Chem. Theory Comput. 13, 554 (2017)

----- AuxC basis set information -----
Your calculation utilizes the AutoAux generation procedure.
  G. L. Stoychev, A. A. Auer, F. Neese, J. Chem. Theory Comput. 13, 554 (2017)

----- AuxJK basis set information -----
Your calculation utilizes the AutoAux generation procedure.
  G. L. Stoychev, A. A. Auer, F. Neese, J. Chem. Theory Comput. 13, 554 (2017)

================================================================================
                                        WARNINGS
                       Please study these warnings very carefully!
================================================================================


WARNING: Geometry Optimization
  ===> : Switching off AutoStart
         For restart on a previous wavefunction, please use MOREAD

INFO   : the flag for use of the SHARK integral package has been found!

================================================================================
                                       INPUT FILE
================================================================================
NAME = Nt_octanol.inp
|  1> ! OPT FREQ B3LYP 6-31G(d) D4 AUTOAUX
|  2> ! CPCM
|  3> 
|  4> %cpcm
|  5> epsilon 9.8629 
|  6> refrac  1.4295 
|  7> end
|  8> 
|  9> %PAL NPROCS 4 END
| 10> 
| 11> %maxcore 3375
| 12> 
| 13> *xyzfile 0 1 /users/fjb15167/WWenergy/structures/Nt.xyz
| 14> 
| 15>                          ****END OF INPUT****
================================================================================

                       *****************************
                       * Geometry Optimization Run *
                       *****************************

Geometry optimization settings:
Update method            Update   .... BFGS
Choice of coordinates    CoordSys .... Z-matrix Internals
Initial Hessian          InHess   .... Almoef's Model

Convergence Tolerances:
Energy Change            TolE     ....  5.0000e-06 Eh
Max. Gradient            TolMAXG  ....  3.0000e-04 Eh/bohr
RMS Gradient             TolRMSG  ....  1.0000e-04 Eh/bohr
Max. Displacement        TolMAXD  ....  4.0000e-03 bohr
RMS Displacement         TolRMSD  ....  2.0000e-03 bohr
Strict Convergence                ....  False
------------------------------------------------------------------------------
                        ORCA OPTIMIZATION COORDINATE SETUP
------------------------------------------------------------------------------

The optimization will be done in new redundant internal coordinates
Making redundant internal coordinates   ...  (new redundants) done
Evaluating the initial hessian          ...  (Almloef) done
Evaluating the coordinates              ...  done
Calculating the B-matrix                .... done
Calculating the G-matrix                .... done
Diagonalizing the G-matrix              .... done
Small eigenvalue found = 7.750e-03
Small eigenvalue found = 1.223e-02
Small eigenvalue found = 1.751e-02
Small eigenvalue found = 2.373e-02
Small eigenvalue found = 2.757e-02
The first mode is                       ....   52
The number of degrees of freedom        ....   81

    -----------------------------------------------------------------
                    Redundant Internal Coordinates


    -----------------------------------------------------------------
         Definition                    Initial Value    Approx d2E/dq
    -----------------------------------------------------------------
      1. B(H   1,C   0)                  1.0883         0.362413   
      2. B(H   2,C   0)                  1.0914         0.358200   
      3. B(H   3,C   0)                  1.0937         0.355254   
      4. B(C   4,C   0)                  1.5110         0.400620   
      5. B(O   5,C   4)                  1.2363         0.984146   
      6. B(N   6,C   4)                  1.3827         0.574861   
      7. B(C   7,N   6)                  1.4485         0.451388   
      8. B(H   8,C   7)                  1.0960         0.352268   
      9. B(H   9,C   7)                  1.0901         0.359939   
     10. B(C  10,N   6)                  1.4499         0.449096   
     11. B(H  11,C  10)                  1.0979         0.349844   
     12. B(C  12,C  10)                  1.5236         0.382456   
     13. B(H  13,C  12)                  1.0904         0.359566   
     14. B(H  14,C  12)                  1.0890         0.361425   
     15. B(C  15,C   7)                  1.5327         0.369950   
     16. B(N  16,C  15)                  1.3669         0.609199   
     17. B(O  17,C  15)                  1.2364         0.983959   
     18. B(C  18,N  16)                  1.4552         0.440454   
     19. B(H  19,C  18)                  1.0934         0.355600   
     20. B(H  20,C  18)                  1.0900         0.360084   
     21. B(H  21,C  18)                  1.0970         0.350908   
     22. B(C  22,N  16)                  1.4563         0.438652   
     23. B(H  23,C  22)                  1.0962         0.352019   
     24. B(H  24,C  22)                  1.0884         0.362180   
     25. B(H  25,C  22)                  1.0936         0.355381   
     26. B(O  26,C  10)                  1.4329         0.477938   
     27. B(H  27,O  26)                  0.9735         0.494830   
     28. B(H  28,C  12)                  1.0964         0.351757   
     29. A(H   3,C   0,C   4)          109.6315         0.327339   
     30. A(H   1,C   0,C   4)          112.5007         0.328418   
     31. A(H   2,C   0,H   3)          107.6690         0.289981   
     32. A(H   2,C   0,C   4)          106.7008         0.327785   
     33. A(H   1,C   0,H   3)          109.9803         0.290513   
     34. A(H   1,C   0,H   2)          110.1987         0.290890   
     35. A(C   0,C   4,O   5)          120.7592         0.433196   
     36. A(O   5,C   4,N   6)          120.0810         0.459436   
     37. A(C   0,C   4,N   6)          119.1328         0.393759   
     38. A(C   4,N   6,C  10)          126.5402         0.399167   
     39. A(C   7,N   6,C  10)          118.2126         0.382648   
     40. A(C   4,N   6,C   7)          114.4465         0.399525   
     41. A(H   8,C   7,H   9)          108.3830         0.289817   
     42. A(N   6,C   7,H   9)          107.7190         0.332570   
     43. A(H   9,C   7,C  15)          110.6830         0.323776   
     44. A(N   6,C   7,C  15)          111.1170         0.372374   
     45. A(N   6,C   7,H   8)          108.9885         0.331385   
     46. A(H   8,C   7,C  15)          109.8737         0.322634   
     47. A(H  11,C  10,O  26)          109.2597         0.334157   
     48. A(C  12,C  10,O  26)          112.3166         0.378231   
     49. A(H  11,C  10,C  12)          107.4664         0.324031   
     50. A(N   6,C  10,C  12)          115.3715         0.374185   
     51. A(N   6,C  10,O  26)          107.4327         0.386472   
     52. A(N   6,C  10,H  11)          104.6130         0.330728   
     53. A(H  14,C  12,H  28)          108.2113         0.289938   
     54. A(H  13,C  12,H  28)          108.9474         0.289704   
     55. A(C  10,C  12,H  28)          109.3111         0.324322   
     56. A(H  13,C  12,H  14)          109.9105         0.290939   
     57. A(C  10,C  12,H  14)          111.6493         0.325770   
     58. A(C  10,C  12,H  13)          108.7709         0.325494   
     59. A(N  16,C  15,O  17)          122.8250         0.464317   
     60. A(C   7,C  15,O  17)          120.6063         0.427032   
     61. A(C   7,C  15,N  16)          116.5140         0.392271   
     62. A(C  15,N  16,C  18)          123.2249         0.401888   
     63. A(C  18,N  16,C  22)          116.0807         0.379472   
     64. A(C  15,N  16,C  22)          118.3989         0.401598   
     65. A(H  19,C  18,H  20)          107.5533         0.290264   
     66. A(N  16,C  18,H  20)          111.1381         0.331244   
     67. A(N  16,C  18,H  19)          108.1013         0.330557   
     68. A(H  20,C  18,H  21)          109.2173         0.289660   
     69. A(H  19,C  18,H  21)          108.5976         0.289091   
     70. A(N  16,C  18,H  21)          112.0914         0.329832   
     71. A(H  24,C  22,H  25)          109.9345         0.290500   
     72. A(H  23,C  22,H  25)          109.0001         0.289207   
     73. A(N  16,C  22,H  25)          109.6033         0.330300   
     74. A(H  23,C  22,H  24)          109.2267         0.290067   
     75. A(N  16,C  22,H  24)          108.1727         0.331337   
     76. A(N  16,C  22,H  23)          110.8923         0.329781   
     77. A(C  10,O  26,H  27)          106.9960         0.351081   
     78. D(O   5,C   4,C   0,H   2)     31.7783         0.011909   
     79. D(O   5,C   4,C   0,H   1)    152.7400         0.011909   
     80. D(N   6,C   4,C   0,H   1)    -25.3705         0.011909   
     81. D(N   6,C   4,C   0,H   2)   -146.3322         0.011909   
     82. D(O   5,C   4,C   0,H   3)    -84.5468         0.011909   
     83. D(N   6,C   4,C   0,H   3)     97.3427         0.011909   
     84. D(C   7,N   6,C   4,C   0)    176.8767         0.026475   
     85. D(C  10,N   6,C   4,C   0)    -13.6324         0.026475   
     86. D(C   7,N   6,C   4,O   5)     -1.2469         0.026475   
     87. D(C  10,N   6,C   4,O   5)    168.2440         0.026475   
     88. D(C  15,C   7,N   6,C   4)     83.4428         0.017383   
     89. D(H   9,C   7,N   6,C   4)    -37.9482         0.017383   
     90. D(H   8,C   7,N   6,C  10)     34.2327         0.017383   
     91. D(H   9,C   7,N   6,C  10)    151.6243         0.017383   
     92. D(H   8,C   7,N   6,C   4)   -155.3398         0.017383   
     93. D(C  15,C   7,N   6,C  10)    -86.9847         0.017383   
     94. D(O  26,C  10,N   6,C   7)   -117.7961         0.017205   
     95. D(O  26,C  10,N   6,C   4)     73.0647         0.017205   
     96. D(C  12,C  10,N   6,C   7)    116.0893         0.017205   
     97. D(C  12,C  10,N   6,C   4)    -53.0499         0.017205   
     98. D(H  11,C  10,N   6,C   7)     -1.7461         0.017205   
     99. D(H  11,C  10,N   6,C   4)   -170.8852         0.017205   
    100. D(H  28,C  12,C  10,H  11)    -54.7800         0.011650   
    101. D(H  28,C  12,C  10,N   6)   -171.0073         0.011650   
    102. D(H  14,C  12,C  10,O  26)    -54.2792         0.011650   
    103. D(H  14,C  12,C  10,H  11)   -174.4744         0.011650   
    104. D(H  14,C  12,C  10,N   6)     69.2984         0.011650   
    105. D(H  13,C  12,C  10,O  26)   -175.7376         0.011650   
    106. D(H  13,C  12,C  10,H  11)     64.0673         0.011650   
    107. D(H  28,C  12,C  10,O  26)     65.4152         0.011650   
    108. D(H  13,C  12,C  10,N   6)    -52.1600         0.011650   
    109. D(O  17,C  15,C   7,H   9)    135.4131         0.010249   
    110. D(O  17,C  15,C   7,H   8)   -104.9232         0.010249   
    111. D(O  17,C  15,C   7,N   6)     15.7736         0.010249   
    112. D(N  16,C  15,C   7,H   9)    -47.2029         0.010249   
    113. D(N  16,C  15,C   7,H   8)     72.4607         0.010249   
    114. D(N  16,C  15,C   7,N   6)   -166.8424         0.010249   
    115. D(C  22,N  16,C  15,O  17)     -8.8929         0.029971   
    116. D(C  22,N  16,C  15,C   7)    173.7865         0.029971   
    117. D(C  18,N  16,C  15,O  17)   -170.9924         0.029971   
    118. D(C  18,N  16,C  15,C   7)     11.6871         0.029971   
    119. D(H  21,C  18,N  16,C  15)     80.9272         0.016543   
    120. D(H  20,C  18,N  16,C  22)    155.9137         0.016543   
    121. D(H  20,C  18,N  16,C  15)    -41.6057         0.016543   
    122. D(H  19,C  18,N  16,C  22)     38.1020         0.016543   
    123. D(H  21,C  18,N  16,C  22)    -81.5534         0.016543   
    124. D(H  19,C  18,N  16,C  15)   -159.4174         0.016543   
    125. D(H  25,C  22,N  16,C  18)    -58.8018         0.016407   
    126. D(H  25,C  22,N  16,C  15)    137.8329         0.016407   
    127. D(H  24,C  22,N  16,C  18)   -178.6584         0.016407   
    128. D(H  24,C  22,N  16,C  15)     17.9763         0.016407   
    129. D(H  23,C  22,N  16,C  18)     61.5872         0.016407   
    130. D(H  23,C  22,N  16,C  15)   -101.7781         0.016407   
    131. D(H  27,O  26,C  10,C  12)    -41.9179         0.018016   
    132. D(H  27,O  26,C  10,H  11)     77.2324         0.018016   
    133. D(H  27,O  26,C  10,N   6)   -169.8238         0.018016   
    -----------------------------------------------------------------

Number of atoms                         .... 29
Number of degrees of freedom            .... 133

         *************************************************************
         *                GEOMETRY OPTIMIZATION CYCLE   1            *
         *************************************************************
---------------------------------
CARTESIAN COORDINATES (ANGSTROEM)
---------------------------------
  C      2.670000    1.500000   -0.811000
  H      3.410000    0.952000   -0.231000
  H      2.876000    2.571000   -0.769000
  H      2.716000    1.194000   -1.860000
  C      1.266000    1.307000   -0.287000
  O      0.403000    2.176000   -0.456000
  N      0.964000    0.159000    0.422000
  C     -0.389000    0.111000    0.937000
  H     -0.416000   -0.555000    1.807000
  H     -0.655000    1.116000    1.265000
  C      1.772000   -1.042000    0.505000
  H      1.129000   -1.774000    1.011000
  C      2.186000   -1.644000   -0.832000
  H      1.296000   -1.776000   -1.448000
  H      2.906000   -1.013000   -1.351000
  C     -1.369000   -0.387000   -0.131000
  N     -2.699000   -0.216000    0.134000
  O     -0.956000   -0.956000   -1.148000
  C     -3.195000    0.612000    1.223000
  H     -4.218000    0.299000    1.449000
  H     -2.601000    0.471000    2.126000
  H     -3.205000    1.677000    0.960000
  C     -3.661000   -0.547000   -0.908000
  H     -4.024000    0.359000   -1.407000
  H     -3.165000   -1.184000   -1.638000
  H     -4.511000   -1.076000   -0.468000
  O      2.898000   -0.745000    1.340000
  H      3.516000   -1.493000    1.261000
  H      2.649000   -2.623000   -0.661000

----------------------------
CARTESIAN COORDINATES (A.U.)
----------------------------
  NO LB      ZA    FRAG     MASS         X           Y           Z
   0 C     6.0000    0    12.011    5.045569    2.834589   -1.532568
   1 H     1.0000    0     1.008    6.443966    1.799019   -0.436527
   2 H     1.0000    0     1.008    5.434852    4.858486   -1.453199
   3 H     1.0000    0     1.008    5.132496    2.256333   -3.514891
   4 C     6.0000    0    12.011    2.392393    2.469872   -0.542351
   5 O     8.0000    0    15.999    0.761560    4.112044   -0.861715
   6 N     7.0000    0    14.007    1.821696    0.300466    0.797464
   7 C     6.0000    0    12.011   -0.735103    0.209760    1.770673
   8 H     1.0000    0     1.008   -0.786126   -1.048798    3.414735
   9 H     1.0000    0     1.008   -1.237771    2.108934    2.390504
  10 C     6.0000    0    12.011    3.348595   -1.969095    0.954312
  11 H     1.0000    0     1.008    2.133501   -3.352374    1.910513
  12 C     6.0000    0    12.011    4.130941   -3.106710   -1.572252
  13 H     1.0000    0     1.008    2.449085   -3.356154   -2.736323
  14 H     1.0000    0     1.008    5.491544   -1.914293   -2.553020
  15 C     6.0000    0    12.011   -2.587035   -0.731324   -0.247554
  16 N     7.0000    0    14.007   -5.100371   -0.408181    0.253223
  17 O     8.0000    0    15.999   -1.806578   -1.806578   -2.169406
  18 C     6.0000    0    12.011   -6.037675    1.156512    2.311135
  19 H     1.0000    0     1.008   -7.970865    0.565028    2.738213
  20 H     1.0000    0     1.008   -4.915178    0.890061    4.017558
  21 H     1.0000    0     1.008   -6.056572    3.169071    1.814137
  22 C     6.0000    0    12.011   -6.918287   -1.033680   -1.715871
  23 H     1.0000    0     1.008   -7.604258    0.678412   -2.658845
  24 H     1.0000    0     1.008   -5.980983   -2.237436   -3.095371
  25 H     1.0000    0     1.008   -8.524555   -2.033345   -0.884392
  26 O     8.0000    0    15.999    5.476426   -1.407846    2.532233
  27 H     1.0000    0     1.008    6.644277   -2.821361    2.382945
  28 H     1.0000    0     1.008    5.005885   -4.956752   -1.249109

--------------------------------
INTERNAL COORDINATES (ANGSTROEM)
--------------------------------
 C      0   0   0     0.000000000000     0.00000000     0.00000000
 H      1   0   0     1.088257322512     0.00000000     0.00000000
 H      1   2   0     1.091439874661   110.19866586     0.00000000
 H      1   2   3     1.093687798231   109.98027420   118.54715066
 C      1   2   3     1.510973527233   112.50071339   241.06407238
 O      5   1   2     1.236321560113   120.75922201   152.74000593
 N      5   1   2     1.382674582105   119.13275954   334.62950036
 C      7   5   1     1.448495081110   114.44651803   176.87668186
 H      8   7   5     1.095985857573   108.98853953   204.66018424
 H      8   7   5     1.090121552855   107.71900483   322.05177906
 C      7   5   1     1.449880684746   126.54018410   346.36763133
 H     11   7   5     1.097865656627   104.61296306   189.11476060
 C     11   7   5     1.523603951163   115.37147597   306.95014147
 H     13  11   7     1.090403595005   108.77093293   307.83999981
 H     13  11   7     1.089000459137   111.64928425    69.29837385
 C      8   7   5     1.532653907443   111.11704406    83.44276663
 N     16   8   7     1.366881852978   116.51396233   193.15762100
 O     16   8   7     1.236373325497   120.60628549    15.77364699
 C     17  16   8     1.455170436753   123.22494540    11.68706681
 H     19  17  16     1.093423065423   108.10134400   200.58263000
 H     19  17  16     1.090011926540   111.13814004   318.39429378
 H     19  17  16     1.097038741340   112.09135156    80.92720111
 C     17  16   8     1.456286029597   118.39886351   173.78651300
 H     23  17  16     1.096177905269   110.89230879   258.22189524
 H     23  17  16     1.088432358946   108.17270654    17.97630131
 H     23  17  16     1.093590874139   109.60325248   137.83287427
 O     11   7   5     1.432937542254   107.43272695    73.06467797
 H     27  11   7     0.973482922295   106.99596044   190.17617553
 H     13  11   7     1.096380864481   109.31109053   188.99270113

---------------------------
INTERNAL COORDINATES (A.U.)
---------------------------
 C      0   0   0     0.000000000000     0.00000000     0.00000000
 H      1   0   0     2.056508302781     0.00000000     0.00000000
 H      1   2   0     2.062522454751   110.19866586     0.00000000
 H      1   2   3     2.066770414668   109.98027420   118.54715066
 C      1   2   3     2.855326162076   112.50071339   241.06407238
 O      5   1   2     2.336309162076   120.75922201   152.74000593
 N      5   1   2     2.612876292513   119.13275954   334.62950036
 C      7   5   1     2.737259009630   114.44651803   176.87668186
 H      8   7   5     2.071113117464   108.98853953   204.66018424
 H      8   7   5     2.060031187582   107.71900483   322.05177906
 C      7   5   1     2.739877421032   126.54018410   346.36763133
 H     11   7   5     2.074665422862   104.61296306   189.11476060
 C     11   7   5     2.879194204259   115.37147597   306.95014147
 H     13  11   7     2.060564170003   108.77093293   307.83999981
 H     13  11   7     2.057912627483   111.64928425    69.29837385
 C      8   7   5     2.896296143151   111.11704406    83.44276663
 N     16   8   7     2.583032359555   116.51396233   193.15762100
 O     16   8   7     2.336406984474   120.60628549    15.77364699
 C     17  16   8     2.749873603642   123.22494540    11.68706681
 H     19  17  16     2.066270142163   108.10134400   200.58263000
 H     19  17  16     2.059824023869   111.13814004   318.39429378
 H     19  17  16     2.073102779434   112.09135156    80.92720111
 C     17  16   8     2.751981768594   118.39886351   173.78651300
 H     23  17  16     2.071476035014   110.89230879   258.22189524
 H     23  17  16     2.056839073705   108.17270654    17.97630131
 H     23  17  16     2.066587254678   109.60325248   137.83287427
 O     11   7   5     2.707859521874   107.43272695    73.06467797
 H     27  11   7     1.839616119187   106.99596044   190.17617553
 H     13  11   7     2.071859572341   109.31109053   188.99270113

---------------------
BASIS SET INFORMATION
---------------------
There are 4 groups of distinct atoms

 Group   1 Type C   : 10s4p1d contracted to 3s2p1d pattern {631/31/1}
 Group   2 Type H   : 4s contracted to 2s pattern {31}
 Group   3 Type O   : 10s4p1d contracted to 3s2p1d pattern {631/31/1}
 Group   4 Type N   : 10s4p1d contracted to 3s2p1d pattern {631/31/1}

Atom   0C    basis set group =>   1
Atom   1H    basis set group =>   2
Atom   2H    basis set group =>   2
Atom   3H    basis set group =>   2
Atom   4C    basis set group =>   1
Atom   5O    basis set group =>   3
Atom   6N    basis set group =>   4
Atom   7C    basis set group =>   1
Atom   8H    basis set group =>   2
Atom   9H    basis set group =>   2
Atom  10C    basis set group =>   1
Atom  11H    basis set group =>   2
Atom  12C    basis set group =>   1
Atom  13H    basis set group =>   2
Atom  14H    basis set group =>   2
Atom  15C    basis set group =>   1
Atom  16N    basis set group =>   4
Atom  17O    basis set group =>   3
Atom  18C    basis set group =>   1
Atom  19H    basis set group =>   2
Atom  20H    basis set group =>   2
Atom  21H    basis set group =>   2
Atom  22C    basis set group =>   1
Atom  23H    basis set group =>   2
Atom  24H    basis set group =>   2
Atom  25H    basis set group =>   2
Atom  26O    basis set group =>   3
Atom  27H    basis set group =>   2
Atom  28H    basis set group =>   2
---------------------------------
AUXILIARY/J BASIS SET INFORMATION
---------------------------------
There are 4 groups of distinct atoms

 Group   1 Type C   : 13s11p10d2f contracted to 13s11p10d2f pattern {1111111111111/11111111111/1111111111/11}
 Group   2 Type H   : 9s2p contracted to 9s2p pattern {111111111/11}
 Group   3 Type O   : 14s11p10d2f contracted to 14s11p10d2f pattern {11111111111111/11111111111/1111111111/11}
 Group   4 Type N   : 14s11p10d2f contracted to 14s11p10d2f pattern {11111111111111/11111111111/1111111111/11}

Atom   0C    basis set group =>   1
Atom   1H    basis set group =>   2
Atom   2H    basis set group =>   2
Atom   3H    basis set group =>   2
Atom   4C    basis set group =>   1
Atom   5O    basis set group =>   3
Atom   6N    basis set group =>   4
Atom   7C    basis set group =>   1
Atom   8H    basis set group =>   2
Atom   9H    basis set group =>   2
Atom  10C    basis set group =>   1
Atom  11H    basis set group =>   2
Atom  12C    basis set group =>   1
Atom  13H    basis set group =>   2
Atom  14H    basis set group =>   2
Atom  15C    basis set group =>   1
Atom  16N    basis set group =>   4
Atom  17O    basis set group =>   3
Atom  18C    basis set group =>   1
Atom  19H    basis set group =>   2
Atom  20H    basis set group =>   2
Atom  21H    basis set group =>   2
Atom  22C    basis set group =>   1
Atom  23H    basis set group =>   2
Atom  24H    basis set group =>   2
Atom  25H    basis set group =>   2
Atom  26O    basis set group =>   3
Atom  27H    basis set group =>   2
Atom  28H    basis set group =>   2
---------------------------------
AUXILIARY/C BASIS SET INFORMATION
---------------------------------
There are 4 groups of distinct atoms

 Group   1 Type C   : 13s11p10d2f contracted to 13s11p10d2f pattern {1111111111111/11111111111/1111111111/11}
 Group   2 Type H   : 9s2p contracted to 9s2p pattern {111111111/11}
 Group   3 Type O   : 14s11p10d2f contracted to 14s11p10d2f pattern {11111111111111/11111111111/1111111111/11}
 Group   4 Type N   : 14s11p10d2f contracted to 14s11p10d2f pattern {11111111111111/11111111111/1111111111/11}

Atom   0C    basis set group =>   1
Atom   1H    basis set group =>   2
Atom   2H    basis set group =>   2
Atom   3H    basis set group =>   2
Atom   4C    basis set group =>   1
Atom   5O    basis set group =>   3
Atom   6N    basis set group =>   4
Atom   7C    basis set group =>   1
Atom   8H    basis set group =>   2
Atom   9H    basis set group =>   2
Atom  10C    basis set group =>   1
Atom  11H    basis set group =>   2
Atom  12C    basis set group =>   1
Atom  13H    basis set group =>   2
Atom  14H    basis set group =>   2
Atom  15C    basis set group =>   1
Atom  16N    basis set group =>   4
Atom  17O    basis set group =>   3
Atom  18C    basis set group =>   1
Atom  19H    basis set group =>   2
Atom  20H    basis set group =>   2
Atom  21H    basis set group =>   2
Atom  22C    basis set group =>   1
Atom  23H    basis set group =>   2
Atom  24H    basis set group =>   2
Atom  25H    basis set group =>   2
Atom  26O    basis set group =>   3
Atom  27H    basis set group =>   2
Atom  28H    basis set group =>   2
----------------------------------
AUXILIARY/JK BASIS SET INFORMATION
----------------------------------
There are 4 groups of distinct atoms

 Group   1 Type C   : 13s11p10d2f contracted to 13s11p10d2f pattern {1111111111111/11111111111/1111111111/11}
 Group   2 Type H   : 9s2p contracted to 9s2p pattern {111111111/11}
 Group   3 Type O   : 14s11p10d2f contracted to 14s11p10d2f pattern {11111111111111/11111111111/1111111111/11}
 Group   4 Type N   : 14s11p10d2f contracted to 14s11p10d2f pattern {11111111111111/11111111111/1111111111/11}

Atom   0C    basis set group =>   1
Atom   1H    basis set group =>   2
Atom   2H    basis set group =>   2
Atom   3H    basis set group =>   2
Atom   4C    basis set group =>   1
Atom   5O    basis set group =>   3
Atom   6N    basis set group =>   4
Atom   7C    basis set group =>   1
Atom   8H    basis set group =>   2
Atom   9H    basis set group =>   2
Atom  10C    basis set group =>   1
Atom  11H    basis set group =>   2
Atom  12C    basis set group =>   1
Atom  13H    basis set group =>   2
Atom  14H    basis set group =>   2
Atom  15C    basis set group =>   1
Atom  16N    basis set group =>   4
Atom  17O    basis set group =>   3
Atom  18C    basis set group =>   1
Atom  19H    basis set group =>   2
Atom  20H    basis set group =>   2
Atom  21H    basis set group =>   2
Atom  22C    basis set group =>   1
Atom  23H    basis set group =>   2
Atom  24H    basis set group =>   2
Atom  25H    basis set group =>   2
Atom  26O    basis set group =>   3
Atom  27H    basis set group =>   2
Atom  28H    basis set group =>   2


           ************************************************************
           *        Program running with 4 parallel MPI-processes     *
           *              working on a common directory               *
           ************************************************************
------------------------------------------------------------------------------
                           ORCA GTO INTEGRAL CALCULATION
                           -- RI-GTO INTEGRALS CHOSEN --
------------------------------------------------------------------------------
------------------------------------------------------------------------------
                   ___                                                        
                  /   \      - P O W E R E D   B Y -                         
                 /     \                                                     
                 |  |  |   _    _      __       _____    __    __             
                 |  |  |  | |  | |    /  \     |  _  \  |  |  /  |          
                  \  \/   | |  | |   /    \    | | | |  |  | /  /          
                 / \  \   | |__| |  /  /\  \   | |_| |  |  |/  /          
                |  |  |   |  __  | /  /__\  \  |    /   |      \           
                |  |  |   | |  | | |   __   |  |    \   |  |\   \          
                \     /   | |  | | |  |  |  |  | |\  \  |  | \   \       
                 \___/    |_|  |_| |__|  |__|  |_| \__\ |__|  \__/        
                                                                              
                      - O R C A' S   B I G   F R I E N D -                    
                                      &                                       
                       - I N T E G R A L  F E E D E R -                       
                                                                              
 v1 FN, 2020, v2 2021                                                         
------------------------------------------------------------------------------


Reading SHARK input file Nt_octanol.SHARKINP.tmp ... ok
----------------------
SHARK INTEGRAL PACKAGE
----------------------

Number of atoms                             ...     29
Number of basis functions                   ...    214
Number of shells                            ...    110
Maximum angular momentum                    ...      2
Integral batch strategy                     ... SHARK/LIBINT Hybrid
RI-J (if used) integral strategy            ... SPLIT-RIJ (Revised 2003 algorithm where possible)
Printlevel                                  ...      1
Contraction scheme used                     ... SEGMENTED contraction
Coulomb Range Separation                    ... NOT USED
Exchange Range Separation                   ... NOT USED
Finite Nucleus Model                        ... NOT USED
Auxiliary Coulomb fitting basis             ... AVAILABLE
   # of basis functions in Aux-J            ...   1675
   # of shells in Aux-J                     ...    649
   Maximum angular momentum in Aux-J        ...      3
Auxiliary J/K fitting basis                 ... AVAILABLE
   # of basis functions in Aux-JK           ...   1675
   # of shells in Aux-JK                    ...    649
   Maximum angular momentum in Aux-JK       ...      3
Auxiliary Correlation fitting basis         ... AVAILABLE
   # of basis functions in Aux-C            ...   1675
   # of shells in Aux-C                     ...    649
   Maximum angular momentum in Aux-C        ...      3
Auxiliary 'external' fitting basis          ... NOT available
Integral threshold                          ...     2.500000e-11
Primitive cut-off                           ...     2.500000e-12
Primitive pair pre-selection threshold      ...     2.500000e-12

Calculating pre-screening integrals         ... done (  0.0 sec) Dimension = 110
Organizing shell pair data                  ... done (  0.0 sec)
Shell pair information
Total number of shell pairs                 ...      6105
Shell pairs after pre-screening             ...      5287
Total number of primitive shell pairs       ...     33991
Primitive shell pairs kept                  ...     17604
          la=0 lb=0:   2123 shell pairs
          la=1 lb=0:   1683 shell pairs
          la=1 lb=1:    337 shell pairs
          la=2 lb=0:    758 shell pairs
          la=2 lb=1:    309 shell pairs
          la=2 lb=2:     77 shell pairs

Calculating one electron integrals          ... done (  0.0 sec)
Calculating RI/J V-Matrix + Cholesky decomp.... done (  0.2 sec)
Calculating RI/JK V-Matrix + Cholesky decomp... done (  0.2 sec)
Calculating RI/C V-Matrix + Cholesky decomp.... done (  0.2 sec)
Calculating Nuclear repulsion               ... done (  0.0 sec) ENN=    887.265069263206 Eh

SHARK setup successfully completed in   0.9 seconds

Maximum memory used throughout the entire GTOINT-calculation: 25.8 MB


           ************************************************************
           *        Program running with 4 parallel MPI-processes     *
           *              working on a common directory               *
           ************************************************************
-------------------------------------------------------------------------------
                                 ORCA SCF
-------------------------------------------------------------------------------

------------
SCF SETTINGS
------------
Hamiltonian:
 Density Functional     Method          .... DFT(GTOs)
 Exchange Functional    Exchange        .... B88
   X-Alpha parameter    XAlpha          ....  0.666667
   Becke's b parameter  XBeta           ....  0.004200
 Correlation Functional Correlation     .... LYP
 LDA part of GGA corr.  LDAOpt          .... VWN-5
 Gradients option       PostSCFGGA      .... off
 Hybrid DFT is turned on
   Fraction HF Exchange ScalHFX         ....  0.200000
   Scaling of DF-GGA-X  ScalDFX         ....  0.720000
   Scaling of DF-GGA-C  ScalDFC         ....  0.810000
   Scaling of DF-LDA-C  ScalLDAC        ....  1.000000
   Perturbative correction              ....  0.000000
   Density functional embedding theory  .... OFF
   NL short-range parameter             ....  4.800000
 RI-approximation to the Coulomb term is turned on
   Number of AuxJ basis functions       .... 1675
   RIJ-COSX (HFX calculated with COS-X)).... on


General Settings:
 Integral files         IntName         .... Nt_octanol
 Hartree-Fock type      HFTyp           .... RHF
 Total Charge           Charge          ....    0
 Multiplicity           Mult            ....    1
 Number of Electrons    NEL             ....  102
 Basis Dimension        Dim             ....  214
 Nuclear Repulsion      ENuc            ....    887.2650692632 Eh

Convergence Acceleration:
 DIIS                   CNVDIIS         .... on
   Start iteration      DIISMaxIt       ....    12
   Startup error        DIISStart       ....  0.200000
   # of expansion vecs  DIISMaxEq       ....     5
   Bias factor          DIISBfac        ....   1.050
   Max. coefficient     DIISMaxC        ....  10.000
 Trust-Rad. Augm. Hess. CNVTRAH         .... auto
   Auto Start mean grad. ratio tolernc. ....  1.125000
   Auto Start start iteration           ....    20
   Auto Start num. interpolation iter.  ....    10
   Max. Number of Micro iterations      ....    16
   Max. Number of Macro iterations      .... Maxiter - #DIIS iter
   Number of Davidson start vectors     ....     2
   Converg. threshold I  (grad. norm)   ....   1.000e-05
   Converg. threshold II (energy diff.) ....   1.000e-08
   Grad. Scal. Fac. for Micro threshold ....   0.100
   Minimum threshold for Micro iter.    ....   0.010
   NR start threshold (gradient norm)   ....   0.001
   Initial trust radius                 ....   0.400
   Minimum AH scaling param. (alpha)    ....   1.000
   Maximum AH scaling param. (alpha)    .... 1000.000
   Orbital update algorithm             .... Taylor
   White noise on init. David. guess    .... on
   Maximum white noise                  ....   0.010
   Quad. conv. algorithm                .... NR
 SOSCF                  CNVSOSCF        .... on
   Start iteration      SOSCFMaxIt      ....   150
   Startup grad/error   SOSCFStart      ....  0.003300
 Level Shifting         CNVShift        .... on
   Level shift para.    LevelShift      ....    0.2500
   Turn off err/grad.   ShiftErr        ....    0.0010
 Zerner damping         CNVZerner       .... off
 Static damping         CNVDamp         .... on
   Fraction old density DampFac         ....    0.7000
   Max. Damping (<1)    DampMax         ....    0.9800
   Min. Damping (>=0)   DampMin         ....    0.0000
   Turn off err/grad.   DampErr         ....    0.1000
 Fernandez-Rico         CNVRico         .... off

SCF Procedure:
 Maximum # iterations   MaxIter         ....   125
 SCF integral mode      SCFMode         .... Direct
   Integral package                     .... SHARK and LIBINT hybrid scheme
 Reset frequency        DirectResetFreq ....    20
 Integral Threshold     Thresh          ....  2.500e-11 Eh
 Primitive CutOff       TCut            ....  2.500e-12 Eh

Convergence Tolerance:
 Convergence Check Mode ConvCheckMode   .... Total+1el-Energy
 Convergence forced     ConvForced      .... 0
 Energy Change          TolE            ....  1.000e-08 Eh
 1-El. energy change                    ....  1.000e-05 Eh
 Orbital Gradient       TolG            ....  1.000e-05
 Orbital Rotation angle TolX            ....  1.000e-05
 DIIS Error             TolErr          ....  5.000e-07


Diagonalization of the overlap matrix:
Smallest eigenvalue                        ... 2.848e-03
Time for diagonalization                   ...    0.008 sec
Threshold for overlap eigenvalues          ... 1.000e-08
Number of eigenvalues below threshold      ... 0
Time for construction of square roots      ...    0.004 sec
Total time needed                          ...    0.012 sec

Time for model grid setup =    0.231 sec

------------------------------
INITIAL GUESS: MODEL POTENTIAL
------------------------------
Loading Hartree-Fock densities                     ... done
Calculating cut-offs                               ... done
Initializing the effective Hamiltonian             ... done
Setting up the integral package (SHARK)            ... done
Starting the Coulomb interaction                   ... done (   0.7 sec)
Reading the grid                                   ... done
Mapping shells                                     ... done
Starting the XC term evaluation                    ... done (   0.1 sec)
  promolecular density results
     # of electrons  =    101.995633137
     EX              =    -83.655203836
     EC              =     -3.461994333
     EX+EC           =    -87.117198169
Transforming the Hamiltonian                       ... done (   0.0 sec)
Diagonalizing the Hamiltonian                      ... done (   0.0 sec)
Back transforming the eigenvectors                 ... done (   0.0 sec)
Now organizing SCF variables                       ... done
                      ------------------
                      INITIAL GUESS DONE (   1.2 sec)
                      ------------------
-------------------
DFT GRID GENERATION
-------------------

General Integration Accuracy     IntAcc      ... 4.388
Radial Grid Type                 RadialGrid  ... OptM3 with GC (2021)
Angular Grid (max. ang.)         AngularGrid ... 4 (Lebedev-302)
Angular grid pruning method      GridPruning ... 4 (adaptive)
Weight generation scheme         WeightScheme... Becke
Basis function cutoff            BFCut       ... 1.0000e-11
Integration weight cutoff        WCut        ... 1.0000e-14
Angular grids for H and He will be reduced by one unit
Partially contracted basis set               ... off
Rotationally invariant grid construction     ... off

Total number of grid points                  ...   129087
Total number of batches                      ...     2033
Average number of points per batch           ...       63
Average number of grid points per atom       ...     4451
Time for grid setup =    0.969 sec

--------------------
COSX GRID GENERATION
--------------------

GRIDX 1
-------
General Integration Accuracy     IntAcc      ... 3.816
Radial Grid Type                 RadialGrid  ... OptM3 with GC (2021)
Angular Grid (max. ang.)         AngularGrid ... 1 (Lebedev-50)
Angular grid pruning method      GridPruning ... 4 (adaptive)
Weight generation scheme         WeightScheme... Becke
Basis function cutoff            BFCut       ... 1.0000e-11
Integration weight cutoff        WCut        ... 1.0000e-14
Angular grids for H and He will be reduced by one unit
Partially contracted basis set               ... on
Rotationally invariant grid construction     ... off

Total number of grid points                  ...    16500
Total number of batches                      ...      277
Average number of points per batch           ...       59
Average number of grid points per atom       ...      569
UseSFitting                                  ... on

GRIDX 2
-------
General Integration Accuracy     IntAcc      ... 4.020
Radial Grid Type                 RadialGrid  ... OptM3 with GC (2021)
Angular Grid (max. ang.)         AngularGrid ... 2 (Lebedev-110)
Angular grid pruning method      GridPruning ... 4 (adaptive)
Weight generation scheme         WeightScheme... Becke
Basis function cutoff            BFCut       ... 1.0000e-11
Integration weight cutoff        WCut        ... 1.0000e-14
Angular grids for H and He will be reduced by one unit
Partially contracted basis set               ... on
Rotationally invariant grid construction     ... off

Total number of grid points                  ...    34969
Total number of batches                      ...      560
Average number of points per batch           ...       62
Average number of grid points per atom       ...     1206
UseSFitting                                  ... on

GRIDX 3
-------
General Integration Accuracy     IntAcc      ... 4.338
Radial Grid Type                 RadialGrid  ... OptM3 with GC (2021)
Angular Grid (max. ang.)         AngularGrid ... 3 (Lebedev-194)
Angular grid pruning method      GridPruning ... 4 (adaptive)
Weight generation scheme         WeightScheme... Becke
Basis function cutoff            BFCut       ... 1.0000e-11
Integration weight cutoff        WCut        ... 1.0000e-14
Angular grids for H and He will be reduced by one unit
Partially contracted basis set               ... on
Rotationally invariant grid construction     ... off

Total number of grid points                  ...    76321
Total number of batches                      ...     1207
Average number of points per batch           ...       63
Average number of grid points per atom       ...     2632
UseSFitting                                  ... on

Time for X-Grid setup             =    1.607 sec


--------------------
CPCM SOLVATION MODEL
--------------------
CPCM parameters:
  Epsilon                                         ...       9.8629
  Refrac                                          ...       1.4295
  Rsolv                                           ...       1.3000
  Surface type                                    ... GAUSSIAN VDW
  Epsilon function type                           ...         CPCM
Radii:
 Radius for C  used is    3.8550 Bohr (=   2.0400 Ang.)
 Radius for H  used is    2.4944 Bohr (=   1.3200 Ang.)
 Radius for O  used is    3.4469 Bohr (=   1.8240 Ang.)
 Radius for N  used is    3.5149 Bohr (=   1.8600 Ang.)
Calculating surface                               ...        done! (  0.0s)
GEPOL surface points                              ...         1514
GEPOL Volume                                      ...    1583.4365
GEPOL Surface-area                                ...     853.4285
Calculating surface distance matrix               ...        done! (  0.0s)
Performing Cholesky decomposition & store         ...        done! (  0.1s)
Overall time for CPCM initialization              ...                 0.1s
--------------
SCF ITERATIONS
--------------
ITER       Energy         Delta-E        Max-DP      RMS-DP      [F,P]     Damp
               ***  Starting incremental Fock matrix formation  ***
  0   -648.8684665169   0.000000000000 0.09678225  0.00237281  0.2745409 0.7000
  1   -649.0719540833  -0.203487566364 0.05592546  0.00154477  0.1118449 0.7000
                               ***Turning on DIIS***
  2   -649.1480203478  -0.076066264533 0.06460409  0.00231163  0.0387158 0.0000
  3   -649.2721256410  -0.124105293247 0.03709475  0.00105434  0.0544349 0.0000
  4   -649.2968933961  -0.024767755056 0.00924655  0.00033306  0.0127649 0.0000
  5   -649.2986402094  -0.001746813300 0.00306691  0.00009927  0.0047550 0.0000
                      *** Initiating the SOSCF procedure ***
                           *** Shutting down DIIS ***
                      *** Re-Reading the Fockian *** 
                      *** Removing any level shift *** 
ITER      Energy       Delta-E        Grad      Rot      Max-DP    RMS-DP
  6   -649.29872403  -0.0000838245  0.000198  0.000198  0.001327  0.000045
               *** Restarting incremental Fock matrix formation ***
  7   -649.29871539   0.0000086406  0.000243  0.000929  0.001488  0.000027
  8   -649.29871119   0.0000042054  0.000467  0.000662  0.001002  0.000017
  9   -649.29871793  -0.0000067436  0.000047  0.000126  0.000262  0.000005
 10   -649.29871773   0.0000001973  0.000093  0.000085  0.000182  0.000003
 11   -649.29871800  -0.0000002675  0.000003  0.000005  0.000015  0.000000
 12   -649.29871800   0.0000000047  0.000003  0.000003  0.000009  0.000000
                  ***Gradient check signals convergence***
              ***Rediagonalizing the Fockian in SOSCF/NRSCF***

               *****************************************************
               *                     SUCCESS                       *
               *           SCF CONVERGED AFTER  13 CYCLES          *
               *****************************************************

Old exchange energy                            =    -17.037884005 Eh
New exchange energy                            =    -17.037868592 Eh
Exchange energy change after final integration =      0.000015413 Eh
Total energy after final integration           =   -649.298702588 Eh
Final COS-X integration done in                =     7.330 sec

----------------
TOTAL SCF ENERGY
----------------

Total Energy       :         -649.29870259 Eh          -17668.31594 eV

Components:
Nuclear Repulsion  :          887.26506926 Eh           24143.70998 eV
Electronic Energy  :        -1536.56377185 Eh          -41812.02591 eV
One Electron Energy:        -2646.96893683 Eh          -72027.68659 eV
Two Electron Energy:         1110.40516498 Eh           30215.66067 eV
Max COSX asymmetry :            0.00000251 Eh               0.00007 eV
CPCM Dielectric    :           -0.02241277 Eh              -0.60988 eV

Virial components:
Potential Energy   :        -1294.82003892 Eh          -35233.84451 eV
Kinetic Energy     :          645.52133633 Eh           17565.52858 eV
Virial Ratio       :            2.00585165


DFT components:
N(Alpha)           :       50.999848786046 electrons
N(Beta)            :       50.999848786046 electrons
N(Total)           :      101.999697572091 electrons
E(X)               :      -67.677356633609 Eh       
E(C)               :       -4.079844832598 Eh       
E(XC)              :      -71.757201466206 Eh       
DFET-embed. en.    :        0.000000000000 Eh       
CPCM Solvation Model Properties:
Surface-charge          :           -0.01906293
Charge-correction       :           -0.00018704 Eh              -0.00509 eV
Free-energy (cav+disp)  :  This term is not implemented in the current solvation scheme

---------------
SCF CONVERGENCE
---------------

  Last Energy change         ...   -3.9926e-09  Tolerance :   1.0000e-08
  Last MAX-Density change    ...    4.8850e-15  Tolerance :   1.0000e-07
  Last RMS-Density change    ...    4.9939e-17  Tolerance :   5.0000e-09
  Last Orbital Gradient      ...    6.5092e-07  Tolerance :   1.0000e-05
  Last Orbital Rotation      ...    1.5784e-06  Tolerance :   1.0000e-05

             **** THE GBW FILE WAS UPDATED (Nt_octanol.gbw) ****
             **** DENSITY Nt_octanol.scfp WAS UPDATED ****
             **** ENERGY FILE WAS UPDATED (Nt_octanol.en.tmp) ****
             **** THE GBW FILE WAS UPDATED (Nt_octanol.gbw) ****
             **** DENSITY Nt_octanol.scfp WAS UPDATED ****
----------------
ORBITAL ENERGIES
----------------

  NO   OCC          E(Eh)            E(eV) 
   0   2.0000     -19.138876      -520.7953 
   1   2.0000     -19.108218      -519.9611 
   2   2.0000     -19.107500      -519.9415 
   3   2.0000     -14.356113      -390.6497 
   4   2.0000     -14.352260      -390.5448 
   5   2.0000     -10.280820      -279.7553 
   6   2.0000     -10.278400      -279.6895 
   7   2.0000     -10.263867      -279.2940 
   8   2.0000     -10.211432      -277.8672 
   9   2.0000     -10.203137      -277.6415 
  10   2.0000     -10.194500      -277.4064 
  11   2.0000     -10.166109      -276.6339 
  12   2.0000     -10.159260      -276.4475 
  13   2.0000      -1.038016       -28.2459 
  14   2.0000      -1.025019       -27.8922 
  15   2.0000      -1.017320       -27.6827 
  16   2.0000      -0.928576       -25.2678 
  17   2.0000      -0.920308       -25.0429 
  18   2.0000      -0.759968       -20.6798 
  19   2.0000      -0.738698       -20.1010 
  20   2.0000      -0.720652       -19.6099 
  21   2.0000      -0.705154       -19.1882 
  22   2.0000      -0.666693       -18.1416 
  23   2.0000      -0.644172       -17.5288 
  24   2.0000      -0.551849       -15.0166 
  25   2.0000      -0.520379       -14.1602 
  26   2.0000      -0.510907       -13.9025 
  27   2.0000      -0.504245       -13.7212 
  28   2.0000      -0.490509       -13.3474 
  29   2.0000      -0.471213       -12.8224 
  30   2.0000      -0.464353       -12.6357 
  31   2.0000      -0.455178       -12.3860 
  32   2.0000      -0.436793       -11.8857 
  33   2.0000      -0.424766       -11.5585 
  34   2.0000      -0.419458       -11.4140 
  35   2.0000      -0.408711       -11.1216 
  36   2.0000      -0.400596       -10.9008 
  37   2.0000      -0.398057       -10.8317 
  38   2.0000      -0.394700       -10.7403 
  39   2.0000      -0.389450       -10.5975 
  40   2.0000      -0.374706       -10.1963 
  41   2.0000      -0.372970       -10.1490 
  42   2.0000      -0.370844       -10.0912 
  43   2.0000      -0.354111        -9.6359 
  44   2.0000      -0.342345        -9.3157 
  45   2.0000      -0.336383        -9.1534 
  46   2.0000      -0.273886        -7.4528 
  47   2.0000      -0.257631        -7.0105 
  48   2.0000      -0.250359        -6.8126 
  49   2.0000      -0.240571        -6.5463 
  50   2.0000      -0.235344        -6.4040 
  51   0.0000       0.020642         0.5617 
  52   0.0000       0.025524         0.6945 
  53   0.0000       0.087649         2.3850 
  54   0.0000       0.101756         2.7689 
  55   0.0000       0.118226         3.2171 
  56   0.0000       0.128534         3.4976 
  57   0.0000       0.134438         3.6583 
  58   0.0000       0.151880         4.1329 
  59   0.0000       0.152871         4.1598 
  60   0.0000       0.161456         4.3935 
  61   0.0000       0.170793         4.6475 
  62   0.0000       0.176774         4.8103 
  63   0.0000       0.177593         4.8326 
  64   0.0000       0.181621         4.9422 
  65   0.0000       0.188437         5.1276 
  66   0.0000       0.190959         5.1963 
  67   0.0000       0.194635         5.2963 
  68   0.0000       0.205615         5.5951 
  69   0.0000       0.216007         5.8779 
  70   0.0000       0.224144         6.0993 
  71   0.0000       0.229161         6.2358 
  72   0.0000       0.233244         6.3469 
  73   0.0000       0.248191         6.7536 
  74   0.0000       0.269975         7.3464 
  75   0.0000       0.278535         7.5793 
  76   0.0000       0.298482         8.1221 
  77   0.0000       0.335378         9.1261 
  78   0.0000       0.361428         9.8350 
  79   0.0000       0.398752        10.8506 
  80   0.0000       0.408189        11.1074 
  81   0.0000       0.482145        13.1198 
  82   0.0000       0.504442        13.7266 
  83   0.0000       0.508708        13.8426 
  84   0.0000       0.518913        14.1203 
  85   0.0000       0.534923        14.5560 
  86   0.0000       0.542232        14.7549 
  87   0.0000       0.548465        14.9245 
  88   0.0000       0.572913        15.5897 
  89   0.0000       0.576428        15.6854 
  90   0.0000       0.590438        16.0666 
  91   0.0000       0.600298        16.3349 
  92   0.0000       0.623275        16.9602 
  93   0.0000       0.637590        17.3497 
  94   0.0000       0.646720        17.5981 
  95   0.0000       0.662626        18.0310 
  96   0.0000       0.679645        18.4941 
  97   0.0000       0.690001        18.7759 
  98   0.0000       0.697320        18.9750 
  99   0.0000       0.723526        19.6881 
 100   0.0000       0.740893        20.1607 
 101   0.0000       0.757111        20.6020 
 102   0.0000       0.763566        20.7777 
 103   0.0000       0.778387        21.1810 
 104   0.0000       0.801789        21.8178 
 105   0.0000       0.817962        22.2579 
 106   0.0000       0.820131        22.3169 
 107   0.0000       0.833831        22.6897 
 108   0.0000       0.844380        22.9768 
 109   0.0000       0.848154        23.0794 
 110   0.0000       0.865169        23.5425 
 111   0.0000       0.881478        23.9862 
 112   0.0000       0.889109        24.1939 
 113   0.0000       0.894902        24.3515 
 114   0.0000       0.897931        24.4340 
 115   0.0000       0.901492        24.5309 
 116   0.0000       0.918238        24.9865 
 117   0.0000       0.922795        25.1105 
 118   0.0000       0.936594        25.4860 
 119   0.0000       0.946231        25.7483 
 120   0.0000       0.953600        25.9488 
 121   0.0000       0.957985        26.0681 
 122   0.0000       0.964197        26.2371 
 123   0.0000       0.970998        26.4222 
 124   0.0000       1.005417        27.3588 
 125   0.0000       1.015240        27.6261 
 126   0.0000       1.016632        27.6640 
 127   0.0000       1.039524        28.2869 
 128   0.0000       1.048685        28.5362 
 129   0.0000       1.065340        28.9894 
 130   0.0000       1.074734        29.2450 
 131   0.0000       1.117604        30.4115 
 132   0.0000       1.125931        30.6381 
 133   0.0000       1.146900        31.2087 
 134   0.0000       1.159967        31.5643 
 135   0.0000       1.195944        32.5433 
 136   0.0000       1.205043        32.7909 
 137   0.0000       1.245809        33.9002 
 138   0.0000       1.314250        35.7625 
 139   0.0000       1.328950        36.1626 
 140   0.0000       1.344469        36.5849 
 141   0.0000       1.358980        36.9797 
 142   0.0000       1.379891        37.5487 
 143   0.0000       1.390663        37.8419 
 144   0.0000       1.413221        38.4557 
 145   0.0000       1.448175        39.4068 
 146   0.0000       1.465053        39.8661 
 147   0.0000       1.496856        40.7315 
 148   0.0000       1.541966        41.9590 
 149   0.0000       1.546458        42.0813 
 150   0.0000       1.601419        43.5768 
 151   0.0000       1.672803        45.5193 
 152   0.0000       1.688680        45.9513 
 153   0.0000       1.713881        46.6371 
 154   0.0000       1.721655        46.8486 
 155   0.0000       1.761951        47.9451 
 156   0.0000       1.774452        48.2853 
 157   0.0000       1.788009        48.6542 
 158   0.0000       1.811313        49.2883 
 159   0.0000       1.817932        49.4684 
 160   0.0000       1.832027        49.8520 
 161   0.0000       1.836194        49.9654 
 162   0.0000       1.866850        50.7996 
 163   0.0000       1.872458        50.9522 
 164   0.0000       1.908689        51.9381 
 165   0.0000       1.920777        52.2670 
 166   0.0000       1.933722        52.6193 
 167   0.0000       1.943549        52.8867 
 168   0.0000       1.968489        53.5653 
 169   0.0000       1.978523        53.8383 
 170   0.0000       1.980816        53.9008 
 171   0.0000       1.986108        54.0448 
 172   0.0000       2.021884        55.0182 
 173   0.0000       2.033352        55.3303 
 174   0.0000       2.049262        55.7633 
 175   0.0000       2.091199        56.9044 
 176   0.0000       2.095381        57.0182 
 177   0.0000       2.112744        57.4907 
 178   0.0000       2.119927        57.6861 
 179   0.0000       2.135256        58.1033 
 180   0.0000       2.160768        58.7975 
 181   0.0000       2.195955        59.7550 
 182   0.0000       2.217551        60.3426 
 183   0.0000       2.225547        60.5602 
 184   0.0000       2.231752        60.7291 
 185   0.0000       2.247870        61.1677 
 186   0.0000       2.267674        61.7065 
 187   0.0000       2.274671        61.8969 
 188   0.0000       2.317952        63.0747 
 189   0.0000       2.336668        63.5840 
 190   0.0000       2.344227        63.7897 
 191   0.0000       2.393002        65.1169 
 192   0.0000       2.411892        65.6309 
 193   0.0000       2.427041        66.0431 
 194   0.0000       2.461965        66.9935 
 195   0.0000       2.478931        67.4552 
 196   0.0000       2.510656        68.3184 
 197   0.0000       2.537933        69.0607 
 198   0.0000       2.548697        69.3536 
 199   0.0000       2.580374        70.2156 
 200   0.0000       2.617501        71.2258 
 201   0.0000       2.640501        71.8517 
 202   0.0000       2.652711        72.1839 
 203   0.0000       2.674589        72.7793 
 204   0.0000       2.725305        74.1593 
 205   0.0000       2.742015        74.6140 
 206   0.0000       2.762584        75.1737 
 207   0.0000       2.897252        78.8382 
 208   0.0000       2.944605        80.1268 
 209   0.0000       2.966364        80.7189 
 210   0.0000       3.024921        82.3123 
 211   0.0000       3.061964        83.3203 
 212   0.0000       3.172091        86.3170 
 213   0.0000       3.185842        86.6912 

                    ********************************
                    * MULLIKEN POPULATION ANALYSIS *
                    ********************************

-----------------------
MULLIKEN ATOMIC CHARGES
-----------------------
   0 C :   -0.558351
   1 H :    0.185751
   2 H :    0.179829
   3 H :    0.195643
   4 C :    0.533173
   5 O :   -0.531571
   6 N :   -0.371785
   7 C :   -0.281028
   8 H :    0.203625
   9 H :    0.199279
  10 C :    0.267628
  11 H :    0.152119
  12 C :   -0.503458
  13 H :    0.182745
  14 H :    0.167526
  15 C :    0.547019
  16 N :   -0.375709
  17 O :   -0.521169
  18 C :   -0.336123
  19 H :    0.179160
  20 H :    0.190015
  21 H :    0.177583
  22 C :   -0.330617
  23 H :    0.169713
  24 H :    0.185974
  25 H :    0.169661
  26 O :   -0.663754
  27 H :    0.429386
  28 H :    0.157733
Sum of atomic charges:   -0.0000000

--------------------------------
MULLIKEN REDUCED ORBITAL CHARGES
--------------------------------
  0 C s       :     3.317222  s :     3.317222
      pz      :     1.091860  p :     3.209005
      px      :     1.005832
      py      :     1.111314
      dz2     :     0.008379  d :     0.032124
      dxz     :     0.005850
      dyz     :     0.003526
      dx2y2   :     0.009258
      dxy     :     0.005112
  1 H s       :     0.814249  s :     0.814249
  2 H s       :     0.820171  s :     0.820171
  3 H s       :     0.804357  s :     0.804357
  4 C s       :     2.989057  s :     2.989057
      pz      :     0.782123  p :     2.370250
      px      :     0.829529
      py      :     0.758598
      dz2     :     0.012263  d :     0.107520
      dxz     :     0.013848
      dyz     :     0.020449
      dx2y2   :     0.037085
      dxy     :     0.023876
  5 O s       :     3.856405  s :     3.856405
      pz      :     1.542434  p :     4.649921
      px      :     1.564451
      py      :     1.543036
      dz2     :     0.002657  d :     0.025245
      dxz     :     0.004508
      dyz     :     0.004178
      dx2y2   :     0.006608
      dxy     :     0.007294
  6 N s       :     3.525244  s :     3.525244
      pz      :     1.485295  p :     3.811333
      px      :     1.173632
      py      :     1.152406
      dz2     :     0.004638  d :     0.035207
      dxz     :     0.005209
      dyz     :     0.006639
      dx2y2   :     0.009513
      dxy     :     0.009208
  7 C s       :     3.236850  s :     3.236850
      pz      :     1.030487  p :     2.991270
      px      :     0.831657
      py      :     1.129127
      dz2     :     0.007071  d :     0.052908
      dxz     :     0.014091
      dyz     :     0.009852
      dx2y2   :     0.014644
      dxy     :     0.007250
  8 H s       :     0.796375  s :     0.796375
  9 H s       :     0.800721  s :     0.800721
 10 C s       :     3.082963  s :     3.082963
      pz      :     0.901302  p :     2.564052
      px      :     0.783931
      py      :     0.878819
      dz2     :     0.015542  d :     0.085357
      dxz     :     0.021049
      dyz     :     0.013256
      dx2y2   :     0.012710
      dxy     :     0.022800
 11 H s       :     0.847881  s :     0.847881
 12 C s       :     3.307127  s :     3.307127
      pz      :     0.999737  p :     3.163165
      px      :     1.099146
      py      :     1.064282
      dz2     :     0.005483  d :     0.033165
      dxz     :     0.009367
      dyz     :     0.005707
      dx2y2   :     0.004973
      dxy     :     0.007635
 13 H s       :     0.817255  s :     0.817255
 14 H s       :     0.832474  s :     0.832474
 15 C s       :     2.981510  s :     2.981510
      pz      :     0.795168  p :     2.364004
      px      :     0.768795
      py      :     0.800041
      dz2     :     0.024441  d :     0.107467
      dxz     :     0.031045
      dyz     :     0.015054
      dx2y2   :     0.017319
      dxy     :     0.019608
 16 N s       :     3.539332  s :     3.539332
      pz      :     1.226239  p :     3.798932
      px      :     1.093635
      py      :     1.479058
      dz2     :     0.007500  d :     0.037445
      dxz     :     0.010319
      dyz     :     0.005570
      dx2y2   :     0.007490
      dxy     :     0.006566
 17 O s       :     3.864157  s :     3.864157
      pz      :     1.430180  p :     4.631987
      px      :     1.736373
      py      :     1.465434
      dz2     :     0.007883  d :     0.025025
      dxz     :     0.005437
      dyz     :     0.006632
      dx2y2   :     0.002694
      dxy     :     0.002379
 18 C s       :     3.265603  s :     3.265603
      pz      :     0.932017  p :     3.022010
      px      :     1.078885
      py      :     1.011108
      dz2     :     0.011305  d :     0.048510
      dxz     :     0.010054
      dyz     :     0.009313
      dx2y2   :     0.013299
      dxy     :     0.004539
 19 H s       :     0.820840  s :     0.820840
 20 H s       :     0.809985  s :     0.809985
 21 H s       :     0.822417  s :     0.822417
 22 C s       :     3.259511  s :     3.259511
      pz      :     0.958702  p :     3.023034
      px      :     0.972184
      py      :     1.092148
      dz2     :     0.005404  d :     0.048072
      dxz     :     0.014519
      dyz     :     0.011526
      dx2y2   :     0.005479
      dxy     :     0.011145
 23 H s       :     0.830287  s :     0.830287
 24 H s       :     0.814026  s :     0.814026
 25 H s       :     0.830339  s :     0.830339
 26 O s       :     3.886884  s :     3.886884
      pz      :     1.763488  p :     4.751660
      px      :     1.376856
      py      :     1.611316
      dz2     :     0.005013  d :     0.025210
      dxz     :     0.004552
      dyz     :     0.003233
      dx2y2   :     0.002663
      dxy     :     0.009749
 27 H s       :     0.570614  s :     0.570614
 28 H s       :     0.842267  s :     0.842267


                     *******************************
                     * LOEWDIN POPULATION ANALYSIS *
                     *******************************

----------------------
LOEWDIN ATOMIC CHARGES
----------------------
   0 C :   -0.399620
   1 H :    0.147536
   2 H :    0.151737
   3 H :    0.158326
   4 C :    0.129890
   5 O :   -0.327605
   6 N :   -0.061750
   7 C :   -0.190273
   8 H :    0.157226
   9 H :    0.157334
  10 C :    0.042912
  11 H :    0.126814
  12 C :   -0.395473
  13 H :    0.147850
  14 H :    0.136929
  15 C :    0.108004
  16 N :   -0.083046
  17 O :   -0.323800
  18 C :   -0.278179
  19 H :    0.142955
  20 H :    0.144913
  21 H :    0.133647
  22 C :   -0.280085
  23 H :    0.131327
  24 H :    0.148024
  25 H :    0.134443
  26 O :   -0.426004
  27 H :    0.331035
  28 H :    0.134934

-------------------------------
LOEWDIN REDUCED ORBITAL CHARGES
-------------------------------
  0 C s       :     2.981921  s :     2.981921
      pz      :     1.134549  p :     3.354450
      px      :     1.072353
      py      :     1.147548
      dz2     :     0.015789  d :     0.063249
      dxz     :     0.012313
      dyz     :     0.005890
      dx2y2   :     0.019132
      dxy     :     0.010124
  1 H s       :     0.852464  s :     0.852464
  2 H s       :     0.848263  s :     0.848263
  3 H s       :     0.841674  s :     0.841674
  4 C s       :     2.851197  s :     2.851197
      pz      :     0.836720  p :     2.765892
      px      :     1.005548
      py      :     0.923625
      dz2     :     0.026883  d :     0.253021
      dxz     :     0.028954
      dyz     :     0.049184
      dx2y2   :     0.091335
      dxy     :     0.056665
  5 O s       :     3.564217  s :     3.564217
      pz      :     1.530115  p :     4.711842
      px      :     1.610575
      py      :     1.571151
      dz2     :     0.006567  d :     0.051546
      dxz     :     0.006983
      dyz     :     0.006716
      dx2y2   :     0.012240
      dxy     :     0.019040
  6 N s       :     3.092346  s :     3.092346
      pz      :     1.460649  p :     3.876785
      px      :     1.206741
      py      :     1.209394
      dz2     :     0.010412  d :     0.092619
      dxz     :     0.012536
      dyz     :     0.017447
      dx2y2   :     0.027141
      dxy     :     0.025082
  7 C s       :     2.927970  s :     2.927970
      pz      :     1.076846  p :     3.150003
      px      :     0.935282
      py      :     1.137875
      dz2     :     0.014136  d :     0.112300
      dxz     :     0.033349
      dyz     :     0.018839
      dx2y2   :     0.031184
      dxy     :     0.014792
  8 H s       :     0.842774  s :     0.842774
  9 H s       :     0.842666  s :     0.842666
 10 C s       :     2.876939  s :     2.876939
      pz      :     1.013101  p :     2.890774
      px      :     0.907301
      py      :     0.970372
      dz2     :     0.034674  d :     0.189376
      dxz     :     0.046552
      dyz     :     0.028796
      dx2y2   :     0.027891
      dxy     :     0.051463
 11 H s       :     0.873186  s :     0.873186
 12 C s       :     2.984992  s :     2.984992
      pz      :     1.081263  p :     3.344869
      px      :     1.144493
      py      :     1.119113
      dz2     :     0.012388  d :     0.065612
      dxz     :     0.018448
      dyz     :     0.011968
      dx2y2   :     0.008920
      dxy     :     0.013887
 13 H s       :     0.852150  s :     0.852150
 14 H s       :     0.863071  s :     0.863071
 15 C s       :     2.853472  s :     2.853472
      pz      :     0.966343  p :     2.782818
      px      :     0.964731
      py      :     0.851744
      dz2     :     0.057041  d :     0.255706
      dxz     :     0.077892
      dyz     :     0.034583
      dx2y2   :     0.041056
      dxy     :     0.045134
 16 N s       :     3.093593  s :     3.093593
      pz      :     1.261994  p :     3.892496
      px      :     1.167196
      py      :     1.463306
      dz2     :     0.019451  d :     0.096957
      dxz     :     0.028573
      dyz     :     0.012515
      dx2y2   :     0.020842
      dxy     :     0.015576
 17 O s       :     3.561586  s :     3.561586
      pz      :     1.493913  p :     4.710248
      px      :     1.737959
      py      :     1.478377
      dz2     :     0.015653  d :     0.051965
      dxz     :     0.011947
      dyz     :     0.014968
      dx2y2   :     0.004524
      dxy     :     0.004872
 18 C s       :     2.962415  s :     2.962415
      pz      :     1.018763  p :     3.219320
      px      :     1.121452
      py      :     1.079105
      dz2     :     0.023157  d :     0.096444
      dxz     :     0.019710
      dyz     :     0.018922
      dx2y2   :     0.026267
      dxy     :     0.008388
 19 H s       :     0.857045  s :     0.857045
 20 H s       :     0.855087  s :     0.855087
 21 H s       :     0.866353  s :     0.866353
 22 C s       :     2.963121  s :     2.963121
      pz      :     1.039328  p :     3.221501
      px      :     1.044292
      py      :     1.137881
      dz2     :     0.011187  d :     0.095464
      dxz     :     0.029768
      dyz     :     0.022602
      dx2y2   :     0.009954
      dxy     :     0.021953
 23 H s       :     0.868673  s :     0.868673
 24 H s       :     0.851976  s :     0.851976
 25 H s       :     0.865557  s :     0.865557
 26 O s       :     3.572070  s :     3.572070
      pz      :     1.764456  p :     4.807631
      px      :     1.415014
      py      :     1.628160
      dz2     :     0.008710  d :     0.046304
      dxz     :     0.010388
      dyz     :     0.004280
      dx2y2   :     0.005728
      dxy     :     0.017199
 27 H s       :     0.668965  s :     0.668965
 28 H s       :     0.865066  s :     0.865066


                      *****************************
                      * MAYER POPULATION ANALYSIS *
                      *****************************

  NA   - Mulliken gross atomic population
  ZA   - Total nuclear charge
  QA   - Mulliken gross atomic charge
  VA   - Mayer's total valence
  BVA  - Mayer's bonded valence
  FA   - Mayer's free valence

  ATOM       NA         ZA         QA         VA         BVA        FA
  0 C      6.5584     6.0000    -0.5584     3.7833     3.7833     0.0000
  1 H      0.8142     1.0000     0.1858     0.9488     0.9488     0.0000
  2 H      0.8202     1.0000     0.1798     0.9363     0.9363     0.0000
  3 H      0.8044     1.0000     0.1956     0.9244     0.9244    -0.0000
  4 C      5.4668     6.0000     0.5332     3.9630     3.9630    -0.0000
  5 O      8.5316     8.0000    -0.5316     2.0036     2.0036    -0.0000
  6 N      7.3718     7.0000    -0.3718     3.1244     3.1244    -0.0000
  7 C      6.2810     6.0000    -0.2810     3.7891     3.7891    -0.0000
  8 H      0.7964     1.0000     0.2036     0.9190     0.9190    -0.0000
  9 H      0.8007     1.0000     0.1993     0.9402     0.9402     0.0000
 10 C      5.7324     6.0000     0.2676     3.8727     3.8727    -0.0000
 11 H      0.8479     1.0000     0.1521     0.9297     0.9297    -0.0000
 12 C      6.5035     6.0000    -0.5035     3.8033     3.8033    -0.0000
 13 H      0.8173     1.0000     0.1827     0.9518     0.9518     0.0000
 14 H      0.8325     1.0000     0.1675     0.9376     0.9376    -0.0000
 15 C      5.4530     6.0000     0.5470     3.8913     3.8913    -0.0000
 16 N      7.3757     7.0000    -0.3757     3.1298     3.1298    -0.0000
 17 O      8.5212     8.0000    -0.5212     2.0347     2.0347    -0.0000
 18 C      6.3361     6.0000    -0.3361     3.7887     3.7887     0.0000
[...]
      2       0.000208  -0.000116  -0.000033
      3      -0.002567   0.001460  -0.000795
      4       0.002187  -0.001240  -0.000921
      5      -0.002116   0.001195   0.000644
      6       0.000394  -0.000153  -0.000133
      7       0.001404  -0.000618   0.000388
      8       0.000047  -0.000032  -0.000189
      9       0.000047  -0.000014  -0.000126
     10      -0.000240   0.000138   0.000086
     11      -0.000577   0.000320  -0.000193
     12       0.000030  -0.000019   0.000055
     13      -0.000020  -0.000017   0.000041
     14       0.000005   0.000008  -0.000008
     15      -0.000032   0.000022  -0.000011
     16      -0.000013   0.000027   0.000002
     17       0.000033  -0.000034  -0.000001
     18       0.000032  -0.000005  -0.000081
     19       0.000065  -0.000059   0.000282
     20       0.000091  -0.000103   0.000021
     21       0.000798  -0.000662  -0.000012
     22      -0.004314   0.004012   0.000026
     23      -0.001452   0.001221   0.000076
     24      -0.003050   0.002604   0.000099
     25      -0.002371   0.001363   0.000058
     26       0.003584  -0.002261  -0.000297
     27      -0.016066   0.014621  -0.000134
     28       0.054789  -0.049889   0.000095
     29       0.017747  -0.016090  -0.000001
     30      -0.000041   0.000044   0.000344
     31      -0.000028   0.000047  -0.001923
     32       0.000014  -0.000019  -0.001039
     33       0.000213  -0.000270  -0.005255
     34       0.000240  -0.000293  -0.003545
     35      -0.000228   0.000282  -0.000048
     36       0.000017  -0.000018  -0.000362
     37      -0.000005   0.000017   0.000144
     38       0.000000  -0.000012  -0.000010
     39      -0.000061   0.000207  -0.000868
     40      -0.000000  -0.000037  -0.001136
     41      -0.000033   0.000060  -0.002901
     42      -0.000062  -0.000045   0.000666
     43      -0.000062  -0.000011   0.000681
     44       0.000051   0.000021   0.000028
     45      -0.000292  -0.000026   0.000050
     46      -0.000004   0.000525  -0.000005
     47       0.000439   0.001116  -0.000005
     48      -0.000418   0.000141  -0.000014
     49       0.000246  -0.000092   0.000004
     50       0.000621  -0.000291   0.000011
     51      -0.000373  -0.000595  -0.000014
     52      -0.000154  -0.000177   0.000019
     53      -0.000398  -0.000407   0.000001
     54      -0.052113   0.049014   0.000006
     55      -0.005723   0.004886  -0.000002
     56      -0.038502   0.035738   0.000004
     57       0.087263  -0.081187  -0.000024
     58       0.092415  -0.086123  -0.000016
     59      -0.052267   0.046857   0.000017
     60       0.507595  -0.476667   0.000007
     61       0.071775  -0.067245  -0.000008
     62       0.479837  -0.451209  -0.000014
     63       0.037590  -0.036700  -0.000014
     64      -0.100938   0.096533   0.000031
     65       0.014113  -0.014563   0.000009
     66      -0.036213  -0.039096   0.000002
     67       0.018587   0.019544   0.000010
     68       0.046351   0.048829   0.000006
     69       0.059039   0.063505  -0.000022
     70      -0.095074  -0.102294   0.000029
     71       0.034037   0.035088  -0.000003
     72       0.310267   0.330561   0.000014
     73      -0.225129  -0.239795   0.000006
     74      -0.534472  -0.568786  -0.000011
     75       0.075638   0.080200  -0.000019
     76       0.101327   0.106809  -0.000008
     77      -0.047994  -0.052324   0.000005
     78      -0.000003   0.000006   0.040717
     79      -0.000002  -0.000003  -0.046821
     80       0.000003  -0.000001  -0.003397
     81      -0.000006   0.000024  -0.638924
     82       0.000009  -0.000019   0.763714
     83      -0.000006   0.000023   0.067793
     84      -0.000059   0.000077  -0.000489
     85       0.000161  -0.000243  -0.000499
     86      -0.000031   0.000023   0.000658


-----------
IR SPECTRUM
-----------

 Mode   freq       eps      Int      T**2         TX        TY        TZ
       cm**-1   L/(mol*cm) km/mol    a.u.
----------------------------------------------------------------------------
  6:     14.65   0.000605    3.06  0.012883  ( 0.055135  0.094545 -0.030078)
  7:     38.29   0.000078    0.40  0.000638  (-0.023339  0.009388  0.002364)
  8:     51.67   0.001187    6.00  0.007171  ( 0.046745  0.070548  0.003069)
  9:     72.05   0.001540    7.78  0.006670  ( 0.028030 -0.018119  0.074541)
 10:    101.34   0.000351    1.77  0.001080  ( 0.001277 -0.025912 -0.020163)
 11:    103.25   0.001000    5.06  0.003024  ( 0.039248 -0.032365  0.020882)
 12:    125.64   0.001180    5.96  0.002931  (-0.041643 -0.008524 -0.033534)
 13:    137.75   0.000505    2.55  0.001144  ( 0.021318 -0.024766  0.008729)
 14:    177.79   0.012749   64.43  0.022377  ( 0.064377  0.056669 -0.122562)
 15:    212.28   0.005595   28.27  0.008225  ( 0.033098  0.031873 -0.078187)
 16:    217.90   0.013544   68.45  0.019397  (-0.056827 -0.057736  0.113287)
 17:    233.87   0.002689   13.59  0.003588  (-0.016726 -0.048700  0.030609)
 18:    247.87   0.002625   13.26  0.003305  (-0.044159 -0.010756  0.035199)
 19:    267.67   0.000362    1.83  0.000422  ( 0.012792 -0.007075  0.014448)
 20:    294.53   0.000708    3.58  0.000750  (-0.002652  0.020593 -0.017871)
 21:    356.19   0.002943   14.87  0.002578  ( 0.044611  0.023743 -0.004909)
 22:    386.55   0.002356   11.91  0.001902  ( 0.032456 -0.019750  0.021419)
 23:    398.80   0.002255   11.40  0.001764  (-0.028090 -0.031212  0.001123)
 24:    444.00   0.001331    6.73  0.000935  (-0.026558 -0.014812 -0.003267)
 25:    458.47   0.000778    3.93  0.000530  ( 0.006351  0.008132  0.020570)
 26:    501.08   0.005601   28.31  0.003488  ( 0.048275  0.011091 -0.032171)
 27:    542.73   0.004165   21.05  0.002395  (-0.022805 -0.034016  0.026791)
 28:    573.36   0.001892    9.56  0.001030  ( 0.030233 -0.000225 -0.010748)
 29:    604.82   0.000822    4.15  0.000424  (-0.012896  0.015954  0.001755)
 30:    625.99   0.006098   30.82  0.003040  (-0.046332 -0.002797 -0.029754)
 31:    688.71   0.007413   37.46  0.003359  ( 0.051663 -0.023664  0.011399)
 32:    736.46   0.000274    1.38  0.000116  (-0.008986 -0.000534 -0.005916)
 33:    822.97   0.004769   24.10  0.001808  ( 0.022544 -0.015224 -0.032684)
 34:    902.03   0.003856   19.48  0.001334  (-0.027142 -0.001707 -0.024377)
 35:    956.46   0.009853   49.79  0.003215  (-0.027028  0.031467 -0.038650)
 36:    975.28   0.001561    7.89  0.000499  (-0.009633 -0.012975  0.015433)
 37:   1023.63   0.003601   18.20  0.001098  ( 0.022536 -0.019933  0.013874)
 38:   1036.02   0.007666   38.74  0.002309  ( 0.018321 -0.044330  0.002895)
 39:   1072.05   0.002717   13.73  0.000791  ( 0.005618  0.000608  0.027547)
 40:   1085.85   0.001604    8.11  0.000461  ( 0.002980 -0.010891 -0.018264)
 41:   1093.80   0.000568    2.87  0.000162  ( 0.006760  0.009607 -0.004896)
 42:   1130.89   0.039520  199.72  0.010905  (-0.079678  0.012937 -0.066253)
 43:   1134.33   0.000352    1.78  0.000097  (-0.007683  0.004978  0.003624)
 44:   1156.17   0.008581   43.36  0.002316  (-0.045669  0.013219 -0.007460)
 45:   1165.09   0.046456  234.77  0.012443  (-0.110845 -0.001380  0.012432)
 46:   1183.60   0.001754    8.86  0.000462  ( 0.019608 -0.004120  0.007811)
 47:   1219.46   0.007954   40.20  0.002035  (-0.027199  0.029437 -0.020714)
 48:   1286.77   0.013361   67.52  0.003240  (-0.051894 -0.014261 -0.018545)
 49:   1306.62   0.013335   67.39  0.003185  ( 0.013979  0.021939  0.050081)
 50:   1324.19   0.043960  222.16  0.010360  ( 0.065503  0.067618 -0.038692)
 51:   1384.99   0.009872   49.89  0.002224  (-0.046642 -0.003812 -0.005856)
 52:   1386.83   0.008793   44.44  0.001979  ( 0.022713 -0.027305 -0.026780)
 53:   1401.01   0.019259   97.33  0.004290  ( 0.009229  0.064818 -0.001785)
 54:   1417.49   0.035026  177.01  0.007711  ( 0.035966  0.072160 -0.034792)
 55:   1426.21   0.012522   63.28  0.002740  (-0.010598  0.046536  0.021494)
 56:   1442.99   0.009172   46.35  0.001984  ( 0.041475 -0.006613 -0.014819)
 57:   1453.19   0.013520   68.32  0.002903  (-0.050239 -0.011365 -0.015814)
 58:   1471.07   0.004720   23.85  0.001001  ( 0.025827 -0.017820  0.004075)
 59:   1491.14   0.000270    1.36  0.000056  ( 0.004254  0.006165 -0.000588)
 60:   1491.96   0.003280   16.57  0.000686  ( 0.009941  0.008993  0.022501)
 61:   1501.98   0.002283   11.54  0.000474  (-0.012486 -0.017519 -0.003396)
 62:   1507.72   0.008605   43.49  0.001781  ( 0.026546  0.004304 -0.032524)
 63:   1509.90   0.004716   23.84  0.000975  (-0.020111 -0.023870  0.000768)
 64:   1512.74   0.004361   22.04  0.000900  (-0.005394 -0.027970  0.009389)
 65:   1519.71   0.002270   11.47  0.000466  (-0.000785  0.006858 -0.020455)
 66:   1521.73   0.001580    7.98  0.000324  (-0.000368  0.017173  0.005378)
 67:   1538.16   0.016249   82.12  0.003297  (-0.038119 -0.014125  0.040548)
 68:   1557.81   0.017502   88.45  0.003506  ( 0.058819  0.006306  0.002567)
 69:   1714.56   0.127344  643.54  0.023178  ( 0.096847 -0.115244 -0.022740)
 70:   1726.48   0.072052  364.12  0.013024  ( 0.057465  0.024523 -0.095499)
 71:   3037.90   0.006314   31.91  0.000649  (-0.003381 -0.013427 -0.021375)
 72:   3043.24   0.020886  105.55  0.002142  (-0.044670  0.011018  0.004986)
 73:   3044.76   0.010525   53.19  0.001079  ( 0.023858  0.017317 -0.014478)
 74:   3062.61   0.005300   26.78  0.000540  (-0.010683  0.020625  0.000708)
 75:   3068.67   0.001206    6.09  0.000123  ( 0.006027 -0.001492 -0.009169)
 76:   3090.60   0.015210   76.87  0.001536  ( 0.006545  0.035797 -0.014544)
 77:   3091.05   0.006979   35.27  0.000705  (-0.018546 -0.010179  0.016032)
 78:   3094.25   0.000249    1.26  0.000025  (-0.003964 -0.001701  0.002558)
 79:   3136.63   0.005617   28.39  0.000559  (-0.007370 -0.022012  0.004471)
 80:   3139.78   0.002392   12.09  0.000238  (-0.003286  0.005546 -0.014005)
 81:   3148.13   0.000832    4.20  0.000082  ( 0.007182 -0.005555 -0.000200)
 82:   3170.93   0.002767   13.99  0.000272  (-0.012962 -0.008521  0.005633)
 83:   3190.43   0.000614    3.10  0.000060  (-0.006396  0.004262  0.001004)
 84:   3193.10   0.000921    4.65  0.000090  (-0.009023  0.001169 -0.002685)
 85:   3194.24   0.002562   12.95  0.000250  ( 0.008671  0.003256  0.012826)
 86:   3729.14   0.010399   52.55  0.000870  (-0.023517  0.017160 -0.004765)

* The epsilon (eps) is given for a Dirac delta lineshape.
** The dipole moment derivative (T) already includes vibrational overlap.

The first frequency considered to be a vibration is 6
The total number of vibrations considered is 81


--------------------------
THERMOCHEMISTRY AT 298.15K
--------------------------

Temperature         ... 298.15 K
Pressure            ... 1.00 atm
Total Mass          ... 188.23 AMU

Throughout the following assumptions are being made:
  (1) The electronic state is orbitally nondegenerate
  (2) There are no thermally accessible electronically excited states
  (3) Hindered rotations indicated by low frequency modes are not
      treated as such but are treated as vibrations and this may
      cause some error
  (4) All equations used are the standard statistical mechanics
      equations for an ideal gas
  (5) All vibrations are strictly harmonic

freq.      14.65  E(vib)   ...       0.57 
freq.      38.29  E(vib)   ...       0.54 
freq.      51.67  E(vib)   ...       0.52 
freq.      72.05  E(vib)   ...       0.50 
freq.     101.34  E(vib)   ...       0.46 
freq.     103.25  E(vib)   ...       0.46 
freq.     125.64  E(vib)   ...       0.43 
freq.     137.75  E(vib)   ...       0.42 
freq.     177.79  E(vib)   ...       0.37 
freq.     212.28  E(vib)   ...       0.34 
freq.     217.90  E(vib)   ...       0.33 
freq.     233.87  E(vib)   ...       0.32 
freq.     247.87  E(vib)   ...       0.31 
freq.     267.67  E(vib)   ...       0.29 
freq.     294.53  E(vib)   ...       0.27 
freq.     356.19  E(vib)   ...       0.22 
freq.     386.55  E(vib)   ...       0.20 
freq.     398.80  E(vib)   ...       0.19 
freq.     444.00  E(vib)   ...       0.17 
freq.     458.47  E(vib)   ...       0.16 
freq.     501.08  E(vib)   ...       0.14 
freq.     542.73  E(vib)   ...       0.12 
freq.     573.36  E(vib)   ...       0.11 
freq.     604.82  E(vib)   ...       0.10 
freq.     625.99  E(vib)   ...       0.09 
freq.     688.71  E(vib)   ...       0.07 
freq.     736.46  E(vib)   ...       0.06 
freq.     822.97  E(vib)   ...       0.05 
freq.     902.03  E(vib)   ...       0.03 
freq.     956.46  E(vib)   ...       0.03 
freq.     975.28  E(vib)   ...       0.03 
freq.    1023.63  E(vib)   ...       0.02 
freq.    1036.02  E(vib)   ...       0.02 
freq.    1072.05  E(vib)   ...       0.02 
freq.    1085.85  E(vib)   ...       0.02 
freq.    1093.80  E(vib)   ...       0.02 
freq.    1130.89  E(vib)   ...       0.01 
freq.    1134.33  E(vib)   ...       0.01 
freq.    1156.17  E(vib)   ...       0.01 
freq.    1165.09  E(vib)   ...       0.01 
freq.    1183.60  E(vib)   ...       0.01 
freq.    1219.46  E(vib)   ...       0.01 
freq.    1286.77  E(vib)   ...       0.01 
freq.    1306.62  E(vib)   ...       0.01 
freq.    1324.19  E(vib)   ...       0.01 
freq.    1384.99  E(vib)   ...       0.00 
freq.    1386.83  E(vib)   ...       0.00 
freq.    1401.01  E(vib)   ...       0.00 
freq.    1417.49  E(vib)   ...       0.00 
freq.    1426.21  E(vib)   ...       0.00 
freq.    1442.99  E(vib)   ...       0.00 
freq.    1453.19  E(vib)   ...       0.00 
freq.    1471.07  E(vib)   ...       0.00 
freq.    1491.14  E(vib)   ...       0.00 
freq.    1491.96  E(vib)   ...       0.00 
freq.    1501.98  E(vib)   ...       0.00 
freq.    1507.72  E(vib)   ...       0.00 
freq.    1509.90  E(vib)   ...       0.00 
freq.    1512.74  E(vib)   ...       0.00 
freq.    1519.71  E(vib)   ...       0.00 
freq.    1521.73  E(vib)   ...       0.00 
freq.    1538.16  E(vib)   ...       0.00 
freq.    1557.81  E(vib)   ...       0.00 
freq.    1714.56  E(vib)   ...       0.00 
freq.    1726.48  E(vib)   ...       0.00 
freq.    3037.90  E(vib)   ...       0.00 
freq.    3043.24  E(vib)   ...       0.00 
freq.    3044.76  E(vib)   ...       0.00 
freq.    3062.61  E(vib)   ...       0.00 
freq.    3068.67  E(vib)   ...       0.00 
freq.    3090.60  E(vib)   ...       0.00 
freq.    3091.05  E(vib)   ...       0.00 
freq.    3094.25  E(vib)   ...       0.00 
freq.    3136.63  E(vib)   ...       0.00 
freq.    3139.78  E(vib)   ...       0.00 
freq.    3148.13  E(vib)   ...       0.00 
freq.    3170.93  E(vib)   ...       0.00 
freq.    3190.43  E(vib)   ...       0.00 
freq.    3193.10  E(vib)   ...       0.00 
freq.    3194.24  E(vib)   ...       0.00 
freq.    3729.14  E(vib)   ...       0.00 

------------
INNER ENERGY
------------

The inner energy is: U= E(el) + E(ZPE) + E(vib) + E(rot) + E(trans)
    E(el)   - is the total energy from the electronic structure calculation
              = E(kin-el) + E(nuc-el) + E(el-el) + E(nuc-nuc)
    E(ZPE)  - the the zero temperature vibrational energy from the frequency calculation
    E(vib)  - the the finite temperature correction to E(ZPE) due to population
              of excited vibrational states
    E(rot)  - is the rotational thermal energy
    E(trans)- is the translational thermal energy

Summary of contributions to the inner energy U:
Electronic energy                ...   -649.34670453 Eh
Zero point energy                ...      0.24809712 Eh     155.68 kcal/mol
Thermal vibrational correction   ...      0.01299890 Eh       8.16 kcal/mol
Thermal rotational correction    ...      0.00141627 Eh       0.89 kcal/mol
Thermal translational correction ...      0.00141627 Eh       0.89 kcal/mol
-----------------------------------------------------------------------
Total thermal energy                   -649.08277596 Eh


Summary of corrections to the electronic energy:
(perhaps to be used in another calculation)
Total thermal correction                  0.01583145 Eh       9.93 kcal/mol
Non-thermal (ZPE) correction              0.24809712 Eh     155.68 kcal/mol
-----------------------------------------------------------------------
Total correction                          0.26392856 Eh     165.62 kcal/mol


--------
ENTHALPY
--------

The enthalpy is H = U + kB*T
                kB is Boltzmann's constant
Total free energy                 ...   -649.08277596 Eh 
Thermal Enthalpy correction       ...      0.00094421 Eh       0.59 kcal/mol
-----------------------------------------------------------------------
Total Enthalpy                    ...   -649.08183175 Eh


Note: Only C1 symmetry has been detected, increase convergence thresholds 
      if your molecule has a higher symmetry. Symmetry factor of 1.0 is   
      used for the rotational entropy correction. 
 

Note: Rotational entropy computed according to Herzberg 
Infrared and Raman Spectra, Chapter V,1, Van Nostrand Reinhold, 1945 
Point Group:  C1, Symmetry Number:   1  
Rotational constants in cm-1:     0.044090     0.015472     0.014420 

Vibrational entropy computed according to the QRRHO of S. Grimme
Chem.Eur.J. 2012 18 9955


-------
ENTROPY
-------

The entropy contributions are T*S = T*(S(el)+S(vib)+S(rot)+S(trans))
     S(el)   - electronic entropy
     S(vib)  - vibrational entropy
     S(rot)  - rotational entropy
     S(trans)- translational entropy
The entropies will be listed as multiplied by the temperature to get
units of energy

Electronic entropy                ...      0.00000000 Eh      0.00 kcal/mol
Vibrational entropy               ...      0.02372730 Eh     14.89 kcal/mol
Rotational entropy                ...      0.01495373 Eh      9.38 kcal/mol
Translational entropy             ...      0.01976700 Eh     12.40 kcal/mol
-----------------------------------------------------------------------
Final entropy term                ...      0.05844803 Eh     36.68 kcal/mol

In case the symmetry of your molecule has not been determined correctly
or in case you have a reason to use a different symmetry number we print 
out the resulting rotational entropy values for sn=1,12 :
 --------------------------------------------------------
|  sn= 1 | S(rot)=       0.01495373 Eh      9.38 kcal/mol|
|  sn= 2 | S(rot)=       0.01429927 Eh      8.97 kcal/mol|
|  sn= 3 | S(rot)=       0.01391644 Eh      8.73 kcal/mol|
|  sn= 4 | S(rot)=       0.01364482 Eh      8.56 kcal/mol|
|  sn= 5 | S(rot)=       0.01343413 Eh      8.43 kcal/mol|
|  sn= 6 | S(rot)=       0.01326198 Eh      8.32 kcal/mol|
|  sn= 7 | S(rot)=       0.01311644 Eh      8.23 kcal/mol|
|  sn= 8 | S(rot)=       0.01299036 Eh      8.15 kcal/mol|
|  sn= 9 | S(rot)=       0.01287915 Eh      8.08 kcal/mol|
|  sn=10 | S(rot)=       0.01277967 Eh      8.02 kcal/mol|
|  sn=11 | S(rot)=       0.01268968 Eh      7.96 kcal/mol|
|  sn=12 | S(rot)=       0.01260753 Eh      7.91 kcal/mol|
 --------------------------------------------------------


-------------------
GIBBS FREE ENERGY
-------------------

The Gibbs free energy is G = H - T*S

Total enthalpy                    ...   -649.08183175 Eh 
Total entropy correction          ...     -0.05844803 Eh    -36.68 kcal/mol
-----------------------------------------------------------------------
Final Gibbs free energy         ...   -649.14027978 Eh

For completeness - the Gibbs free energy minus the electronic energy
G-E(el)                           ...      0.20642474 Eh    129.53 kcal/mol


Timings for individual modules:

Sum of individual times         ...     1677.913 sec (=  27.965 min)
GTO integral calculation        ...       23.694 sec (=   0.395 min)   1.4 %
SCF iterations                  ...      932.468 sec (=  15.541 min)  55.6 %
SCF Gradient evaluation         ...      296.082 sec (=   4.935 min)  17.6 %
Geometry relaxation             ...        2.022 sec (=   0.034 min)   0.1 %
Analytical frequency calculation...      423.647 sec (=   7.061 min)  25.2 %
                             ****ORCA TERMINATED NORMALLY****
TOTAL RUN TIME: 0 days 0 hours 28 minutes 6 seconds 644 msec
