
                                 *****************
                                 * O   R   C   A *
                                 *****************

                                            #,                                       
                                            ###                                      
                                            ####                                     
                                            #####                                    
                                            ######                                   
                                           ########,                                 
                                     ,,################,,,,,                         
                               ,,#################################,,                 
                          ,,##########################################,,             
                       ,#########################################, ''#####,          
                    ,#############################################,,   '####,        
                  ,##################################################,,,,####,       
                ,###########''''           ''''###############################       
              ,#####''   ,,,,##########,,,,          '''####'''          '####       
            ,##' ,,,,###########################,,,                        '##       
           ' ,,###''''                  '''############,,,                           
         ,,##''                                '''############,,,,        ,,,,,,###''
      ,#''                                            '''#######################'''  
     '                                                          ''''####''''         
             ,#######,   #######,   ,#######,      ##                                
            ,#'     '#,  ##    ##  ,#'     '#,    #''#        ######   ,####,        
            ##       ##  ##   ,#'  ##            #'  '#       #        #'  '#        
            ##       ##  #######   ##           ,######,      #####,   #    #        
            '#,     ,#'  ##    ##  '#,     ,#' ,#      #,         ##   #,  ,#        
             '#######'   ##     ##  '#######'  #'      '#     #####' # '####'        



                  #######################################################
                  #                        -***-                        #
                  #          Department of theory and spectroscopy      #
                  #    Directorship and core code : Frank Neese         #
                  #        Max Planck Institute fuer Kohlenforschung    #
                  #                Kaiser Wilhelm Platz 1               #
                  #                 D-45470 Muelheim/Ruhr               #
                  #                      Germany                        #
                  #                                                     #
                  #                  All rights reserved                #
                  #                        -***-                        #
                  #######################################################


                         Program Version 5.0.4 -  RELEASE  -


 With contributions from (in alphabetic order):
   Daniel Aravena         : Magnetic Suceptibility
   Michael Atanasov       : Ab Initio Ligand Field Theory (pilot matlab implementation)
   Alexander A. Auer      : GIAO ZORA, VPT2 properties, NMR spectrum
   Ute Becker             : Parallelization
   Giovanni Bistoni       : ED, misc. LED, open-shell LED, HFLD
   Martin Brehm           : Molecular dynamics
   Dmytro Bykov           : SCF Hessian
   Vijay G. Chilkuri      : MRCI spin determinant printing, contributions to CSF-ICE
   Dipayan Datta          : RHF DLPNO-CCSD density
   Achintya Kumar Dutta   : EOM-CC, STEOM-CC
   Dmitry Ganyushin       : Spin-Orbit,Spin-Spin,Magnetic field MRCI
   Miquel Garcia          : C-PCM and meta-GGA Hessian, CC/C-PCM, Gaussian charge scheme
   Yang Guo               : DLPNO-NEVPT2, F12-NEVPT2, CIM, IAO-localization
   Andreas Hansen         : Spin unrestricted coupled pair/coupled cluster methods
   Benjamin Helmich-Paris : MC-RPA, TRAH-SCF, COSX integrals
   Lee Huntington         : MR-EOM, pCC
   Robert Izsak           : Overlap fitted RIJCOSX, COSX-SCS-MP3, EOM
   Marcus Kettner         : VPT2
   Christian Kollmar      : KDIIS, OOCD, Brueckner-CCSD(T), CCSD density, CASPT2, CASPT2-K
   Simone Kossmann        : Meta GGA functionals, TD-DFT gradient, OOMP2, MP2 Hessian
   Martin Krupicka        : Initial AUTO-CI
   Lucas Lang             : DCDCAS
   Marvin Lechner         : AUTO-CI (C++ implementation), FIC-MRCC
   Dagmar Lenk            : GEPOL surface, SMD
   Dimitrios Liakos       : Extrapolation schemes; Compound Job, initial MDCI parallelization
   Dimitrios Manganas     : Further ROCIS development; embedding schemes
   Dimitrios Pantazis     : SARC Basis sets
   Anastasios Papadopoulos: AUTO-CI, single reference methods and gradients
   Taras Petrenko         : DFT Hessian,TD-DFT gradient, ASA, ECA, R-Raman, ABS, FL, XAS/XES, NRVS
   Peter Pinski           : DLPNO-MP2, DLPNO-MP2 Gradient
   Christoph Reimann      : Effective Core Potentials
   Marius Retegan         : Local ZFS, SOC
   Christoph Riplinger    : Optimizer, TS searches, QM/MM, DLPNO-CCSD(T), (RO)-DLPNO pert. Triples
   Tobias Risthaus        : Range-separated hybrids, TD-DFT gradient, RPA, STAB
   Michael Roemelt        : Original ROCIS implementation
   Masaaki Saitow         : Open-shell DLPNO-CCSD energy and density
   Barbara Sandhoefer     : DKH picture change effects
   Avijit Sen             : IP-ROCIS
   Kantharuban Sivalingam : CASSCF convergence, NEVPT2, FIC-MRCI
   Bernardo de Souza      : ESD, SOC TD-DFT
   Georgi Stoychev        : AutoAux, RI-MP2 NMR, DLPNO-MP2 response
   Willem Van den Heuvel  : Paramagnetic NMR
   Boris Wezisla          : Elementary symmetry handling
   Frank Wennmohs         : Technical directorship


 We gratefully acknowledge several colleagues who have allowed us to
 interface, adapt or use parts of their codes:
   Stefan Grimme, W. Hujo, H. Kruse, P. Pracht,  : VdW corrections, initial TS optimization,
                  C. Bannwarth, S. Ehlert          DFT functionals, gCP, sTDA/sTD-DF
   Ed Valeev, F. Pavosevic, A. Kumar             : LibInt (2-el integral package), F12 methods
   Garnet Chan, S. Sharma, J. Yang, R. Olivares  : DMRG
   Ulf Ekstrom                                   : XCFun DFT Library
   Mihaly Kallay                                 : mrcc  (arbitrary order and MRCC methods)
   Jiri Pittner, Ondrej Demel                    : Mk-CCSD
   Frank Weinhold                                : gennbo (NPA and NBO analysis)
   Christopher J. Cramer and Donald G. Truhlar   : smd solvation model
   Lars Goerigk                                  : TD-DFT with DH, B97 family of functionals
   V. Asgeirsson, H. Jonsson                     : NEB implementation
   FAccTs GmbH                                   : IRC, NEB, NEB-TS, DLPNO-Multilevel, CI-OPT
                                                   MM, QMMM, 2- and 3-layer-ONIOM, Crystal-QMMM,
                                                   LR-CPCM, SF, NACMEs, symmetry and pop. for TD-DFT,
                                                   nearIR, NL-DFT gradient (VV10), updates on ESD,
                                                   ML-optimized integration grids
   S Lehtola, MJT Oliveira, MAL Marques          : LibXC Library
   Liviu Ungur et al                             : ANISO software


 Your calculation uses the libint2 library for the computation of 2-el integrals
 For citations please refer to: http://libint.valeyev.net

 Your ORCA version has been built with support for libXC version: 5.1.0
 For citations please refer to: https://tddft.org/programs/libxc/

 This ORCA versions uses:
   CBLAS   interface :  Fast vector & matrix operations
   LAPACKE interface :  Fast linear algebra routines
   SCALAPACK package :  Parallel linear algebra routines
   Shared memory     :  Shared parallel matrices
   BLAS/LAPACK       :  OpenBLAS 0.3.15  USE64BITINT DYNAMIC_ARCH NO_AFFINITY SkylakeX SINGLE_THREADED
        Core in use  :  SkylakeX
   Copyright (c) 2011-2014, The OpenBLAS Project




***************************************
The coordinates will be read from file: /users/fjb15167/WWenergy/structures/Nfes.xyz
***************************************


Your calculation utilizes the atom-pairwise dispersion correction
based on tight binding partial charges (D4)
Cite in your paper:
E.Caldeweyher, C.Bannwarth, S.Grimme, J.Chem.Phys., (2017), 147, 034112.
E.Caldeweyher, S.Ehlert, A.Hansen, H.Neugebauer, S.Grimme, J.Chem.Phys., (2018), in progress.
   

================================================================================

----- Orbital basis set information -----
Your calculation utilizes the basis: 6-31G(d)
   H-He, Li-Ne : W. J. Hehre, R. Ditchfield and J.A. Pople, J. Chem. Phys. 56, 2257 (1972).
                 Note: He and Ne are unpublished basis sets taken from the Gaussian program.
                 Note: Li and B from J. D. Dill and J. A. Pople, J. Chem. Phys. 62, 2921 (1975).
   Na - Ar     : M. M. Francl, W. J. Pietro, W. J. Hehre, J. S. Binkley, M. S. Gordon, 
                 D. J. DeFrees and J. A. Pople, J. Chem. Phys. 77, 3654 (1982).
   K - Zn      : V. A. Rassolov, J. A. Pople, M. A. Ratner, and T. L. Windus, J. Chem. Phys. 109, 1223 (1998).

----- AuxJ basis set information -----
Your calculation utilizes the AutoAux generation procedure.
  G. L. Stoychev, A. A. Auer, F. Neese, J. Chem. Theory Comput. 13, 554 (2017)

----- AuxC basis set information -----
Your calculation utilizes the AutoAux generation procedure.
  G. L. Stoychev, A. A. Auer, F. Neese, J. Chem. Theory Comput. 13, 554 (2017)

----- AuxJK basis set information -----
Your calculation utilizes the AutoAux generation procedure.
  G. L. Stoychev, A. A. Auer, F. Neese, J. Chem. Theory Comput. 13, 554 (2017)

================================================================================
                                        WARNINGS
                       Please study these warnings very carefully!
================================================================================


WARNING: Geometry Optimization
  ===> : Switching off AutoStart
         For restart on a previous wavefunction, please use MOREAD

INFO   : the flag for use of the SHARK integral package has been found!

================================================================================
                                       INPUT FILE
================================================================================
NAME = Nfes_octanol.inp
|  1> ! OPT FREQ B3LYP 6-31G(d) D4 AUTOAUX
|  2> ! CPCM
|  3> 
|  4> %cpcm
|  5> epsilon 9.8629 
|  6> refrac  1.4295 
|  7> end
|  8> 
|  9> %PAL NPROCS 4 END
| 10> 
| 11> %maxcore 3375
| 12> 
| 13> *xyzfile 0 1 /users/fjb15167/WWenergy/structures/Nfes.xyz
| 14> 
| 15>                          ****END OF INPUT****
================================================================================

                       *****************************
                       * Geometry Optimization Run *
                       *****************************

Geometry optimization settings:
Update method            Update   .... BFGS
Choice of coordinates    CoordSys .... Z-matrix Internals
Initial Hessian          InHess   .... Almoef's Model

Convergence Tolerances:
Energy Change            TolE     ....  5.0000e-06 Eh
Max. Gradient            TolMAXG  ....  3.0000e-04 Eh/bohr
RMS Gradient             TolRMSG  ....  1.0000e-04 Eh/bohr
Max. Displacement        TolMAXD  ....  4.0000e-03 bohr
RMS Displacement         TolRMSD  ....  2.0000e-03 bohr
Strict Convergence                ....  False
------------------------------------------------------------------------------
                        ORCA OPTIMIZATION COORDINATE SETUP
------------------------------------------------------------------------------

The optimization will be done in new redundant internal coordinates
Making redundant internal coordinates   ...  (new redundants) done
Evaluating the initial hessian          ...  (Almloef) done
Evaluating the coordinates              ...  done
Calculating the B-matrix                .... done
Calculating the G-matrix                .... done
Diagonalizing the G-matrix              .... done
Small eigenvalue found = 4.108e-03
Small eigenvalue found = 6.486e-03
Small eigenvalue found = 1.106e-02
Small eigenvalue found = 1.710e-02
Small eigenvalue found = 2.498e-02
The first mode is                       ....   80
The number of degrees of freedom        ....  108

    -----------------------------------------------------------------
                    Redundant Internal Coordinates


    -----------------------------------------------------------------
         Definition                    Initial Value    Approx d2E/dq
    -----------------------------------------------------------------
      1. B(H   1,C   0)                  1.0914         0.358271   
      2. B(H   2,C   0)                  1.0915         0.358170   
      3. B(H   3,C   0)                  1.0928         0.356462   
      4. B(C   4,C   0)                  1.5165         0.392517   
      5. B(N   5,C   4)                  1.3764         0.588206   
      6. B(C   6,N   5)                  1.4864         0.392650   
      7. B(H   7,C   6)                  1.0978         0.349928   
      8. B(C   8,C   6)                  1.5125         0.398449   
      9. B(C   9,C   8)                  1.4043         0.592901   
     10. B(C  10,C   8)                  1.4013         0.599401   
     11. B(C  11,C   9)                  1.3952         0.613040   
     12. B(H  12,C   9)                  1.0862         0.365224   
     13. B(C  13,C  10)                  1.3977         0.607393   
     14. B(H  14,C  10)                  1.0901         0.359907   
     15. B(C  15,C  11)                  1.3986         0.605422   
     16. B(C  15,C  13)                  1.3950         0.613447   
     17. B(H  16,C  11)                  1.0878         0.363088   
     18. B(H  17,C  13)                  1.0880         0.362808   
     19. B(H  18,C  15)                  1.0872         0.363773   
     20. B(C  19,N   5)                  1.4639         0.426560   
     21. B(H  20,C  19)                  1.0960         0.352214   
     22. B(H  21,C  19)                  1.0969         0.351113   
     23. B(C  22,C  19)                  1.5316         0.371370   
     24. B(N  23,C  22)                  1.3640         0.615631   
     25. B(O  24,C  22)                  1.2373         0.980528   
     26. B(O  25,C   4)                  1.2386         0.976004   
     27. B(C  26,N  23)                  1.4544         0.441761   
     28. B(H  27,C  26)                  1.0961         0.352162   
     29. B(H  28,C  26)                  1.0943         0.354444   
     30. B(H  29,C  26)                  1.0865         0.364763   
     31. B(H  29,H  18)                  4.5631         0.000000   
     32. B(C  30,N  23)                  1.4554         0.440005   
     33. B(H  31,C  30)                  1.0953         0.353218   
     34. B(H  32,C  30)                  1.0958         0.352533   
     35. B(H  33,C  30)                  1.0874         0.363538   
     36. B(C  34,C   6)                  1.5285         0.375616   
     37. B(H  35,C  34)                  1.0951         0.353477   
     38. B(H  36,C  34)                  1.0944         0.354352   
     39. B(H  37,C  34)                  1.0867         0.364558   
     40. A(H   2,C   0,H   3)          108.0622         0.290131   
     41. A(H   1,C   0,C   4)          113.7231         0.326694   
     42. A(H   3,C   0,C   4)          110.6705         0.326422   
     43. A(H   1,C   0,H   3)          107.9756         0.290144   
     44. A(H   1,C   0,H   2)          110.1051         0.290362   
     45. A(H   2,C   0,C   4)          106.1766         0.326679   
     46. A(C   0,C   4,N   5)          118.1525         0.393933   
     47. A(C   0,C   4,O  25)          119.9475         0.430964   
     48. A(N   5,C   4,O  25)          121.8979         0.460666   
     49. A(C   4,N   5,C  19)          123.2251         0.397171   
     50. A(C   6,N   5,C  19)          115.0799         0.370231   
     51. A(C   4,N   5,C   6)          121.1344         0.391447   
     52. A(C   8,C   6,C  34)          112.9395         0.367727   
     53. A(N   5,C   6,C  34)          114.0792         0.364518   
     54. A(H   7,C   6,C   8)          106.8845         0.326234   
     55. A(N   5,C   6,C   8)          112.4894         0.368223   
     56. A(H   7,C   6,C  34)          105.7298         0.323086   
     57. A(N   5,C   6,H   7)          103.7596         0.323502   
     58. A(C   9,C   8,C  10)          119.0072         0.427991   
     59. A(C   6,C   8,C  10)          119.7691         0.398827   
     60. A(C   6,C   8,C   9)          121.2236         0.398064   
     61. A(C   8,C   9,C  11)          120.1075         0.429721   
     62. A(C  11,C   9,H  12)          120.8546         0.353079   
     63. A(C   8,C   9,H  12)          119.0211         0.351090   
     64. A(C  13,C  10,H  14)          119.6206         0.351653   
     65. A(C   8,C  10,H  14)          119.5688         0.350867   
     66. A(C   8,C  10,C  13)          120.8096         0.429849   
     67. A(C  15,C  11,H  16)          119.9197         0.351983   
     68. A(C   9,C  11,H  16)          119.5650         0.352728   
     69. A(C   9,C  11,C  15)          120.5147         0.431337   
     70. A(C  15,C  13,H  17)          120.2349         0.352722   
     71. A(C  10,C  13,H  17)          119.9148         0.352131   
     72. A(C  10,C  13,C  15)          119.8502         0.431640   
     73. A(C  13,C  15,H  18)          120.1457         0.352880   
     74. A(C  11,C  15,H  18)          120.1478         0.352095   
     75. A(C  11,C  15,C  13)          119.7064         0.431388   
     76. A(H  21,C  19,C  22)          107.5090         0.322663   
     77. A(H  20,C  19,C  22)          104.9182         0.322829   
     78. A(N   5,C  19,C  22)          117.6340         0.369011   
     79. A(H  20,C  19,H  21)          107.4459         0.288685   
     80. A(N   5,C  19,H  21)          106.7861         0.328123   
     81. A(N   5,C  19,H  20)          112.0949         0.328293   
     82. A(N  23,C  22,O  24)          123.0702         0.464913   
     83. A(C  19,C  22,O  24)          118.5243         0.427058   
     84. A(C  19,C  22,N  23)          118.3788         0.393256   
     85. A(C  26,N  23,C  30)          115.9256         0.379870   
     86. A(C  22,N  23,C  30)          118.5154         0.402560   
     87. A(C  22,N  23,C  26)          125.5135         0.402843   
     88. A(H  28,C  26,H  29)          108.2939         0.290704   
     89. A(H  27,C  26,H  29)          108.3308         0.290409   
     90. A(N  23,C  26,H  29)          111.4682         0.332115   
     91. A(H  27,C  26,H  28)          108.7670         0.289105   
     92. A(N  23,C  26,H  28)          108.0857         0.330542   
     93. A(N  23,C  26,H  27)          111.8043         0.330189   
     94. A(H  32,C  30,H  33)          110.0738         0.290304   
     95. A(H  31,C  30,H  33)          109.4555         0.290392   
     96. A(N  23,C  30,H  33)          108.4912         0.331711   
     97. A(H  31,C  30,H  32)          108.6489         0.288996   
     98. A(N  23,C  30,H  32)          109.8642         0.330029   
     99. A(N  23,C  30,H  31)          110.3009         0.330135   
    100. A(H  35,C  34,H  36)          108.5622         0.289262   
    101. A(C   6,C  34,H  36)          110.1689         0.323753   
    102. A(C   6,C  34,H  35)          107.8481         0.323621   
    103. A(H  36,C  34,H  37)          108.8059         0.290666   
    104. A(H  35,C  34,H  37)          109.2652         0.290554   
    105. A(C   6,C  34,H  37)          112.1227         0.325266   
    106. D(O  25,C   4,C   0,H   3)    -92.7921         0.011455   
    107. D(N   5,C   4,C   0,H   2)   -155.2565         0.011455   
    108. D(N   5,C   4,C   0,H   1)    -34.0298         0.011455   
    109. D(O  25,C   4,C   0,H   2)     24.2398         0.011455   
    110. D(N   5,C   4,C   0,H   3)     87.7116         0.011455   
    111. D(O  25,C   4,C   0,H   1)    145.4665         0.011455   
    112. D(C   6,N   5,C   4,C   0)    161.3010         0.027802   
    113. D(C  19,N   5,C   4,O  25)    170.8283         0.027802   
    114. D(C   6,N   5,C   4,O  25)    -18.1850         0.027802   
    115. D(C  19,N   5,C   4,C   0)     -9.6858         0.027802   
    116. D(C   8,C   6,N   5,C   4)     92.4532         0.013175   
    117. D(C   8,C   6,N   5,C  19)    -95.8663         0.013175   
    118. D(C  34,C   6,N   5,C   4)    -37.8668         0.013175   
    119. D(C  34,C   6,N   5,C  19)    133.8137         0.013175   
    120. D(H   7,C   6,N   5,C  19)     19.2852         0.013175   
    121. D(H   7,C   6,N   5,C   4)   -152.3952         0.013175   
    122. D(C  10,C   8,C   6,C  34)   -116.3146         0.011786   
    123. D(C  10,C   8,C   6,H   7)     -0.4590         0.011786   
    124. D(C   9,C   8,C   6,C  34)     63.5922         0.011786   
    125. D(C  10,C   8,C   6,N   5)    112.7871         0.011786   
    126. D(C   9,C   8,C   6,H   7)    179.4478         0.011786   
    127. D(C   9,C   8,C   6,N   5)    -67.3061         0.011786   
    128. D(H  12,C   9,C   8,C   6)      0.7724         0.024203   
    129. D(C  11,C   9,C   8,C  10)     -0.7943         0.024203   
    130. D(H  12,C   9,C   8,C  10)   -179.3201         0.024203   
    131. D(C  11,C   9,C   8,C   6)    179.2982         0.024203   
    132. D(H  14,C  10,C   8,C   9)   -178.9911         0.024765   
    133. D(C  13,C  10,C   8,C   9)      0.6373         0.024765   
    134. D(C  13,C  10,C   8,C   6)   -179.4538         0.024765   
    135. D(H  14,C  10,C   8,C   6)      0.9178         0.024765   
    136. D(C  15,C  11,C   9,C   8)      0.4703         0.025971   
    137. D(H  16,C  11,C   9,H  12)     -1.3204         0.025971   
    138. D(H  16,C  11,C   9,C   8)   -179.8187         0.025971   
    139. D(C  15,C  11,C   9,H  12)    178.9686         0.025971   
    140. D(H  17,C  13,C  10,H  14)     -0.4546         0.025467   
    141. D(C  15,C  13,C  10,H  14)    179.4794         0.025467   
    142. D(C  15,C  13,C  10,C   8)     -0.1488         0.025467   
    143. D(H  17,C  13,C  10,C   8)    179.9172         0.025467   
    144. D(H  18,C  15,C  13,H  17)     -0.1745         0.026007   
    145. D(H  18,C  15,C  13,C  10)    179.8917         0.026007   
    146. D(C  11,C  15,C  13,H  17)    179.7463         0.026007   
    147. D(C  11,C  15,C  13,C  10)     -0.1875         0.026007   
    148. D(H  18,C  15,C  11,H  16)      0.2373         0.025293   
    149. D(C  13,C  15,C  11,H  16)   -179.6836         0.025293   
    150. D(C  13,C  15,C  11,C   9)      0.0264         0.025293   
    151. D(H  18,C  15,C  11,C   9)    179.9472         0.025293   
    152. D(C  22,C  19,N   5,C   6)    148.2300         0.015513   
    153. D(C  22,C  19,N   5,C   4)    -40.2843         0.015513   
    154. D(H  21,C  19,N   5,C   6)     27.3904         0.015513   
    155. D(H  21,C  19,N   5,C   4)   -161.1239         0.015513   
    156. D(H  20,C  19,N   5,C   6)    -90.0242         0.015513   
    157. D(H  20,C  19,N   5,C   4)     81.4616         0.015513   
    158. D(O  24,C  22,C  19,H  21)   -111.4985         0.010322   
    159. D(O  24,C  22,C  19,H  20)      2.6676         0.010322   
    160. D(O  24,C  22,C  19,N   5)    128.0383         0.010322   
    161. D(N  23,C  22,C  19,H  21)     66.6819         0.010322   
    162. D(N  23,C  22,C  19,H  20)   -179.1520         0.010322   
    163. D(N  23,C  22,C  19,N   5)    -53.7813         0.010322   
    164. D(C  30,N  23,C  22,O  24)     -6.6583         0.030656   
    165. D(C  30,N  23,C  22,C  19)    175.2495         0.030656   
    166. D(C  26,N  23,C  22,O  24)    175.9035         0.030656   
    167. D(C  26,N  23,C  22,C  19)     -2.1888         0.030656   
    168. D(H  27,C  26,N  23,C  22)     97.4026         0.016642   
    169. D(H  29,C  26,N  23,C  30)    158.4845         0.016642   
    170. D(H  29,C  26,N  23,C  22)    -24.0184         0.016642   
    171. D(H  28,C  26,N  23,C  30)     39.5864         0.016642   
    172. D(H  28,C  26,N  23,C  22)   -142.9165         0.016642   
    173. D(H  27,C  26,N  23,C  30)    -80.0946         0.016642   
    174. D(H  33,C  30,N  23,C  26)    175.5777         0.016509   
    175. D(H  33,C  30,N  23,C  22)     -2.1038         0.016509   
    176. D(H  32,C  30,N  23,C  26)     55.2042         0.016509   
    177. D(H  32,C  30,N  23,C  22)   -122.4773         0.016509   
    178. D(H  31,C  30,N  23,C  26)    -64.5425         0.016509   
    179. D(H  31,C  30,N  23,C  22)    117.7759         0.016509   
    180. D(H  37,C  34,C   6,C   8)    -59.0920         0.011259   
    181. D(H  37,C  34,C   6,H   7)   -175.6343         0.011259   
    182. D(H  37,C  34,C   6,N   5)     71.0050         0.011259   
    183. D(H  36,C  34,C   6,C   8)    179.5735         0.011259   
    184. D(H  36,C  34,C   6,H   7)     63.0312         0.011259   
    185. D(H  36,C  34,C   6,N   5)    -50.3295         0.011259   
    186. D(H  35,C  34,C   6,C   8)     61.2437         0.011259   
    187. D(H  35,C  34,C   6,H   7)    -55.2986         0.011259   
    188. D(H  35,C  34,C   6,N   5)   -168.6593         0.011259   
    -----------------------------------------------------------------

Number of atoms                         .... 38
Number of degrees of freedom            .... 188

         *************************************************************
         *                GEOMETRY OPTIMIZATION CYCLE   1            *
         *************************************************************
---------------------------------
CARTESIAN COORDINATES (ANGSTROEM)
---------------------------------
  C     -2.475000    1.654000    0.977000
  H     -3.044000    1.805000    0.058000
  H     -2.660000    2.475000    1.672000
  H     -2.826000    0.730000    1.443000
  C     -0.974000    1.610000    0.765000
  N     -0.499000    1.058000   -0.403000
  C      0.882000    1.335000   -0.878000
  H      0.810000    1.226000   -1.968000
  C      1.877000    0.302000   -0.398000
  C      2.207000    0.186000    0.962000
  C      2.487000   -0.558000   -1.321000
  C      3.117000   -0.785000    1.381000
  H      1.726000    0.845000    1.679000
  C      3.401000   -1.528000   -0.900000
  H      2.250000   -0.465000   -2.381000
  C      3.716000   -1.644000    0.454000
  H      3.364000   -0.869000    2.437000
  H      3.865000   -2.189000   -1.629000
  H      4.425000   -2.398000    0.787000
  C     -1.347000    0.332000   -1.350000
  H     -1.899000    1.009000   -2.012000
  H     -0.678000   -0.269000   -1.978000
  C     -2.409000   -0.610000   -0.775000
  N     -2.014000   -1.568000    0.112000
  O     -3.578000   -0.489000   -1.162000
  O     -0.214000    2.072000    1.627000
  C     -0.645000   -1.812000    0.538000
  H     -0.423000   -1.324000    1.494000
  H     -0.513000   -2.892000    0.655000
  H      0.070000   -1.459000   -0.200000
  C     -3.033000   -2.396000    0.740000
  H     -2.890000   -3.447000    0.467000
  H     -2.967000   -2.305000    1.830000
  H     -4.009000   -2.062000    0.396000
  C      1.349000    2.770000   -0.635000
  H      2.278000    2.920000   -1.195000
  H      0.601000    3.478000   -1.005000
  H      1.529000    2.969000    0.418000

----------------------------
CARTESIAN COORDINATES (A.U.)
----------------------------
  NO LB      ZA    FRAG     MASS         X           Y           Z
   0 C     6.0000    0    12.011   -4.677072    3.125607    1.846262
   1 H     1.0000    0     1.008   -5.752326    3.410956    0.109604
   2 H     1.0000    0     1.008   -5.026672    4.677072    3.159622
   3 H     1.0000    0     1.008   -5.340366    1.379500    2.726875
   4 C     6.0000    0    12.011   -1.840593    3.042459    1.445640
   5 N     7.0000    0    14.007   -0.942973    1.999330   -0.761560
   6 C     6.0000    0    12.011    1.666738    2.522784   -1.659180
   7 H     1.0000    0     1.008    1.530678    2.316804   -3.718981
   8 C     6.0000    0    12.011    3.547016    0.570697   -0.752111
   9 C     6.0000    0    12.011    4.170626    0.351489    1.817917
  10 C     6.0000    0    12.011    4.699749   -1.054467   -2.496328
  11 C     6.0000    0    12.011    5.890276   -1.483435    2.609712
  12 H     1.0000    0     1.008    3.261667    1.596819    3.172850
  13 C     6.0000    0    12.011    6.426959   -2.887502   -1.700754
  14 H     1.0000    0     1.008    4.251884   -0.878723   -4.499438
  15 C     6.0000    0    12.011    7.022222   -3.106710    0.857936
  16 H     1.0000    0     1.008    6.357039   -1.642172    4.605263
  17 H     1.0000    0     1.008    7.303792   -4.136611   -3.078364
  18 H     1.0000    0     1.008    8.362038   -4.531563    1.487214
  19 C     6.0000    0    12.011   -2.545461    0.627389   -2.551130
  20 H     1.0000    0     1.008   -3.588590    1.906734   -3.802129
  21 H     1.0000    0     1.008   -1.281234   -0.508336   -3.737878
  22 C     6.0000    0    12.011   -4.552350   -1.152733   -1.464538
  23 N     7.0000    0    14.007   -3.805908   -2.963091    0.211649
  24 O     8.0000    0    15.999   -6.761440   -0.924076   -2.195862
  25 O     8.0000    0    15.999   -0.404401    3.915513    3.074584
  26 C     6.0000    0    12.011   -1.218873   -3.424184    1.016673
  27 H     1.0000    0     1.008   -0.799354   -2.501997    2.823251
  28 H     1.0000    0     1.008   -0.969430   -5.465088    1.237771
  29 H     1.0000    0     1.008    0.132281   -2.757110   -0.377945
  30 C     6.0000    0    12.011   -5.731539   -4.527784    1.398397
  31 H     1.0000    0     1.008   -5.461309   -6.513886    0.882502
  32 H     1.0000    0     1.008   -5.606817   -4.355819    3.458199
  33 H     1.0000    0     1.008   -7.575912   -3.896615    0.748332
  34 C     6.0000    0    12.011    2.549241    5.234541   -1.199976
  35 H     1.0000    0     1.008    4.304796    5.518000   -2.258223
  36 H     1.0000    0     1.008    1.135725    6.572467   -1.899175
  37 H     1.0000    0     1.008    2.889391    5.610597    0.789906

--------------------------------
INTERNAL COORDINATES (ANGSTROEM)
--------------------------------
 C      0   0   0     0.000000000000     0.00000000     0.00000000
 H      1   0   0     1.091385816290     0.00000000     0.00000000
 H      1   2   0     1.091462779943   110.10507927     0.00000000
 H      1   2   3     1.092763926930   107.97560209   117.76690232
 C      1   2   3     1.516535855165   113.72309733   240.99273409
 N      5   1   2     1.376427622507   118.15253476   325.97021161
 C      6   5   1     1.486443742629   121.13444407   161.30095600
 H      7   6   5     1.097800072873   103.75957463   207.60478948
 C      7   6   5     1.512452974476   112.48935781    92.45323457
 C      9   7   6     1.404263508035   121.22364075   292.69392385
 C      9   7   6     1.401295472054   119.76905723   112.78710279
 C     10   9   7     1.395170957267   120.10751640   179.29817303
 H     10   9   7     1.086154224777   119.02112095     0.77239291
 C     11   9   7     1.397689879766   120.80960046   180.54622177
 H     11   9   7     1.090145861800   119.56878610     0.91780266
 C     14  11   9     1.394989964122   119.85021201   359.85121840
 H     12  10   9     1.087750430935   119.56496129   180.18127269
 H     14  11   9     1.087960477223   119.91481873   179.91721460
 H     16  14  11     1.087237784480   120.14571870   179.89167549
 C      6   5   1     1.463895146518   123.22507690   350.31418045
 H     20   6   5     1.096027828114   112.09489426    81.46158864
 H     20   6   5     1.096880121071   106.78608232   198.87614040
 C     20   6   5     1.531611243103   117.63398808   319.71572538
 N     23  20   6     1.364022727083   118.37878491   306.21872045
 O     23  20   6     1.237324128917   118.52434784   128.03829736
 O      5   1   2     1.238583061405   119.94753971   145.46651916
 C     24  23  20     1.454363434634   125.51345796   357.81124798
 H     27  24  23     1.096067516169   111.80432677    97.40256812
 H     27  24  23     1.094309371247   108.08565173   217.08348982
 H     27  24  23     1.086498044177   111.46817624   335.98164600
 C     24  23  20     1.455448040983   118.51539637   175.24945208
 H     31  24  23     1.095252938823   110.30086294   117.77590565
 H     31  24  23     1.095781456313   109.86419134   237.52266485
 H     31  24  23     1.087413444831   108.49122937   357.89617768
 C      7   6   5     1.528516601153   114.07923190   322.13323643
 H     35   7   6     1.095052966755   107.84811616   191.34071412
 H     35   7   6     1.094380189879   110.16885940   309.67052875
 H     35   7   6     1.086650817880   112.12267964    71.00502772

---------------------------
INTERNAL COORDINATES (A.U.)
---------------------------
 C      0   0   0     0.000000000000     0.00000000     0.00000000
 H      1   0   0     2.062420299235     0.00000000     0.00000000
 H      1   2   0     2.062565739460   110.10507927     0.00000000
 H      1   2   3     2.065024550926   107.97560209   117.76690232
 C      1   2   3     2.865837438533   113.72309733   240.99273409
 N      5   1   2     2.601071249702   118.15253476   325.97021161
 C      6   5   1     2.808971587049   121.13444407   161.30095600
 H      7   6   5     2.074541487529   103.75957463   207.60478948
 C      7   6   5     2.858121912193   112.48935781    92.45323457
 C      9   7   6     2.653673450047   121.22364075   292.69392385
 C      9   7   6     2.648064674887   119.76905723   112.78710279
 C     10   9   7     2.636491019234   120.10751640   179.29817303
 H     10   9   7     2.052534024029   119.02112095     0.77239291
 C     11   9   7     2.641251092911   120.80960046   180.54622177
 H     11   9   7     2.060077124830   119.56878610     0.91780266
 C     14  11   9     2.636148991758   119.85021201   359.85121840
 H     12  10   9     2.055550416523   119.56496129   180.18127269
 H     14  11   9     2.055947346482   119.91481873   179.91721460
 H     16  14  11     2.054581655118   120.14571870   179.89167549
 C      6   5   1     2.766360915696   123.22507690   350.31418045
 H     20   6   5     2.071192430292   112.09489426    81.46158864
 H     20   6   5     2.072803030566   106.78608232   198.87614040
 C     20   6   5     2.894325793100   117.63398808   319.71572538
 N     23  20   6     2.577629394632   118.37878491   306.21872045
 O     23  20   6     2.338203742546   118.52434784   128.03829736
 O      5   1   2     2.340582780170   119.94753971   145.46651916
 C     24  23  20     2.748348590647   125.51345796   357.81124798
 H     27  24  23     2.071267429846   111.80432677    97.40256812
 H     27  24  23     2.067945017441   108.08565173   217.08348982
 H     27  24  23     2.053183748535   111.46817624   335.98164600
 C     24  23  20     2.750398199609   118.51539637   175.24945208
 H     31  24  23     2.069728101748   110.30086294   117.77590565
 H     31  24  23     2.070726855061   109.86419134   237.52266485
 H     31  24  23     2.054913605075   108.49122937   357.89617768
 C      7   6   5     2.888477767331   114.07923190   322.13323643
 H     35   7   6     2.069350209306   107.84811616   191.34071412
 H     35   7   6     2.068078845260   110.16885940   309.67052875
 H     35   7   6     2.053472448995   112.12267964    71.00502772

---------------------
BASIS SET INFORMATION
---------------------
There are 4 groups of distinct atoms

 Group   1 Type C   : 10s4p1d contracted to 3s2p1d pattern {631/31/1}
 Group   2 Type H   : 4s contracted to 2s pattern {31}
 Group   3 Type N   : 10s4p1d contracted to 3s2p1d pattern {631/31/1}
 Group   4 Type O   : 10s4p1d contracted to 3s2p1d pattern {631/31/1}

Atom   0C    basis set group =>   1
Atom   1H    basis set group =>   2
Atom   2H    basis set group =>   2
Atom   3H    basis set group =>   2
Atom   4C    basis set group =>   1
Atom   5N    basis set group =>   3
Atom   6C    basis set group =>   1
Atom   7H    basis set group =>   2
Atom   8C    basis set group =>   1
Atom   9C    basis set group =>   1
Atom  10C    basis set group =>   1
Atom  11C    basis set group =>   1
Atom  12H    basis set group =>   2
Atom  13C    basis set group =>   1
Atom  14H    basis set group =>   2
Atom  15C    basis set group =>   1
Atom  16H    basis set group =>   2
Atom  17H    basis set group =>   2
Atom  18H    basis set group =>   2
Atom  19C    basis set group =>   1
Atom  20H    basis set group =>   2
Atom  21H    basis set group =>   2
Atom  22C    basis set group =>   1
Atom  23N    basis set group =>   3
Atom  24O    basis set group =>   4
Atom  25O    basis set group =>   4
Atom  26C    basis set group =>   1
Atom  27H    basis set group =>   2
Atom  28H    basis set group =>   2
Atom  29H    basis set group =>   2
Atom  30C    basis set group =>   1
Atom  31H    basis set group =>   2
Atom  32H    basis set group =>   2
Atom  33H    basis set group =>   2
Atom  34C    basis set group =>   1
Atom  35H    basis set group =>   2
Atom  36H    basis set group =>   2
Atom  37H    basis set group =>   2
---------------------------------
AUXILIARY/J BASIS SET INFORMATION
---------------------------------
There are 4 groups of distinct atoms

 Group   1 Type C   : 13s11p10d2f contracted to 13s11p10d2f pattern {1111111111111/11111111111/1111111111/11}
 Group   2 Type H   : 9s2p contracted to 9s2p pattern {111111111/11}
 Group   3 Type N   : 14s11p10d2f contracted to 14s11p10d2f pattern {11111111111111/11111111111/1111111111/11}
 Group   4 Type O   : 14s11p10d2f contracted to 14s11p10d2f pattern {11111111111111/11111111111/1111111111/11}

Atom   0C    basis set group =>   1
Atom   1H    basis set group =>   2
Atom   2H    basis set group =>   2
Atom   3H    basis set group =>   2
Atom   4C    basis set group =>   1
Atom   5N    basis set group =>   3
Atom   6C    basis set group =>   1
Atom   7H    basis set group =>   2
Atom   8C    basis set group =>   1
Atom   9C    basis set group =>   1
Atom  10C    basis set group =>   1
Atom  11C    basis set group =>   1
Atom  12H    basis set group =>   2
Atom  13C    basis set group =>   1
Atom  14H    basis set group =>   2
Atom  15C    basis set group =>   1
Atom  16H    basis set group =>   2
Atom  17H    basis set group =>   2
Atom  18H    basis set group =>   2
Atom  19C    basis set group =>   1
Atom  20H    basis set group =>   2
Atom  21H    basis set group =>   2
Atom  22C    basis set group =>   1
Atom  23N    basis set group =>   3
Atom  24O    basis set group =>   4
Atom  25O    basis set group =>   4
Atom  26C    basis set group =>   1
Atom  27H    basis set group =>   2
Atom  28H    basis set group =>   2
Atom  29H    basis set group =>   2
Atom  30C    basis set group =>   1
Atom  31H    basis set group =>   2
Atom  32H    basis set group =>   2
Atom  33H    basis set group =>   2
Atom  34C    basis set group =>   1
Atom  35H    basis set group =>   2
Atom  36H    basis set group =>   2
Atom  37H    basis set group =>   2
---------------------------------
AUXILIARY/C BASIS SET INFORMATION
---------------------------------
There are 4 groups of distinct atoms

 Group   1 Type C   : 13s11p10d2f contracted to 13s11p10d2f pattern {1111111111111/11111111111/1111111111/11}
 Group   2 Type H   : 9s2p contracted to 9s2p pattern {111111111/11}
 Group   3 Type N   : 14s11p10d2f contracted to 14s11p10d2f pattern {11111111111111/11111111111/1111111111/11}
 Group   4 Type O   : 14s11p10d2f contracted to 14s11p10d2f pattern {11111111111111/11111111111/1111111111/11}

Atom   0C    basis set group =>   1
Atom   1H    basis set group =>   2
Atom   2H    basis set group =>   2
Atom   3H    basis set group =>   2
Atom   4C    basis set group =>   1
Atom   5N    basis set group =>   3
Atom   6C    basis set group =>   1
Atom   7H    basis set group =>   2
Atom   8C    basis set group =>   1
Atom   9C    basis set group =>   1
Atom  10C    basis set group =>   1
Atom  11C    basis set group =>   1
Atom  12H    basis set group =>   2
Atom  13C    basis set group =>   1
Atom  14H    basis set group =>   2
Atom  15C    basis set group =>   1
Atom  16H    basis set group =>   2
Atom  17H    basis set group =>   2
Atom  18H    basis set group =>   2
Atom  19C    basis set group =>   1
Atom  20H    basis set group =>   2
Atom  21H    basis set group =>   2
Atom  22C    basis set group =>   1
Atom  23N    basis set group =>   3
Atom  24O    basis set group =>   4
Atom  25O    basis set group =>   4
Atom  26C    basis set group =>   1
Atom  27H    basis set group =>   2
Atom  28H    basis set group =>   2
Atom  29H    basis set group =>   2
Atom  30C    basis set group =>   1
Atom  31H    basis set group =>   2
Atom  32H    basis set group =>   2
Atom  33H    basis set group =>   2
Atom  34C    basis set group =>   1
Atom  35H    basis set group =>   2
Atom  36H    basis set group =>   2
Atom  37H    basis set group =>   2
----------------------------------
AUXILIARY/JK BASIS SET INFORMATION
----------------------------------
There are 4 groups of distinct atoms

 Group   1 Type C   : 13s11p10d2f contracted to 13s11p10d2f pattern {1111111111111/11111111111/1111111111/11}
 Group   2 Type H   : 9s2p contracted to 9s2p pattern {111111111/11}
 Group   3 Type N   : 14s11p10d2f contracted to 14s11p10d2f pattern {11111111111111/11111111111/1111111111/11}
 Group   4 Type O   : 14s11p10d2f contracted to 14s11p10d2f pattern {11111111111111/11111111111/1111111111/11}

Atom   0C    basis set group =>   1
Atom   1H    basis set group =>   2
Atom   2H    basis set group =>   2
Atom   3H    basis set group =>   2
Atom   4C    basis set group =>   1
Atom   5N    basis set group =>   3
Atom   6C    basis set group =>   1
Atom   7H    basis set group =>   2
Atom   8C    basis set group =>   1
Atom   9C    basis set group =>   1
Atom  10C    basis set group =>   1
Atom  11C    basis set group =>   1
Atom  12H    basis set group =>   2
Atom  13C    basis set group =>   1
Atom  14H    basis set group =>   2
Atom  15C    basis set group =>   1
Atom  16H    basis set group =>   2
Atom  17H    basis set group =>   2
Atom  18H    basis set group =>   2
Atom  19C    basis set group =>   1
Atom  20H    basis set group =>   2
Atom  21H    basis set group =>   2
Atom  22C    basis set group =>   1
Atom  23N    basis set group =>   3
Atom  24O    basis set group =>   4
Atom  25O    basis set group =>   4
Atom  26C    basis set group =>   1
Atom  27H    basis set group =>   2
Atom  28H    basis set group =>   2
Atom  29H    basis set group =>   2
Atom  30C    basis set group =>   1
Atom  31H    basis set group =>   2
Atom  32H    basis set group =>   2
Atom  33H    basis set group =>   2
Atom  34C    basis set group =>   1
Atom  35H    basis set group =>   2
Atom  36H    basis set group =>   2
Atom  37H    basis set group =>   2


           ************************************************************
           *        Program running with 4 parallel MPI-processes     *
           *              working on a common directory               *
           ************************************************************
------------------------------------------------------------------------------
                           ORCA GTO INTEGRAL CALCULATION
                           -- RI-GTO INTEGRALS CHOSEN --
------------------------------------------------------------------------------
------------------------------------------------------------------------------
                   ___                                                        
                  /   \      - P O W E R E D   B Y -                         
                 /     \                                                     
                 |  |  |   _    _      __       _____    __    __             
                 |  |  |  | |  | |    /  \     |  _  \  |  |  /  |          
                  \  \/   | |  | |   /    \    | | | |  |  | /  /          
                 / \  \   | |__| |  /  /\  \   | |_| |  |  |/  /          
                |  |  |   |  __  | /  /__\  \  |    /   |      \           
                |  |  |   | |  | | |   __   |  |    \   |  |\   \          
                \     /   | |  | | |  |  |  |  | |\  \  |  | \   \       
                 \___/    |_|  |_| |__|  |__|  |_| \__\ |__|  \__/        
                                                                              
                      - O R C A' S   B I G   F R I E N D -                    
                                      &                                       
                       - I N T E G R A L  F E E D E R -                       
                                                                              
 v1 FN, 2020, v2 2021                                                         
------------------------------------------------------------------------------


Reading SHARK input file Nfes_octanol.SHARKINP.tmp ... ok
----------------------
SHARK INTEGRAL PACKAGE
----------------------

Number of atoms                             ...     38
Number of basis functions                   ...    292
Number of shells                            ...    148
Maximum angular momentum                    ...      2
Integral batch strategy                     ... SHARK/LIBINT Hybrid
RI-J (if used) integral strategy            ... SPLIT-RIJ (Revised 2003 algorithm where possible)
Printlevel                                  ...      1
Contraction scheme used                     ... SEGMENTED contraction
Coulomb Range Separation                    ... NOT USED
Exchange Range Separation                   ... NOT USED
Finite Nucleus Model                        ... NOT USED
Auxiliary Coulomb fitting basis             ... AVAILABLE
   # of basis functions in Aux-J            ...   2284
   # of shells in Aux-J                     ...    872
   Maximum angular momentum in Aux-J        ...      3
Auxiliary J/K fitting basis                 ... AVAILABLE
   # of basis functions in Aux-JK           ...   2284
   # of shells in Aux-JK                    ...    872
   Maximum angular momentum in Aux-JK       ...      3
Auxiliary Correlation fitting basis         ... AVAILABLE
   # of basis functions in Aux-C            ...   2284
   # of shells in Aux-C                     ...    872
   Maximum angular momentum in Aux-C        ...      3
Auxiliary 'external' fitting basis          ... NOT available
Integral threshold                          ...     2.500000e-11
Primitive cut-off                           ...     2.500000e-12
Primitive pair pre-selection threshold      ...     2.500000e-12

Calculating pre-screening integrals         ... done (  0.1 sec) Dimension = 148
Organizing shell pair data                  ... done (  0.4 sec)
Shell pair information
Total number of shell pairs                 ...     11026
Shell pairs after pre-screening             ...      9236
Total number of primitive shell pairs       ...     61863
Primitive shell pairs kept                  ...     29405
          la=0 lb=0:   3591 shell pairs
          la=1 lb=0:   3013 shell pairs
          la=1 lb=1:    629 shell pairs
          la=2 lb=0:   1303 shell pairs
          la=2 lb=1:    573 shell pairs
          la=2 lb=2:    127 shell pairs

Calculating one electron integrals          ... done (  0.0 sec)
Calculating RI/J V-Matrix + Cholesky decomp.... done (  0.4 sec)
Calculating RI/JK V-Matrix + Cholesky decomp... done (  0.3 sec)
Calculating RI/C V-Matrix + Cholesky decomp.... done (  0.3 sec)
Calculating Nuclear repulsion               ... done (  0.0 sec) ENN=   1403.646865288149 Eh

SHARK setup successfully completed in   2.0 seconds

Maximum memory used throughout the entire GTOINT-calculation: 44.8 MB


           ************************************************************
           *        Program running with 4 parallel MPI-processes     *
           *              working on a common directory               *
           ************************************************************
-------------------------------------------------------------------------------
                                 ORCA SCF
-------------------------------------------------------------------------------

------------
SCF SETTINGS
------------
Hamiltonian:
 Density Functional     Method          .... DFT(GTOs)
 Exchange Functional    Exchange        .... B88
   X-Alpha parameter    XAlpha          ....  0.666667
   Becke's b parameter  XBeta           ....  0.004200
 Correlation Functional Correlation     .... LYP
 LDA part of GGA corr.  LDAOpt          .... VWN-5
 Gradients option       PostSCFGGA      .... off
 Hybrid DFT is turned on
   Fraction HF Exchange ScalHFX         ....  0.200000
   Scaling of DF-GGA-X  ScalDFX         ....  0.720000
   Scaling of DF-GGA-C  ScalDFC         ....  0.810000
   Scaling of DF-LDA-C  ScalLDAC        ....  1.000000
   Perturbative correction              ....  0.000000
   Density functional embedding theory  .... OFF
   NL short-range parameter             ....  4.800000
 RI-approximation to the Coulomb term is turned on
   Number of AuxJ basis functions       .... 2284
   RIJ-COSX (HFX calculated with COS-X)).... on


General Settings:
 Integral files         IntName         .... Nfes_octanol
 Hartree-Fock type      HFTyp           .... RHF
 Total Charge           Charge          ....    0
 Multiplicity           Mult            ....    1
 Number of Electrons    NEL             ....  134
 Basis Dimension        Dim             ....  292
 Nuclear Repulsion      ENuc            ....   1403.6468652881 Eh

Convergence Acceleration:
 DIIS                   CNVDIIS         .... on
   Start iteration      DIISMaxIt       ....    12
   Startup error        DIISStart       ....  0.200000
   # of expansion vecs  DIISMaxEq       ....     5
   Bias factor          DIISBfac        ....   1.050
   Max. coefficient     DIISMaxC        ....  10.000
 Trust-Rad. Augm. Hess. CNVTRAH         .... auto
   Auto Start mean grad. ratio tolernc. ....  1.125000
   Auto Start start iteration           ....    20
   Auto Start num. interpolation iter.  ....    10
   Max. Number of Micro iterations      ....    16
   Max. Number of Macro iterations      .... Maxiter - #DIIS iter
   Number of Davidson start vectors     ....     2
   Converg. threshold I  (grad. norm)   ....   1.000e-05
   Converg. threshold II (energy diff.) ....   1.000e-08
   Grad. Scal. Fac. for Micro threshold ....   0.100
   Minimum threshold for Micro iter.    ....   0.010
   NR start threshold (gradient norm)   ....   0.001
   Initial trust radius                 ....   0.400
   Minimum AH scaling param. (alpha)    ....   1.000
   Maximum AH scaling param. (alpha)    .... 1000.000
   Orbital update algorithm             .... Taylor
   White noise on init. David. guess    .... on
   Maximum white noise                  ....   0.010
   Quad. conv. algorithm                .... NR
 SOSCF                  CNVSOSCF        .... on
   Start iteration      SOSCFMaxIt      ....   150
   Startup grad/error   SOSCFStart      ....  0.003300
 Level Shifting         CNVShift        .... on
   Level shift para.    LevelShift      ....    0.2500
   Turn off err/grad.   ShiftErr        ....    0.0010
 Zerner damping         CNVZerner       .... off
 Static damping         CNVDamp         .... on
   Fraction old density DampFac         ....    0.7000
   Max. Damping (<1)    DampMax         ....    0.9800
   Min. Damping (>=0)   DampMin         ....    0.0000
   Turn off err/grad.   DampErr         ....    0.1000
 Fernandez-Rico         CNVRico         .... off

SCF Procedure:
 Maximum # iterations   MaxIter         ....   125
 SCF integral mode      SCFMode         .... Direct
   Integral package                     .... SHARK and LIBINT hybrid scheme
 Reset frequency        DirectResetFreq ....    20
 Integral Threshold     Thresh          ....  2.500e-11 Eh
 Primitive CutOff       TCut            ....  2.500e-12 Eh

Convergence Tolerance:
 Convergence Check Mode ConvCheckMode   .... Total+1el-Energy
 Convergence forced     ConvForced      .... 0
 Energy Change          TolE            ....  1.000e-08 Eh
 1-El. energy change                    ....  1.000e-05 Eh
 Orbital Gradient       TolG            ....  1.000e-05
 Orbital Rotation angle TolX            ....  1.000e-05
 DIIS Error             TolErr          ....  5.000e-07


Diagonalization of the overlap matrix:
Smallest eigenvalue                        ... 4.766e-04
Time for diagonalization                   ...    0.013 sec
Threshold for overlap eigenvalues          ... 1.000e-08
Number of eigenvalues below threshold      ... 0
Time for construction of square roots      ...    0.007 sec
Total time needed                          ...    0.021 sec

Time for model grid setup =    0.332 sec

------------------------------
INITIAL GUESS: MODEL POTENTIAL
------------------------------
Loading Hartree-Fock densities                     ... done
Calculating cut-offs                               ... done
Initializing the effective Hamiltonian             ... done
Setting up the integral package (SHARK)            ... done
Starting the Coulomb interaction                   ... done (   0.3 sec)
Reading the grid                                   ... done
Mapping shells                                     ... done
Starting the XC term evaluation                    ... done (   0.2 sec)
  promolecular density results
     # of electrons  =    133.988453767
     EX              =   -107.478312786
     EC              =     -4.513199599
     EX+EC           =   -111.991512386
Transforming the Hamiltonian                       ... done (   0.0 sec)
Diagonalizing the Hamiltonian                      ... done (   0.0 sec)
Back transforming the eigenvectors                 ... done (   0.0 sec)
Now organizing SCF variables                       ... done
                      ------------------
                      INITIAL GUESS DONE (   0.9 sec)
                      ------------------
-------------------
DFT GRID GENERATION
-------------------

General Integration Accuracy     IntAcc      ... 4.388
Radial Grid Type                 RadialGrid  ... OptM3 with GC (2021)
Angular Grid (max. ang.)         AngularGrid ... 4 (Lebedev-302)
Angular grid pruning method      GridPruning ... 4 (adaptive)
Weight generation scheme         WeightScheme... Becke
Basis function cutoff            BFCut       ... 1.0000e-11
Integration weight cutoff        WCut        ... 1.0000e-14
Angular grids for H and He will be reduced by one unit
Partially contracted basis set               ... off
Rotationally invariant grid construction     ... off

Total number of grid points                  ...   170596
Total number of batches                      ...     2685
Average number of points per batch           ...       63
Average number of grid points per atom       ...     4489
Time for grid setup =    1.564 sec

--------------------
COSX GRID GENERATION
--------------------

GRIDX 1
-------
General Integration Accuracy     IntAcc      ... 3.816
Radial Grid Type                 RadialGrid  ... OptM3 with GC (2021)
Angular Grid (max. ang.)         AngularGrid ... 1 (Lebedev-50)
Angular grid pruning method      GridPruning ... 4 (adaptive)
Weight generation scheme         WeightScheme... Becke
Basis function cutoff            BFCut       ... 1.0000e-11
Integration weight cutoff        WCut        ... 1.0000e-14
Angular grids for H and He will be reduced by one unit
Partially contracted basis set               ... on
Rotationally invariant grid construction     ... off

Total number of grid points                  ...    21714
Total number of batches                      ...      359
Average number of points per batch           ...       60
Average number of grid points per atom       ...      571
UseSFitting                                  ... on

GRIDX 2
-------
General Integration Accuracy     IntAcc      ... 4.020
Radial Grid Type                 RadialGrid  ... OptM3 with GC (2021)
Angular Grid (max. ang.)         AngularGrid ... 2 (Lebedev-110)
Angular grid pruning method      GridPruning ... 4 (adaptive)
Weight generation scheme         WeightScheme... Becke
Basis function cutoff            BFCut       ... 1.0000e-11
Integration weight cutoff        WCut        ... 1.0000e-14
Angular grids for H and He will be reduced by one unit
Partially contracted basis set               ... on
Rotationally invariant grid construction     ... off

Total number of grid points                  ...    46068
Total number of batches                      ...      740
Average number of points per batch           ...       62
Average number of grid points per atom       ...     1212
UseSFitting                                  ... on

GRIDX 3
-------
General Integration Accuracy     IntAcc      ... 4.338
Radial Grid Type                 RadialGrid  ... OptM3 with GC (2021)
Angular Grid (max. ang.)         AngularGrid ... 3 (Lebedev-194)
Angular grid pruning method      GridPruning ... 4 (adaptive)
Weight generation scheme         WeightScheme... Becke
Basis function cutoff            BFCut       ... 1.0000e-11
Integration weight cutoff        WCut        ... 1.0000e-14
Angular grids for H and He will be reduced by one unit
Partially contracted basis set               ... on
Rotationally invariant grid construction     ... off

Total number of grid points                  ...   100239
Total number of batches                      ...     1588
Average number of points per batch           ...       63
Average number of grid points per atom       ...     2638
UseSFitting                                  ... on

Time for X-Grid setup             =    1.586 sec


--------------------
CPCM SOLVATION MODEL
--------------------
CPCM parameters:
  Epsilon                                         ...       9.8629
  Refrac                                          ...       1.4295
  Rsolv                                           ...       1.3000
  Surface type                                    ... GAUSSIAN VDW
  Epsilon function type                           ...         CPCM
Radii:
 Radius for C  used is    3.8550 Bohr (=   2.0400 Ang.)
 Radius for H  used is    2.4944 Bohr (=   1.3200 Ang.)
 Radius for N  used is    3.5149 Bohr (=   1.8600 Ang.)
 Radius for O  used is    3.4469 Bohr (=   1.8240 Ang.)
Calculating surface                               ...        done! (  0.0s)
GEPOL surface points                              ...         1924
GEPOL Volume                                      ...    2111.6779
GEPOL Surface-area                                ...    1056.4134
Calculating surface distance matrix               ...        done! (  0.0s)
Performing Cholesky decomposition & store         ...        done! (  0.1s)
Overall time for CPCM initialization              ...                 0.2s
--------------
SCF ITERATIONS
--------------
ITER       Energy         Delta-E        Max-DP      RMS-DP      [F,P]     Damp
               ***  Starting incremental Fock matrix formation  ***
  0   -804.5060987385   0.000000000000 0.09644596  0.00186806  0.2739571 0.7000
  1   -804.7347466971  -0.228647958551 0.05466026  0.00125927  0.1092650 0.7000
                               ***Turning on DIIS***
  2   -804.8257859143  -0.091039217160 0.06538877  0.00200978  0.0399205 0.0000
  3   -804.9700161675  -0.144230253214 0.03717559  0.00085995  0.0543729 0.0000
  4   -804.9994751629  -0.029458995423 0.00923666  0.00028548  0.0139002 0.0000
  5   -805.0015731780  -0.002098015127 0.00376874  0.00008703  0.0059763 0.0000
                      *** Initiating the SOSCF procedure ***
                           *** Shutting down DIIS ***
                      *** Re-Reading the Fockian *** 
                      *** Removing any level shift *** 
ITER      Energy       Delta-E        Grad      Rot      Max-DP    RMS-DP
  6   -805.00171701  -0.0001438271  0.000232  0.000232  0.001045  0.000027
               *** Restarting incremental Fock matrix formation ***
  7   -805.00177079  -0.0000537825  0.000146  0.000575  0.000928  0.000018
  8   -805.00176990   0.0000008849  0.000265  0.000381  0.000605  0.000008
  9   -805.00177251  -0.0000026055  0.000036  0.000095  0.000204  0.000004
 10   -805.00177235   0.0000001585  0.000079  0.000074  0.000143  0.000002
 11   -805.00177258  -0.0000002312  0.000003  0.000008  0.000024  0.000001
 12   -805.00177258   0.0000000009  0.000003  0.000004  0.000014  0.000000
                  ***Gradient check signals convergence***
              ***Rediagonalizing the Fockian in SOSCF/NRSCF***

               *****************************************************
               *                     SUCCESS                       *
               *           SCF CONVERGED AFTER  13 CYCLES          *
               *****************************************************

Old exchange energy                            =    -21.901020863 Eh
New exchange energy                            =    -21.901040417 Eh
Exchange energy change after final integration =     -0.000019554 Eh
Total energy after final integration           =   -805.001792132 Eh
Final COS-X integration done in                =    15.498 sec

----------------
TOTAL SCF ENERGY
----------------

Total Energy       :         -805.00179213 Eh          -21905.21240 eV

Components:
Nuclear Repulsion  :         1403.64686529 Eh           38195.17301 eV
Electronic Energy  :        -2208.64865742 Eh          -60100.38541 eV
One Electron Energy:        -3881.56442493 Eh         -105622.73776 eV
Two Electron Energy:         1672.91576751 Eh           45522.35235 eV
Max COSX asymmetry :            0.00000445 Eh               0.00012 eV
CPCM Dielectric    :           -0.01801009 Eh              -0.49008 eV

Virial components:
Potential Energy   :        -1605.28660595 Eh          -43682.06930 eV
Kinetic Energy     :          800.28481382 Eh           21776.85690 eV
Virial Ratio       :            2.00589412


DFT components:
N(Alpha)           :       67.000063862093 electrons
N(Beta)            :       67.000063862093 electrons
N(Total)           :      134.000127724185 electrons
E(X)               :      -86.943715291857 Eh       
E(C)               :       -5.318267914076 Eh       
E(XC)              :      -92.261983205933 Eh       
DFET-embed. en.    :        0.000000000000 Eh       
CPCM Solvation Model Properties:
Surface-charge          :           -0.02292054
Charge-correction       :           -0.00014824 Eh              -0.00403 eV
Free-energy (cav+disp)  :  This term is not implemented in the current solvation scheme

---------------
SCF CONVERGENCE
---------------

  Last Energy change         ...    2.5053e-09  Tolerance :   1.0000e-08
  Last MAX-Density change    ...    3.5527e-15  Tolerance :   1.0000e-07
  Last RMS-Density change    ...    4.0559e-17  Tolerance :   5.0000e-09
  Last Orbital Gradient      ...    6.6971e-07  Tolerance :   1.0000e-05
  Last Orbital Rotation      ...    2.5529e-06  Tolerance :   1.0000e-05

             **** THE GBW FILE WAS UPDATED (Nfes_octanol.gbw) ****
             **** DENSITY Nfes_octanol.scfp WAS UPDATED ****
             **** ENERGY FILE WAS UPDATED (Nfes_octanol.en.tmp) ****
             **** THE GBW FILE WAS UPDATED (Nfes_octanol.gbw) ****
             **** DENSITY Nfes_octanol.scfp WAS UPDATED ****
----------------
ORBITAL ENERGIES
----------------

  NO   OCC          E(Eh)            E(eV) 
   0   2.0000     -19.108383      -519.9655 
   1   2.0000     -19.107333      -519.9370 
   2   2.0000     -14.359844      -390.7512 
   3   2.0000     -14.357982      -390.7005 
   4   2.0000     -10.283220      -279.8206 
   5   2.0000     -10.282851      -279.8106 
   6   2.0000     -10.220704      -278.1195 
   7   2.0000     -10.219923      -278.0982 
   8   2.0000     -10.199805      -277.5508 
   9   2.0000     -10.195801      -277.4419 
  10   2.0000     -10.184790      -277.1422 
  11   2.0000     -10.179273      -276.9921 
  12   2.0000     -10.178852      -276.9806 
  13   2.0000     -10.178383      -276.9679 
  14   2.0000     -10.177946      -276.9560 
  15   2.0000     -10.172695      -276.8131 
  16   2.0000     -10.169594      -276.7287 
  17   2.0000     -10.159390      -276.4510 
  18   2.0000      -1.031440       -28.0669 
  19   2.0000      -1.024896       -27.8888 
  20   2.0000      -0.935701       -25.4617 
  21   2.0000      -0.925902       -25.1951 
  22   2.0000      -0.849399       -23.1133 
  23   2.0000      -0.785960       -21.3871 
  24   2.0000      -0.741575       -20.1793 
  25   2.0000      -0.737752       -20.0753 
  26   2.0000      -0.730132       -19.8679 
  27   2.0000      -0.712990       -19.4014 
  28   2.0000      -0.708907       -19.2904 
  29   2.0000      -0.676618       -18.4117 
  30   2.0000      -0.640026       -17.4160 
  31   2.0000      -0.598456       -16.2848 
  32   2.0000      -0.587879       -15.9970 
  33   2.0000      -0.546830       -14.8800 
  34   2.0000      -0.532194       -14.4817 
  35   2.0000      -0.509234       -13.8570 
  36   2.0000      -0.500254       -13.6126 
  37   2.0000      -0.486394       -13.2355 
  38   2.0000      -0.478512       -13.0210 
  39   2.0000      -0.462644       -12.5892 
  40   2.0000      -0.458518       -12.4769 
  41   2.0000      -0.449084       -12.2202 
  42   2.0000      -0.446166       -12.1408 
  43   2.0000      -0.438292       -11.9265 
  44   2.0000      -0.420728       -11.4486 
  45   2.0000      -0.413196       -11.2436 
  46   2.0000      -0.409387       -11.1400 
  47   2.0000      -0.404114       -10.9965 
  48   2.0000      -0.401512       -10.9257 
  49   2.0000      -0.398877       -10.8540 
  50   2.0000      -0.397579       -10.8187 
  51   2.0000      -0.393493       -10.7075 
  52   2.0000      -0.382631       -10.4119 
  53   2.0000      -0.376594       -10.2476 
  54   2.0000      -0.372543       -10.1374 
  55   2.0000      -0.356510        -9.7011 
  56   2.0000      -0.353104        -9.6084 
  57   2.0000      -0.349681        -9.5153 
  58   2.0000      -0.345833        -9.4106 
  59   2.0000      -0.333171        -9.0660 
  60   2.0000      -0.326912        -8.8957 
  61   2.0000      -0.256145        -6.9701 
  62   2.0000      -0.248797        -6.7701 
  63   2.0000      -0.247525        -6.7355 
  64   2.0000      -0.241263        -6.5651 
  65   2.0000      -0.238175        -6.4811 
  66   2.0000      -0.233091        -6.3427 
  67   0.0000      -0.002282        -0.0621 
  68   0.0000       0.002289         0.0623 
  69   0.0000       0.016390         0.4460 
  70   0.0000       0.020943         0.5699 
  71   0.0000       0.088215         2.4005 
  72   0.0000       0.099386         2.7044 
  73   0.0000       0.114491         3.1155 
  74   0.0000       0.129732         3.5302 
  75   0.0000       0.133302         3.6273 
  76   0.0000       0.145084         3.9479 
  77   0.0000       0.148009         4.0275 
  78   0.0000       0.153978         4.1900 
  79   0.0000       0.159463         4.3392 
  80   0.0000       0.162738         4.4283 
  81   0.0000       0.167652         4.5620 
  82   0.0000       0.171271         4.6605 
  83   0.0000       0.173607         4.7241 
  84   0.0000       0.175592         4.7781 
  85   0.0000       0.181404         4.9363 
  86   0.0000       0.186896         5.0857 
  87   0.0000       0.188680         5.1343 
  88   0.0000       0.193868         5.2754 
  89   0.0000       0.197634         5.3779 
  90   0.0000       0.201736         5.4895 
  91   0.0000       0.209166         5.6917 
  92   0.0000       0.216640         5.8951 
  93   0.0000       0.222644         6.0584 
  94   0.0000       0.230272         6.2660 
  95   0.0000       0.246709         6.7133 
  96   0.0000       0.252087         6.8596 
  97   0.0000       0.264716         7.2033 
  98   0.0000       0.279164         7.5964 
  99   0.0000       0.296367         8.0645 
 100   0.0000       0.312515         8.5040 
 101   0.0000       0.331376         9.0172 
 102   0.0000       0.336216         9.1489 
 103   0.0000       0.347590         9.4584 
 104   0.0000       0.354557         9.6480 
 105   0.0000       0.373516        10.1639 
 106   0.0000       0.391188        10.6448 
 107   0.0000       0.415305        11.3010 
 108   0.0000       0.461225        12.5506 
 109   0.0000       0.481878        13.1126 
 110   0.0000       0.487398        13.2628 
 111   0.0000       0.505268        13.7490 
 112   0.0000       0.511374        13.9152 
 113   0.0000       0.527663        14.3584 
 114   0.0000       0.535580        14.5739 
 115   0.0000       0.540080        14.6963 
 116   0.0000       0.553745        15.0682 
 117   0.0000       0.556042        15.1307 
 118   0.0000       0.560599        15.2547 
 119   0.0000       0.566016        15.4021 
 120   0.0000       0.581593        15.8259 
 121   0.0000       0.589910        16.0523 
 122   0.0000       0.596533        16.2325 
 123   0.0000       0.600906        16.3515 
 124   0.0000       0.610975        16.6255 
 125   0.0000       0.616508        16.7760 
 126   0.0000       0.621395        16.9090 
 127   0.0000       0.628753        17.1092 
 128   0.0000       0.635738        17.2993 
 129   0.0000       0.636173        17.3112 
 130   0.0000       0.651598        17.7309 
 131   0.0000       0.659129        17.9358 
 132   0.0000       0.662487        18.0272 
 133   0.0000       0.669951        18.2303 
 134   0.0000       0.685335        18.6489 
 135   0.0000       0.697911        18.9911 
 136   0.0000       0.711635        19.3646 
 137   0.0000       0.720732        19.6121 
 138   0.0000       0.743006        20.2182 
 139   0.0000       0.747774        20.3480 
 140   0.0000       0.759511        20.6674 
 141   0.0000       0.775907        21.1135 
 142   0.0000       0.791912        21.5490 
 143   0.0000       0.813851        22.1460 
 144   0.0000       0.818288        22.2667 
 145   0.0000       0.826622        22.4935 
 146   0.0000       0.835902        22.7460 
 147   0.0000       0.841252        22.8916 
 148   0.0000       0.843005        22.9393 
 149   0.0000       0.849086        23.1048 
 150   0.0000       0.851964        23.1831 
 151   0.0000       0.859583        23.3904 
 152   0.0000       0.872690        23.7471 
 153   0.0000       0.878809        23.9136 
 154   0.0000       0.888330        24.1727 
 155   0.0000       0.894059        24.3286 
 156   0.0000       0.900238        24.4967 
 157   0.0000       0.909523        24.7494 
 158   0.0000       0.916168        24.9302 
 159   0.0000       0.923186        25.1212 
 160   0.0000       0.930949        25.3324 
 161   0.0000       0.936805        25.4918 
 162   0.0000       0.941288        25.6137 
 163   0.0000       0.950476        25.8638 
 164   0.0000       0.966743        26.3064 
 165   0.0000       0.968821        26.3630 
 166   0.0000       0.972411        26.4606 
 167   0.0000       0.982104        26.7244 
 168   0.0000       0.988325        26.8937 
 169   0.0000       0.992813        27.0158 
 170   0.0000       1.004899        27.3447 
 171   0.0000       1.013297        27.5732 
 172   0.0000       1.025659        27.9096 
 173   0.0000       1.034710        28.1559 
 174   0.0000       1.070877        29.1400 
 175   0.0000       1.082828        29.4652 
 176   0.0000       1.098872        29.9018 
 177   0.0000       1.106138        30.0995 
 178   0.0000       1.111844        30.2548 
 179   0.0000       1.127104        30.6701 
 180   0.0000       1.150033        31.2940 
 181   0.0000       1.160081        31.5674 
 182   0.0000       1.177351        32.0374 
 183   0.0000       1.188509        32.3410 
 184   0.0000       1.209773        32.9196 
 185   0.0000       1.239023        33.7155 
 186   0.0000       1.254898        34.1475 
 187   0.0000       1.262539        34.3554 
 188   0.0000       1.284158        34.9437 
 189   0.0000       1.297578        35.3089 
 190   0.0000       1.343055        36.5464 
 191   0.0000       1.358126        36.9565 
 192   0.0000       1.372577        37.3497 
 193   0.0000       1.388297        37.7775 
 194   0.0000       1.406779        38.2804 
 195   0.0000       1.433280        39.0015 
 196   0.0000       1.439383        39.1676 
 197   0.0000       1.443469        39.2788 
 198   0.0000       1.455739        39.6127 
 199   0.0000       1.468247        39.9530 
 200   0.0000       1.484642        40.3992 
 201   0.0000       1.494435        40.6656 
 202   0.0000       1.505360        40.9629 
 203   0.0000       1.520254        41.3682 
 204   0.0000       1.540792        41.9271 
 205   0.0000       1.560114        42.4529 
 206   0.0000       1.598956        43.5098 
 207   0.0000       1.621718        44.1292 
 208   0.0000       1.627698        44.2919 
 209   0.0000       1.673070        45.5265 
 210   0.0000       1.695857        46.1466 
 211   0.0000       1.734974        47.2110 
 212   0.0000       1.758168        47.8422 
 213   0.0000       1.771983        48.2181 
 214   0.0000       1.781675        48.4818 
 215   0.0000       1.795655        48.8623 
 216   0.0000       1.814496        49.3750 
 217   0.0000       1.827472        49.7281 
 218   0.0000       1.834142        49.9096 
 219   0.0000       1.850468        50.3538 
 220   0.0000       1.863698        50.7138 
 221   0.0000       1.876065        51.0503 
 222   0.0000       1.883636        51.2564 
 223   0.0000       1.904240        51.8170 
 224   0.0000       1.909305        51.9548 
 225   0.0000       1.926058        52.4107 
 226   0.0000       1.935321        52.6628 
 227   0.0000       1.939363        52.7727 
 228   0.0000       1.959547        53.3220 
 229   0.0000       1.975648        53.7601 
 230   0.0000       1.986753        54.0623 
 231   0.0000       1.993535        54.2468 
 232   0.0000       2.006887        54.6102 
 233   0.0000       2.015296        54.8390 
 234   0.0000       2.022336        55.0306 
 235   0.0000       2.047229        55.7079 
 236   0.0000       2.054905        55.9168 
 237   0.0000       2.068019        56.2737 
 238   0.0000       2.077306        56.5264 
 239   0.0000       2.090759        56.8925 
 240   0.0000       2.103423        57.2371 
 241   0.0000       2.117163        57.6109 
 242   0.0000       2.130825        57.9827 
 243   0.0000       2.136247        58.1302 
 244   0.0000       2.152503        58.5726 
 245   0.0000       2.159380        58.7597 
 246   0.0000       2.176435        59.2238 
 247   0.0000       2.214323        60.2548 
 248   0.0000       2.226593        60.5887 
 249   0.0000       2.238883        60.9231 
 250   0.0000       2.250214        61.2314 
 251   0.0000       2.254733        61.3544 
 252   0.0000       2.275871        61.9296 
 253   0.0000       2.300357        62.5959 
 254   0.0000       2.310560        62.8735 
 255   0.0000       2.311115        62.8886 
 256   0.0000       2.321566        63.1730 
 257   0.0000       2.327827        63.3434 
 258   0.0000       2.337651        63.6107 
 259   0.0000       2.372871        64.5691 
 260   0.0000       2.386252        64.9332 
 261   0.0000       2.404965        65.4424 
 262   0.0000       2.420376        65.8618 
 263   0.0000       2.443530        66.4918 
 264   0.0000       2.486640        67.6649 
 265   0.0000       2.510106        68.3035 
 266   0.0000       2.518628        68.5353 
 267   0.0000       2.543643        69.2161 
 268   0.0000       2.564738        69.7901 
 269   0.0000       2.586948        70.3944 
 270   0.0000       2.598564        70.7105 
 271   0.0000       2.606641        70.9303 
 272   0.0000       2.626916        71.4820 
 273   0.0000       2.644663        71.9650 
 274   0.0000       2.652899        72.1890 
 275   0.0000       2.668950        72.6258 
 276   0.0000       2.730087        74.2895 
 277   0.0000       2.734309        74.4043 
 278   0.0000       2.748552        74.7919 
 279   0.0000       2.756885        75.0187 
 280   0.0000       2.773562        75.4724 
 281   0.0000       2.786320        75.8196 
 282   0.0000       2.801971        76.2455 
 283   0.0000       2.899946        78.9115 
 284   0.0000       2.926728        79.6403 
 285   0.0000       2.976615        80.9978 
 286   0.0000       3.020112        82.1814 
 287   0.0000       3.031802        82.4995 
 288   0.0000       3.079243        83.7905 
 289   0.0000       3.176855        86.4466 
 290   0.0000       3.184622        86.6580 
 291   0.0000       3.416575        92.9697 

                    ********************************
                    * MULLIKEN POPULATION ANALYSIS *
                    ********************************

-----------------------
MULLIKEN ATOMIC CHARGES
-----------------------
   0 C :   -0.564836
   1 H :    0.187868
   2 H :    0.183306
   3 H :    0.200761
   4 C :    0.537930
   5 N :   -0.384611
   6 C :   -0.068297
   7 H :    0.168562
   8 C :    0.153681
   9 C :   -0.184941
  10 C :   -0.206075
  11 C :   -0.153406
  12 H :    0.165300
  13 C :   -0.145723
  14 H :    0.148477
  15 C :   -0.145875
  16 H :    0.147702
  17 H :    0.148800
  18 H :    0.147885
  19 C :   -0.256510
  20 H :    0.187952
  21 H :    0.208623
  22 C :    0.518473
  23 N :   -0.359270
  24 O :   -0.538560
  25 O :   -0.524379
  26 C :   -0.335503
  27 H :    0.175193
  28 H :    0.173890
  29 H :    0.189412
  30 C :   -0.331996
  31 H :    0.171728
  32 H :    0.171404
  33 H :    0.187631
  34 C :   -0.463148
  35 H :    0.154718
  36 H :    0.153322
  37 H :    0.180514
Sum of atomic charges:    0.0000000

--------------------------------
MULLIKEN REDUCED ORBITAL CHARGES
--------------------------------
  0 C s       :     3.324184  s :     3.324184
      pz      :     1.110135  p :     3.208634
      px      :     0.984297
      py      :     1.114201
      dz2     :     0.004730  d :     0.032018
      dxz     :     0.006708
      dyz     :     0.008023
      dx2y2   :     0.009112
      dxy     :     0.003445
  1 H s       :     0.812132  s :     0.812132
  2 H s       :     0.816694  s :     0.816694
  3 H s       :     0.799239  s :     0.799239
  4 C s       :     2.988504  s :     2.988504
      pz      :     0.762171  p :     2.365451
      px      :     0.825689
      py      :     0.777590
      dz2     :     0.034178  d :     0.108115
      dxz     :     0.024073
      dyz     :     0.018951
      dx2y2   :     0.017966
      dxy     :     0.012946
  5 N s       :     3.542331  s :     3.542331
      pz      :     1.187624  p :     3.806989
      px      :     1.142953
      py      :     1.476412
      dz2     :     0.007577  d :     0.035290
      dxz     :     0.009827
      dyz     :     0.006015
      dx2y2   :     0.005668
      dxy     :     0.006202
  6 C s       :     3.208969  s :     3.208969
      pz      :     1.020290  p :     2.800227
      px      :     0.792025
      py      :     0.987912
      dz2     :     0.015001  d :     0.059102
      dxz     :     0.008013
      dyz     :     0.005709
      dx2y2   :     0.015830
      dxy     :     0.014549
  7 H s       :     0.831438  s :     0.831438
  8 C s       :     3.139246  s :     3.139246
[...]
    107      -0.015732   0.000104  -0.000617   0.000568  -0.000763   0.000876
    108      -0.023206   0.000022  -0.000325   0.000117  -0.002425   0.001370
    109       0.021369  -0.000010  -0.000023   0.000088   0.002685  -0.000904
    110      -0.009832   0.000001  -0.000098  -0.000010  -0.001217   0.000706
    111      -0.027343   0.000140  -0.000948   0.000465  -0.001123   0.002327
    112      -0.032440   0.000169  -0.001112   0.000525  -0.001570   0.003391
    113      -0.130860   0.000636  -0.004779   0.001911  -0.005570   0.012726


-----------
IR SPECTRUM
-----------

 Mode   freq       eps      Int      T**2         TX        TY        TZ
       cm**-1   L/(mol*cm) km/mol    a.u.
----------------------------------------------------------------------------
  6:     25.69   0.000629    3.18  0.007641  (-0.016236 -0.044995 -0.073165)
  7:     38.78   0.000014    0.07  0.000110  ( 0.007864 -0.001164 -0.006853)
  8:     47.11   0.000259    1.31  0.001715  ( 0.027742 -0.014649 -0.027035)
  9:     67.37   0.000682    3.45  0.003161  ( 0.019155  0.040195 -0.034326)
 10:     84.24   0.000317    1.60  0.001175  ( 0.018007  0.004129 -0.028868)
 11:     90.87   0.000237    1.20  0.000814  ( 0.003113 -0.027480  0.007000)
 12:    101.58   0.001726    8.72  0.005302  (-0.002201 -0.072527 -0.006058)
 13:    127.98   0.000873    4.41  0.002129  (-0.025730  0.032149 -0.020821)
 14:    153.66   0.001364    6.89  0.002770  (-0.021560  0.047737  0.005152)
 15:    170.37   0.000151    0.76  0.000276  (-0.009177 -0.011089  0.008288)
 16:    186.78   0.000155    0.78  0.000258  (-0.007804 -0.006909  0.012236)
 17:    193.01   0.001019    5.15  0.001648  (-0.028252  0.025473  0.014171)
 18:    215.55   0.000032    0.16  0.000047  ( 0.004003  0.005199  0.001956)
 19:    229.02   0.001229    6.21  0.001674  ( 0.018444 -0.015369 -0.033134)
 20:    242.33   0.001575    7.96  0.002028  (-0.008196 -0.037914 -0.022876)
 21:    250.02   0.000136    0.69  0.000170  ( 0.005357 -0.000193 -0.011874)
 22:    279.31   0.000656    3.32  0.000733  ( 0.011484  0.001314 -0.024481)
 23:    300.96   0.000782    3.95  0.000811  (-0.001341  0.020887 -0.019316)
 24:    328.82   0.000208    1.05  0.000197  ( 0.002737 -0.009970 -0.009497)
 25:    335.97   0.000652    3.30  0.000606  (-0.012529  0.017523 -0.011907)
 26:    403.89   0.002055   10.39  0.001588  (-0.007682 -0.028422  0.026857)
 27:    418.65   0.000092    0.47  0.000069  (-0.007700  0.002996 -0.000575)
 28:    431.26   0.001844    9.32  0.001334  ( 0.006588  0.035481 -0.005630)
 29:    450.08   0.001776    8.97  0.001231  ( 0.026776  0.008308 -0.021103)
 30:    507.70   0.003249   16.42  0.001997  ( 0.033908 -0.016244 -0.024156)
 31:    558.05   0.004620   23.35  0.002583  ( 0.028898  0.024129 -0.034148)
 32:    582.68   0.006790   34.32  0.003637  ( 0.036479  0.037151  0.030427)
 33:    586.11   0.001125    5.68  0.000599  (-0.021698  0.011200 -0.001585)
 34:    612.24   0.002504   12.66  0.001277  ( 0.007946 -0.031079  0.015732)
 35:    633.11   0.000523    2.64  0.000258  (-0.007721  0.014019  0.001252)
 36:    648.59   0.005590   28.25  0.002689  (-0.018561  0.048377 -0.002155)
 37:    702.22   0.000430    2.17  0.000191  (-0.008336 -0.000761 -0.011006)
 38:    720.37   0.012136   61.33  0.005257  ( 0.055220  0.046691 -0.005281)
 39:    745.25   0.001247    6.30  0.000522  ( 0.004252 -0.022315  0.002492)
 40:    773.51   0.005370   27.14  0.002166  (-0.011417  0.044380 -0.008147)
 41:    787.84   0.003857   19.49  0.001528  ( 0.037439  0.011218  0.000409)
 42:    814.98   0.000534    2.70  0.000204  (-0.013846  0.000548 -0.003529)
 43:    871.50   0.000025    0.12  0.000009  (-0.002137 -0.001725 -0.001133)
 44:    920.76   0.000283    1.43  0.000096  ( 0.009502  0.002070  0.001217)
 45:    940.33   0.001619    8.18  0.000537  (-0.020116 -0.011488 -0.000816)
 46:    985.75   0.000159    0.80  0.000050  ( 0.006870  0.001452  0.001038)
 47:    999.12   0.004803   24.27  0.001500  ( 0.023880 -0.030039 -0.005255)
 48:   1005.33   0.008640   43.66  0.002682  (-0.003748 -0.025169  0.045104)
 49:   1009.95   0.001156    5.84  0.000357  (-0.010403 -0.010911 -0.011397)
 50:   1013.97   0.001040    5.26  0.000320  (-0.001077 -0.017575  0.003164)
 51:   1020.23   0.002127   10.75  0.000651  ( 0.003773 -0.024741  0.004919)
 52:   1054.50   0.003100   15.66  0.000917  ( 0.028876  0.001982  0.008921)
 53:   1060.39   0.003015   15.24  0.000887  ( 0.004486 -0.027340  0.010942)
 54:   1067.47   0.000994    5.02  0.000291  ( 0.007208  0.000590  0.015438)
 55:   1088.47   0.001723    8.71  0.000494  ( 0.021933  0.003501 -0.000785)
 56:   1092.70   0.000755    3.82  0.000216  ( 0.002513 -0.003256  0.014098)
 57:   1118.00   0.002313   11.69  0.000646  (-0.008514  0.014820  0.018803)
 58:   1135.33   0.001554    7.85  0.000427  (-0.017832  0.004038 -0.009628)
 59:   1138.33   0.008868   44.81  0.002431  ( 0.047878  0.011316  0.003262)
 60:   1175.33   0.001561    7.89  0.000414  ( 0.017255 -0.010569  0.002211)
 61:   1183.52   0.000301    1.52  0.000079  ( 0.007846 -0.002301  0.003527)
 62:   1195.95   0.017339   87.62  0.004524  (-0.029358  0.048220 -0.036567)
 63:   1203.48   0.013849   69.99  0.003591  ( 0.055081  0.014503 -0.018622)
 64:   1207.89   0.000123    0.62  0.000032  ( 0.003129 -0.004057  0.002350)
 65:   1239.54   0.001653    8.35  0.000416  ( 0.009184 -0.007775  0.016470)
 66:   1291.87   0.009856   49.81  0.002381  (-0.009700 -0.047077  0.008394)
 67:   1297.90   0.007683   38.82  0.001847  (-0.042269 -0.003149  0.007112)
 68:   1323.06   0.013857   70.03  0.003268  ( 0.033577 -0.032758 -0.032679)
 69:   1337.88   0.042689  215.73  0.009957  ( 0.022730 -0.035369 -0.090497)
 70:   1363.73   0.000825    4.17  0.000189  ( 0.010602 -0.007290  0.004823)
 71:   1383.98   0.003529   17.83  0.000796  (-0.024435  0.006548  0.012482)
 72:   1400.42   0.006587   33.29  0.001468  ( 0.029165 -0.019383 -0.015539)
 73:   1415.18   0.008909   45.02  0.001965  (-0.032305  0.011304  0.028163)
 74:   1421.99   0.005143   25.99  0.001129  (-0.031418 -0.005776  0.010403)
 75:   1441.49   0.018456   93.27  0.003996  (-0.020145  0.051679 -0.030315)
 76:   1458.32   0.013158   66.49  0.002816  ( 0.012519  0.037601 -0.035286)
 77:   1478.10   0.009205   46.52  0.001943  ( 0.005438  0.029160  0.032613)
 78:   1486.49   0.006050   30.58  0.001270  ( 0.013427 -0.023015 -0.023668)
 79:   1493.88   0.001546    7.81  0.000323  (-0.017177 -0.005022 -0.001616)
 80:   1500.03   0.000979    4.95  0.000204  (-0.008612  0.002761  0.011039)
 81:   1501.59   0.003383   17.10  0.000703  ( 0.006054  0.015355  0.020752)
 82:   1504.63   0.003848   19.45  0.000798  (-0.017821 -0.007948  0.020431)
 83:   1508.10   0.004410   22.29  0.000913  (-0.013415  0.026534 -0.005346)
 84:   1515.33   0.003310   16.73  0.000682  (-0.021434 -0.009878 -0.011170)
 85:   1516.70   0.003036   15.34  0.000625  (-0.003825 -0.021352 -0.012412)
 86:   1520.37   0.000349    1.76  0.000072  (-0.002205  0.000326  0.008160)
 87:   1528.99   0.014517   73.36  0.002963  (-0.036339  0.007716  0.039785)
 88:   1541.37   0.004794   24.23  0.000971  ( 0.025320 -0.017023  0.006308)
 89:   1553.16   0.014385   72.70  0.002890  ( 0.012306  0.044873 -0.026931)
 90:   1639.67   0.000707    3.57  0.000134  ( 0.004991  0.004007  0.009669)
 91:   1659.99   0.000843    4.26  0.000158  ( 0.011097 -0.004120  0.004280)
 92:   1713.13   0.122411  618.61  0.022298  (-0.091545 -0.038904 -0.111375)
 93:   1717.61   0.080505  406.84  0.014627  (-0.090822  0.073642 -0.030899)
 94:   3043.94   0.010411   52.61  0.001067  ( 0.014875  0.027165 -0.010397)
 95:   3056.25   0.011237   56.79  0.001147  ( 0.019946 -0.017836  0.020771)
 96:   3057.78   0.006352   32.10  0.000648  ( 0.003639  0.023114 -0.010038)
 97:   3066.68   0.003190   16.12  0.000325  (-0.012243  0.000489 -0.013208)
 98:   3070.44   0.000624    3.15  0.000063  ( 0.006684  0.000081 -0.004330)
 99:   3085.69   0.008043   40.65  0.000813  ( 0.009246 -0.006003  0.026304)
100:   3098.09   0.009417   47.59  0.000949  (-0.000845 -0.017491 -0.025337)
101:   3114.23   0.005906   29.85  0.000592  ( 0.003509  0.023133  0.006660)
102:   3116.41   0.000787    3.98  0.000079  ( 0.005160 -0.007148  0.001024)
103:   3118.60   0.009737   49.21  0.000974  (-0.028689  0.011730  0.003701)
104:   3140.84   0.002160   10.92  0.000215  ( 0.006062 -0.013096  0.002525)
105:   3168.36   0.002161   10.92  0.000213  (-0.003294 -0.006606 -0.012584)
106:   3178.00   0.002121   10.72  0.000208  (-0.006194  0.004861 -0.012093)
107:   3184.83   0.002633   13.31  0.000258  (-0.002554 -0.000643 -0.015846)
108:   3186.08   0.000750    3.79  0.000073  ( 0.005567 -0.006228  0.001906)
109:   3192.29   0.000905    4.57  0.000088  ( 0.009268 -0.001609 -0.000090)
110:   3195.71   0.009128   46.13  0.000891  (-0.002078 -0.002495 -0.029678)
111:   3199.86   0.001673    8.45  0.000163  (-0.002486 -0.002996  0.012166)
112:   3208.26   0.006171   31.19  0.000600  (-0.017395  0.017253  0.000137)
113:   3232.72   0.001739    8.79  0.000168  (-0.010742  0.005456 -0.004766)

* The epsilon (eps) is given for a Dirac delta lineshape.
** The dipole moment derivative (T) already includes vibrational overlap.

The first frequency considered to be a vibration is 6
The total number of vibrations considered is 108


--------------------------
THERMOCHEMISTRY AT 298.15K
--------------------------

Temperature         ... 298.15 K
Pressure            ... 1.00 atm
Total Mass          ... 248.33 AMU

Throughout the following assumptions are being made:
  (1) The electronic state is orbitally nondegenerate
  (2) There are no thermally accessible electronically excited states
  (3) Hindered rotations indicated by low frequency modes are not
      treated as such but are treated as vibrations and this may
      cause some error
  (4) All equations used are the standard statistical mechanics
      equations for an ideal gas
  (5) All vibrations are strictly harmonic

freq.      25.69  E(vib)   ...       0.56 
freq.      38.78  E(vib)   ...       0.54 
freq.      47.11  E(vib)   ...       0.53 
freq.      67.37  E(vib)   ...       0.50 
freq.      84.24  E(vib)   ...       0.48 
freq.      90.87  E(vib)   ...       0.47 
freq.     101.58  E(vib)   ...       0.46 
freq.     127.98  E(vib)   ...       0.43 
freq.     153.66  E(vib)   ...       0.40 
freq.     170.37  E(vib)   ...       0.38 
freq.     186.78  E(vib)   ...       0.37 
freq.     193.01  E(vib)   ...       0.36 
freq.     215.55  E(vib)   ...       0.34 
freq.     229.02  E(vib)   ...       0.32 
freq.     242.33  E(vib)   ...       0.31 
freq.     250.02  E(vib)   ...       0.31 
freq.     279.31  E(vib)   ...       0.28 
freq.     300.96  E(vib)   ...       0.26 
freq.     328.82  E(vib)   ...       0.24 
freq.     335.97  E(vib)   ...       0.24 
freq.     403.89  E(vib)   ...       0.19 
freq.     418.65  E(vib)   ...       0.18 
freq.     431.26  E(vib)   ...       0.18 
freq.     450.08  E(vib)   ...       0.17 
freq.     507.70  E(vib)   ...       0.14 
freq.     558.05  E(vib)   ...       0.12 
freq.     582.68  E(vib)   ...       0.11 
freq.     586.11  E(vib)   ...       0.11 
freq.     612.24  E(vib)   ...       0.10 
freq.     633.11  E(vib)   ...       0.09 
freq.     648.59  E(vib)   ...       0.08 
freq.     702.22  E(vib)   ...       0.07 
freq.     720.37  E(vib)   ...       0.07 
freq.     745.25  E(vib)   ...       0.06 
freq.     773.51  E(vib)   ...       0.05 
freq.     787.84  E(vib)   ...       0.05 
freq.     814.98  E(vib)   ...       0.05 
freq.     871.50  E(vib)   ...       0.04 
freq.     920.76  E(vib)   ...       0.03 
freq.     940.33  E(vib)   ...       0.03 
freq.     985.75  E(vib)   ...       0.02 
freq.     999.12  E(vib)   ...       0.02 
freq.    1005.33  E(vib)   ...       0.02 
freq.    1009.95  E(vib)   ...       0.02 
freq.    1013.97  E(vib)   ...       0.02 
freq.    1020.23  E(vib)   ...       0.02 
freq.    1054.50  E(vib)   ...       0.02 
freq.    1060.39  E(vib)   ...       0.02 
freq.    1067.47  E(vib)   ...       0.02 
freq.    1088.47  E(vib)   ...       0.02 
freq.    1092.70  E(vib)   ...       0.02 
freq.    1118.00  E(vib)   ...       0.01 
freq.    1135.33  E(vib)   ...       0.01 
freq.    1138.33  E(vib)   ...       0.01 
freq.    1175.33  E(vib)   ...       0.01 
freq.    1183.52  E(vib)   ...       0.01 
freq.    1195.95  E(vib)   ...       0.01 
freq.    1203.48  E(vib)   ...       0.01 
freq.    1207.89  E(vib)   ...       0.01 
freq.    1239.54  E(vib)   ...       0.01 
freq.    1291.87  E(vib)   ...       0.01 
freq.    1297.90  E(vib)   ...       0.01 
freq.    1323.06  E(vib)   ...       0.01 
freq.    1337.88  E(vib)   ...       0.01 
freq.    1363.73  E(vib)   ...       0.01 
freq.    1383.98  E(vib)   ...       0.00 
freq.    1400.42  E(vib)   ...       0.00 
freq.    1415.18  E(vib)   ...       0.00 
freq.    1421.99  E(vib)   ...       0.00 
freq.    1441.49  E(vib)   ...       0.00 
freq.    1458.32  E(vib)   ...       0.00 
freq.    1478.10  E(vib)   ...       0.00 
freq.    1486.49  E(vib)   ...       0.00 
freq.    1493.88  E(vib)   ...       0.00 
freq.    1500.03  E(vib)   ...       0.00 
freq.    1501.59  E(vib)   ...       0.00 
freq.    1504.63  E(vib)   ...       0.00 
freq.    1508.10  E(vib)   ...       0.00 
freq.    1515.33  E(vib)   ...       0.00 
freq.    1516.70  E(vib)   ...       0.00 
freq.    1520.37  E(vib)   ...       0.00 
freq.    1528.99  E(vib)   ...       0.00 
freq.    1541.37  E(vib)   ...       0.00 
freq.    1553.16  E(vib)   ...       0.00 
freq.    1639.67  E(vib)   ...       0.00 
freq.    1659.99  E(vib)   ...       0.00 
freq.    1713.13  E(vib)   ...       0.00 
freq.    1717.61  E(vib)   ...       0.00 
freq.    3043.94  E(vib)   ...       0.00 
freq.    3056.25  E(vib)   ...       0.00 
freq.    3057.78  E(vib)   ...       0.00 
freq.    3066.68  E(vib)   ...       0.00 
freq.    3070.44  E(vib)   ...       0.00 
freq.    3085.69  E(vib)   ...       0.00 
freq.    3098.09  E(vib)   ...       0.00 
freq.    3114.23  E(vib)   ...       0.00 
freq.    3116.41  E(vib)   ...       0.00 
freq.    3118.60  E(vib)   ...       0.00 
freq.    3140.84  E(vib)   ...       0.00 
freq.    3168.36  E(vib)   ...       0.00 
freq.    3178.00  E(vib)   ...       0.00 
freq.    3184.83  E(vib)   ...       0.00 
freq.    3186.08  E(vib)   ...       0.00 
freq.    3192.29  E(vib)   ...       0.00 
freq.    3195.71  E(vib)   ...       0.00 
freq.    3199.86  E(vib)   ...       0.00 
freq.    3208.26  E(vib)   ...       0.00 
freq.    3232.72  E(vib)   ...       0.00 

------------
INNER ENERGY
------------

The inner energy is: U= E(el) + E(ZPE) + E(vib) + E(rot) + E(trans)
    E(el)   - is the total energy from the electronic structure calculation
              = E(kin-el) + E(nuc-el) + E(el-el) + E(nuc-nuc)
    E(ZPE)  - the the zero temperature vibrational energy from the frequency calculation
    E(vib)  - the the finite temperature correction to E(ZPE) due to population
              of excited vibrational states
    E(rot)  - is the rotational thermal energy
    E(trans)- is the translational thermal energy

Summary of contributions to the inner energy U:
Electronic energy                ...   -805.07943132 Eh
Zero point energy                ...      0.32533106 Eh     204.15 kcal/mol
Thermal vibrational correction   ...      0.01609124 Eh      10.10 kcal/mol
Thermal rotational correction    ...      0.00141627 Eh       0.89 kcal/mol
Thermal translational correction ...      0.00141627 Eh       0.89 kcal/mol
-----------------------------------------------------------------------
Total thermal energy                   -804.73517648 Eh


Summary of corrections to the electronic energy:
(perhaps to be used in another calculation)
Total thermal correction                  0.01892378 Eh      11.87 kcal/mol
Non-thermal (ZPE) correction              0.32533106 Eh     204.15 kcal/mol
-----------------------------------------------------------------------
Total correction                          0.34425484 Eh     216.02 kcal/mol


--------
ENTHALPY
--------

The enthalpy is H = U + kB*T
                kB is Boltzmann's constant
Total free energy                 ...   -804.73517648 Eh 
Thermal Enthalpy correction       ...      0.00094421 Eh       0.59 kcal/mol
-----------------------------------------------------------------------
Total Enthalpy                    ...   -804.73423227 Eh


Note: Only C1 symmetry has been detected, increase convergence thresholds 
      if your molecule has a higher symmetry. Symmetry factor of 1.0 is   
      used for the rotational entropy correction. 
 

Note: Rotational entropy computed according to Herzberg 
Infrared and Raman Spectra, Chapter V,1, Van Nostrand Reinhold, 1945 
Point Group:  C1, Symmetry Number:   1  
Rotational constants in cm-1:     0.020290     0.010627     0.008784 

Vibrational entropy computed according to the QRRHO of S. Grimme
Chem.Eur.J. 2012 18 9955


-------
ENTROPY
-------

The entropy contributions are T*S = T*(S(el)+S(vib)+S(rot)+S(trans))
     S(el)   - electronic entropy
     S(vib)  - vibrational entropy
     S(rot)  - rotational entropy
     S(trans)- translational entropy
The entropies will be listed as multiplied by the temperature to get
units of energy

Electronic entropy                ...      0.00000000 Eh      0.00 kcal/mol
Vibrational entropy               ...      0.02871261 Eh     18.02 kcal/mol
Rotational entropy                ...      0.01573147 Eh      9.87 kcal/mol
Translational entropy             ...      0.02015944 Eh     12.65 kcal/mol
-----------------------------------------------------------------------
Final entropy term                ...      0.06460352 Eh     40.54 kcal/mol

In case the symmetry of your molecule has not been determined correctly
or in case you have a reason to use a different symmetry number we print 
out the resulting rotational entropy values for sn=1,12 :
 --------------------------------------------------------
|  sn= 1 | S(rot)=       0.01573147 Eh      9.87 kcal/mol|
|  sn= 2 | S(rot)=       0.01507702 Eh      9.46 kcal/mol|
|  sn= 3 | S(rot)=       0.01469418 Eh      9.22 kcal/mol|
|  sn= 4 | S(rot)=       0.01442256 Eh      9.05 kcal/mol|
|  sn= 5 | S(rot)=       0.01421187 Eh      8.92 kcal/mol|
|  sn= 6 | S(rot)=       0.01403973 Eh      8.81 kcal/mol|
|  sn= 7 | S(rot)=       0.01389418 Eh      8.72 kcal/mol|
|  sn= 8 | S(rot)=       0.01376810 Eh      8.64 kcal/mol|
|  sn= 9 | S(rot)=       0.01365690 Eh      8.57 kcal/mol|
|  sn=10 | S(rot)=       0.01355742 Eh      8.51 kcal/mol|
|  sn=11 | S(rot)=       0.01346743 Eh      8.45 kcal/mol|
|  sn=12 | S(rot)=       0.01338527 Eh      8.40 kcal/mol|
 --------------------------------------------------------


-------------------
GIBBS FREE ENERGY
-------------------

The Gibbs free energy is G = H - T*S

Total enthalpy                    ...   -804.73423227 Eh 
Total entropy correction          ...     -0.06460352 Eh    -40.54 kcal/mol
-----------------------------------------------------------------------
Final Gibbs free energy         ...   -804.79883580 Eh

For completeness - the Gibbs free energy minus the electronic energy
G-E(el)                           ...      0.28059553 Eh    176.08 kcal/mol


Timings for individual modules:

Sum of individual times         ...     2797.254 sec (=  46.621 min)
GTO integral calculation        ...       25.542 sec (=   0.426 min)   0.9 %
SCF iterations                  ...     1326.180 sec (=  22.103 min)  47.4 %
SCF Gradient evaluation         ...      408.577 sec (=   6.810 min)  14.6 %
Geometry relaxation             ...        1.705 sec (=   0.028 min)   0.1 %
Analytical frequency calculation...     1035.249 sec (=  17.254 min)  37.0 %
                             ****ORCA TERMINATED NORMALLY****
TOTAL RUN TIME: 0 days 0 hours 46 minutes 44 seconds 429 msec
