
                                 *****************
                                 * O   R   C   A *
                                 *****************

                                            #,                                       
                                            ###                                      
                                            ####                                     
                                            #####                                    
                                            ######                                   
                                           ########,                                 
                                     ,,################,,,,,                         
                               ,,#################################,,                 
                          ,,##########################################,,             
                       ,#########################################, ''#####,          
                    ,#############################################,,   '####,        
                  ,##################################################,,,,####,       
                ,###########''''           ''''###############################       
              ,#####''   ,,,,##########,,,,          '''####'''          '####       
            ,##' ,,,,###########################,,,                        '##       
           ' ,,###''''                  '''############,,,                           
         ,,##''                                '''############,,,,        ,,,,,,###''
      ,#''                                            '''#######################'''  
     '                                                          ''''####''''         
             ,#######,   #######,   ,#######,      ##                                
            ,#'     '#,  ##    ##  ,#'     '#,    #''#        ######   ,####,        
            ##       ##  ##   ,#'  ##            #'  '#       #        #'  '#        
            ##       ##  #######   ##           ,######,      #####,   #    #        
            '#,     ,#'  ##    ##  '#,     ,#' ,#      #,         ##   #,  ,#        
             '#######'   ##     ##  '#######'  #'      '#     #####' # '####'        



                  #######################################################
                  #                        -***-                        #
                  #          Department of theory and spectroscopy      #
                  #    Directorship and core code : Frank Neese         #
                  #        Max Planck Institute fuer Kohlenforschung    #
                  #                Kaiser Wilhelm Platz 1               #
                  #                 D-45470 Muelheim/Ruhr               #
                  #                      Germany                        #
                  #                                                     #
                  #                  All rights reserved                #
                  #                        -***-                        #
                  #######################################################


                         Program Version 5.0.4 -  RELEASE  -


 With contributions from (in alphabetic order):
   Daniel Aravena         : Magnetic Suceptibility
   Michael Atanasov       : Ab Initio Ligand Field Theory (pilot matlab implementation)
   Alexander A. Auer      : GIAO ZORA, VPT2 properties, NMR spectrum
   Ute Becker             : Parallelization
   Giovanni Bistoni       : ED, misc. LED, open-shell LED, HFLD
   Martin Brehm           : Molecular dynamics
   Dmytro Bykov           : SCF Hessian
   Vijay G. Chilkuri      : MRCI spin determinant printing, contributions to CSF-ICE
   Dipayan Datta          : RHF DLPNO-CCSD density
   Achintya Kumar Dutta   : EOM-CC, STEOM-CC
   Dmitry Ganyushin       : Spin-Orbit,Spin-Spin,Magnetic field MRCI
   Miquel Garcia          : C-PCM and meta-GGA Hessian, CC/C-PCM, Gaussian charge scheme
   Yang Guo               : DLPNO-NEVPT2, F12-NEVPT2, CIM, IAO-localization
   Andreas Hansen         : Spin unrestricted coupled pair/coupled cluster methods
   Benjamin Helmich-Paris : MC-RPA, TRAH-SCF, COSX integrals
   Lee Huntington         : MR-EOM, pCC
   Robert Izsak           : Overlap fitted RIJCOSX, COSX-SCS-MP3, EOM
   Marcus Kettner         : VPT2
   Christian Kollmar      : KDIIS, OOCD, Brueckner-CCSD(T), CCSD density, CASPT2, CASPT2-K
   Simone Kossmann        : Meta GGA functionals, TD-DFT gradient, OOMP2, MP2 Hessian
   Martin Krupicka        : Initial AUTO-CI
   Lucas Lang             : DCDCAS
   Marvin Lechner         : AUTO-CI (C++ implementation), FIC-MRCC
   Dagmar Lenk            : GEPOL surface, SMD
   Dimitrios Liakos       : Extrapolation schemes; Compound Job, initial MDCI parallelization
   Dimitrios Manganas     : Further ROCIS development; embedding schemes
   Dimitrios Pantazis     : SARC Basis sets
   Anastasios Papadopoulos: AUTO-CI, single reference methods and gradients
   Taras Petrenko         : DFT Hessian,TD-DFT gradient, ASA, ECA, R-Raman, ABS, FL, XAS/XES, NRVS
   Peter Pinski           : DLPNO-MP2, DLPNO-MP2 Gradient
   Christoph Reimann      : Effective Core Potentials
   Marius Retegan         : Local ZFS, SOC
   Christoph Riplinger    : Optimizer, TS searches, QM/MM, DLPNO-CCSD(T), (RO)-DLPNO pert. Triples
   Tobias Risthaus        : Range-separated hybrids, TD-DFT gradient, RPA, STAB
   Michael Roemelt        : Original ROCIS implementation
   Masaaki Saitow         : Open-shell DLPNO-CCSD energy and density
   Barbara Sandhoefer     : DKH picture change effects
   Avijit Sen             : IP-ROCIS
   Kantharuban Sivalingam : CASSCF convergence, NEVPT2, FIC-MRCI
   Bernardo de Souza      : ESD, SOC TD-DFT
   Georgi Stoychev        : AutoAux, RI-MP2 NMR, DLPNO-MP2 response
   Willem Van den Heuvel  : Paramagnetic NMR
   Boris Wezisla          : Elementary symmetry handling
   Frank Wennmohs         : Technical directorship


 We gratefully acknowledge several colleagues who have allowed us to
 interface, adapt or use parts of their codes:
   Stefan Grimme, W. Hujo, H. Kruse, P. Pracht,  : VdW corrections, initial TS optimization,
                  C. Bannwarth, S. Ehlert          DFT functionals, gCP, sTDA/sTD-DF
   Ed Valeev, F. Pavosevic, A. Kumar             : LibInt (2-el integral package), F12 methods
   Garnet Chan, S. Sharma, J. Yang, R. Olivares  : DMRG
   Ulf Ekstrom                                   : XCFun DFT Library
   Mihaly Kallay                                 : mrcc  (arbitrary order and MRCC methods)
   Jiri Pittner, Ondrej Demel                    : Mk-CCSD
   Frank Weinhold                                : gennbo (NPA and NBO analysis)
   Christopher J. Cramer and Donald G. Truhlar   : smd solvation model
   Lars Goerigk                                  : TD-DFT with DH, B97 family of functionals
   V. Asgeirsson, H. Jonsson                     : NEB implementation
   FAccTs GmbH                                   : IRC, NEB, NEB-TS, DLPNO-Multilevel, CI-OPT
                                                   MM, QMMM, 2- and 3-layer-ONIOM, Crystal-QMMM,
                                                   LR-CPCM, SF, NACMEs, symmetry and pop. for TD-DFT,
                                                   nearIR, NL-DFT gradient (VV10), updates on ESD,
                                                   ML-optimized integration grids
   S Lehtola, MJT Oliveira, MAL Marques          : LibXC Library
   Liviu Ungur et al                             : ANISO software


 Your calculation uses the libint2 library for the computation of 2-el integrals
 For citations please refer to: http://libint.valeyev.net

 Your ORCA version has been built with support for libXC version: 5.1.0
 For citations please refer to: https://tddft.org/programs/libxc/

 This ORCA versions uses:
   CBLAS   interface :  Fast vector & matrix operations
   LAPACKE interface :  Fast linear algebra routines
   SCALAPACK package :  Parallel linear algebra routines
   Shared memory     :  Shared parallel matrices
   BLAS/LAPACK       :  OpenBLAS 0.3.15  USE64BITINT DYNAMIC_ARCH NO_AFFINITY SkylakeX SINGLE_THREADED
        Core in use  :  SkylakeX
   Copyright (c) 2011-2014, The OpenBLAS Project




***************************************
The coordinates will be read from file: /users/fjb15167/WWenergy/structures/Nfes.xyz
***************************************


Your calculation utilizes the atom-pairwise dispersion correction
based on tight binding partial charges (D4)
Cite in your paper:
E.Caldeweyher, C.Bannwarth, S.Grimme, J.Chem.Phys., (2017), 147, 034112.
E.Caldeweyher, S.Ehlert, A.Hansen, H.Neugebauer, S.Grimme, J.Chem.Phys., (2018), in progress.
   

================================================================================

----- Orbital basis set information -----
Your calculation utilizes the basis: 6-31G(d)
   H-He, Li-Ne : W. J. Hehre, R. Ditchfield and J.A. Pople, J. Chem. Phys. 56, 2257 (1972).
                 Note: He and Ne are unpublished basis sets taken from the Gaussian program.
                 Note: Li and B from J. D. Dill and J. A. Pople, J. Chem. Phys. 62, 2921 (1975).
   Na - Ar     : M. M. Francl, W. J. Pietro, W. J. Hehre, J. S. Binkley, M. S. Gordon, 
                 D. J. DeFrees and J. A. Pople, J. Chem. Phys. 77, 3654 (1982).
   K - Zn      : V. A. Rassolov, J. A. Pople, M. A. Ratner, and T. L. Windus, J. Chem. Phys. 109, 1223 (1998).

----- AuxJ basis set information -----
Your calculation utilizes the AutoAux generation procedure.
  G. L. Stoychev, A. A. Auer, F. Neese, J. Chem. Theory Comput. 13, 554 (2017)

----- AuxC basis set information -----
Your calculation utilizes the AutoAux generation procedure.
  G. L. Stoychev, A. A. Auer, F. Neese, J. Chem. Theory Comput. 13, 554 (2017)

----- AuxJK basis set information -----
Your calculation utilizes the AutoAux generation procedure.
  G. L. Stoychev, A. A. Auer, F. Neese, J. Chem. Theory Comput. 13, 554 (2017)

================================================================================
                                        WARNINGS
                       Please study these warnings very carefully!
================================================================================


WARNING: Geometry Optimization
  ===> : Switching off AutoStart
         For restart on a previous wavefunction, please use MOREAD

INFO   : the flag for use of the SHARK integral package has been found!

================================================================================
                                       INPUT FILE
================================================================================
NAME = Nfes_water.inp
|  1> ! OPT FREQ B3LYP 6-31G(d) D4 AUTOAUX CPCM(water)
|  2> 
|  3> %PAL NPROCS 4 END
|  4> 
|  5> %maxcore 3375
|  6> 
|  7> *xyzfile 0 1 /users/fjb15167/WWenergy/structures/Nfes.xyz
|  8> 
|  9>                          ****END OF INPUT****
================================================================================

                       *****************************
                       * Geometry Optimization Run *
                       *****************************

Geometry optimization settings:
Update method            Update   .... BFGS
Choice of coordinates    CoordSys .... Z-matrix Internals
Initial Hessian          InHess   .... Almoef's Model

Convergence Tolerances:
Energy Change            TolE     ....  5.0000e-06 Eh
Max. Gradient            TolMAXG  ....  3.0000e-04 Eh/bohr
RMS Gradient             TolRMSG  ....  1.0000e-04 Eh/bohr
Max. Displacement        TolMAXD  ....  4.0000e-03 bohr
RMS Displacement         TolRMSD  ....  2.0000e-03 bohr
Strict Convergence                ....  False
------------------------------------------------------------------------------
                        ORCA OPTIMIZATION COORDINATE SETUP
------------------------------------------------------------------------------

The optimization will be done in new redundant internal coordinates
Making redundant internal coordinates   ...  (new redundants) done
Evaluating the initial hessian          ...  (Almloef) done
Evaluating the coordinates              ...  done
Calculating the B-matrix                .... done
Calculating the G-matrix                .... done
Diagonalizing the G-matrix              .... done
Small eigenvalue found = 4.108e-03
Small eigenvalue found = 6.486e-03
Small eigenvalue found = 1.106e-02
Small eigenvalue found = 1.710e-02
Small eigenvalue found = 2.498e-02
The first mode is                       ....   80
The number of degrees of freedom        ....  108

    -----------------------------------------------------------------
                    Redundant Internal Coordinates


    -----------------------------------------------------------------
         Definition                    Initial Value    Approx d2E/dq
    -----------------------------------------------------------------
      1. B(H   1,C   0)                  1.0914         0.358271   
      2. B(H   2,C   0)                  1.0915         0.358170   
      3. B(H   3,C   0)                  1.0928         0.356462   
      4. B(C   4,C   0)                  1.5165         0.392517   
      5. B(N   5,C   4)                  1.3764         0.588206   
      6. B(C   6,N   5)                  1.4864         0.392650   
      7. B(H   7,C   6)                  1.0978         0.349928   
      8. B(C   8,C   6)                  1.5125         0.398449   
      9. B(C   9,C   8)                  1.4043         0.592901   
     10. B(C  10,C   8)                  1.4013         0.599401   
     11. B(C  11,C   9)                  1.3952         0.613040   
     12. B(H  12,C   9)                  1.0862         0.365224   
     13. B(C  13,C  10)                  1.3977         0.607393   
     14. B(H  14,C  10)                  1.0901         0.359907   
     15. B(C  15,C  11)                  1.3986         0.605422   
     16. B(C  15,C  13)                  1.3950         0.613447   
     17. B(H  16,C  11)                  1.0878         0.363088   
     18. B(H  17,C  13)                  1.0880         0.362808   
     19. B(H  18,C  15)                  1.0872         0.363773   
     20. B(C  19,N   5)                  1.4639         0.426560   
     21. B(H  20,C  19)                  1.0960         0.352214   
     22. B(H  21,C  19)                  1.0969         0.351113   
     23. B(C  22,C  19)                  1.5316         0.371370   
     24. B(N  23,C  22)                  1.3640         0.615631   
     25. B(O  24,C  22)                  1.2373         0.980528   
     26. B(O  25,C   4)                  1.2386         0.976004   
     27. B(C  26,N  23)                  1.4544         0.441761   
     28. B(H  27,C  26)                  1.0961         0.352162   
     29. B(H  28,C  26)                  1.0943         0.354444   
     30. B(H  29,C  26)                  1.0865         0.364763   
     31. B(H  29,H  18)                  4.5631         0.000000   
     32. B(C  30,N  23)                  1.4554         0.440005   
     33. B(H  31,C  30)                  1.0953         0.353218   
     34. B(H  32,C  30)                  1.0958         0.352533   
     35. B(H  33,C  30)                  1.0874         0.363538   
     36. B(C  34,C   6)                  1.5285         0.375616   
     37. B(H  35,C  34)                  1.0951         0.353477   
     38. B(H  36,C  34)                  1.0944         0.354352   
     39. B(H  37,C  34)                  1.0867         0.364558   
     40. A(H   2,C   0,H   3)          108.0622         0.290131   
     41. A(H   1,C   0,C   4)          113.7231         0.326694   
     42. A(H   3,C   0,C   4)          110.6705         0.326422   
     43. A(H   1,C   0,H   3)          107.9756         0.290144   
     44. A(H   1,C   0,H   2)          110.1051         0.290362   
     45. A(H   2,C   0,C   4)          106.1766         0.326679   
     46. A(C   0,C   4,N   5)          118.1525         0.393933   
     47. A(C   0,C   4,O  25)          119.9475         0.430964   
     48. A(N   5,C   4,O  25)          121.8979         0.460666   
     49. A(C   4,N   5,C  19)          123.2251         0.397171   
     50. A(C   6,N   5,C  19)          115.0799         0.370231   
     51. A(C   4,N   5,C   6)          121.1344         0.391447   
     52. A(C   8,C   6,C  34)          112.9395         0.367727   
     53. A(N   5,C   6,C  34)          114.0792         0.364518   
     54. A(H   7,C   6,C   8)          106.8845         0.326234   
     55. A(N   5,C   6,C   8)          112.4894         0.368223   
     56. A(H   7,C   6,C  34)          105.7298         0.323086   
     57. A(N   5,C   6,H   7)          103.7596         0.323502   
     58. A(C   9,C   8,C  10)          119.0072         0.427991   
     59. A(C   6,C   8,C  10)          119.7691         0.398827   
     60. A(C   6,C   8,C   9)          121.2236         0.398064   
     61. A(C   8,C   9,C  11)          120.1075         0.429721   
     62. A(C  11,C   9,H  12)          120.8546         0.353079   
     63. A(C   8,C   9,H  12)          119.0211         0.351090   
     64. A(C  13,C  10,H  14)          119.6206         0.351653   
     65. A(C   8,C  10,H  14)          119.5688         0.350867   
     66. A(C   8,C  10,C  13)          120.8096         0.429849   
     67. A(C  15,C  11,H  16)          119.9197         0.351983   
     68. A(C   9,C  11,H  16)          119.5650         0.352728   
     69. A(C   9,C  11,C  15)          120.5147         0.431337   
     70. A(C  15,C  13,H  17)          120.2349         0.352722   
     71. A(C  10,C  13,H  17)          119.9148         0.352131   
     72. A(C  10,C  13,C  15)          119.8502         0.431640   
     73. A(C  13,C  15,H  18)          120.1457         0.352880   
     74. A(C  11,C  15,H  18)          120.1478         0.352095   
     75. A(C  11,C  15,C  13)          119.7064         0.431388   
     76. A(H  21,C  19,C  22)          107.5090         0.322663   
     77. A(H  20,C  19,C  22)          104.9182         0.322829   
     78. A(N   5,C  19,C  22)          117.6340         0.369011   
     79. A(H  20,C  19,H  21)          107.4459         0.288685   
     80. A(N   5,C  19,H  21)          106.7861         0.328123   
     81. A(N   5,C  19,H  20)          112.0949         0.328293   
     82. A(N  23,C  22,O  24)          123.0702         0.464913   
     83. A(C  19,C  22,O  24)          118.5243         0.427058   
     84. A(C  19,C  22,N  23)          118.3788         0.393256   
     85. A(C  26,N  23,C  30)          115.9256         0.379870   
     86. A(C  22,N  23,C  30)          118.5154         0.402560   
     87. A(C  22,N  23,C  26)          125.5135         0.402843   
     88. A(H  28,C  26,H  29)          108.2939         0.290704   
     89. A(H  27,C  26,H  29)          108.3308         0.290409   
     90. A(N  23,C  26,H  29)          111.4682         0.332115   
     91. A(H  27,C  26,H  28)          108.7670         0.289105   
     92. A(N  23,C  26,H  28)          108.0857         0.330542   
     93. A(N  23,C  26,H  27)          111.8043         0.330189   
     94. A(H  32,C  30,H  33)          110.0738         0.290304   
     95. A(H  31,C  30,H  33)          109.4555         0.290392   
     96. A(N  23,C  30,H  33)          108.4912         0.331711   
     97. A(H  31,C  30,H  32)          108.6489         0.288996   
     98. A(N  23,C  30,H  32)          109.8642         0.330029   
     99. A(N  23,C  30,H  31)          110.3009         0.330135   
    100. A(H  35,C  34,H  36)          108.5622         0.289262   
    101. A(C   6,C  34,H  36)          110.1689         0.323753   
    102. A(C   6,C  34,H  35)          107.8481         0.323621   
    103. A(H  36,C  34,H  37)          108.8059         0.290666   
    104. A(H  35,C  34,H  37)          109.2652         0.290554   
    105. A(C   6,C  34,H  37)          112.1227         0.325266   
    106. D(O  25,C   4,C   0,H   3)    -92.7921         0.011455   
    107. D(N   5,C   4,C   0,H   2)   -155.2565         0.011455   
    108. D(N   5,C   4,C   0,H   1)    -34.0298         0.011455   
    109. D(O  25,C   4,C   0,H   2)     24.2398         0.011455   
    110. D(N   5,C   4,C   0,H   3)     87.7116         0.011455   
    111. D(O  25,C   4,C   0,H   1)    145.4665         0.011455   
    112. D(C   6,N   5,C   4,C   0)    161.3010         0.027802   
    113. D(C  19,N   5,C   4,O  25)    170.8283         0.027802   
    114. D(C   6,N   5,C   4,O  25)    -18.1850         0.027802   
    115. D(C  19,N   5,C   4,C   0)     -9.6858         0.027802   
    116. D(C   8,C   6,N   5,C   4)     92.4532         0.013175   
    117. D(C   8,C   6,N   5,C  19)    -95.8663         0.013175   
    118. D(C  34,C   6,N   5,C   4)    -37.8668         0.013175   
    119. D(C  34,C   6,N   5,C  19)    133.8137         0.013175   
    120. D(H   7,C   6,N   5,C  19)     19.2852         0.013175   
    121. D(H   7,C   6,N   5,C   4)   -152.3952         0.013175   
    122. D(C  10,C   8,C   6,C  34)   -116.3146         0.011786   
    123. D(C  10,C   8,C   6,H   7)     -0.4590         0.011786   
    124. D(C   9,C   8,C   6,C  34)     63.5922         0.011786   
    125. D(C  10,C   8,C   6,N   5)    112.7871         0.011786   
    126. D(C   9,C   8,C   6,H   7)    179.4478         0.011786   
    127. D(C   9,C   8,C   6,N   5)    -67.3061         0.011786   
    128. D(H  12,C   9,C   8,C   6)      0.7724         0.024203   
    129. D(C  11,C   9,C   8,C  10)     -0.7943         0.024203   
    130. D(H  12,C   9,C   8,C  10)   -179.3201         0.024203   
    131. D(C  11,C   9,C   8,C   6)    179.2982         0.024203   
    132. D(H  14,C  10,C   8,C   9)   -178.9911         0.024765   
    133. D(C  13,C  10,C   8,C   9)      0.6373         0.024765   
    134. D(C  13,C  10,C   8,C   6)   -179.4538         0.024765   
    135. D(H  14,C  10,C   8,C   6)      0.9178         0.024765   
    136. D(C  15,C  11,C   9,C   8)      0.4703         0.025971   
    137. D(H  16,C  11,C   9,H  12)     -1.3204         0.025971   
    138. D(H  16,C  11,C   9,C   8)   -179.8187         0.025971   
    139. D(C  15,C  11,C   9,H  12)    178.9686         0.025971   
    140. D(H  17,C  13,C  10,H  14)     -0.4546         0.025467   
    141. D(C  15,C  13,C  10,H  14)    179.4794         0.025467   
    142. D(C  15,C  13,C  10,C   8)     -0.1488         0.025467   
    143. D(H  17,C  13,C  10,C   8)    179.9172         0.025467   
    144. D(H  18,C  15,C  13,H  17)     -0.1745         0.026007   
    145. D(H  18,C  15,C  13,C  10)    179.8917         0.026007   
    146. D(C  11,C  15,C  13,H  17)    179.7463         0.026007   
    147. D(C  11,C  15,C  13,C  10)     -0.1875         0.026007   
    148. D(H  18,C  15,C  11,H  16)      0.2373         0.025293   
    149. D(C  13,C  15,C  11,H  16)   -179.6836         0.025293   
    150. D(C  13,C  15,C  11,C   9)      0.0264         0.025293   
    151. D(H  18,C  15,C  11,C   9)    179.9472         0.025293   
    152. D(C  22,C  19,N   5,C   6)    148.2300         0.015513   
    153. D(C  22,C  19,N   5,C   4)    -40.2843         0.015513   
    154. D(H  21,C  19,N   5,C   6)     27.3904         0.015513   
    155. D(H  21,C  19,N   5,C   4)   -161.1239         0.015513   
    156. D(H  20,C  19,N   5,C   6)    -90.0242         0.015513   
    157. D(H  20,C  19,N   5,C   4)     81.4616         0.015513   
    158. D(O  24,C  22,C  19,H  21)   -111.4985         0.010322   
    159. D(O  24,C  22,C  19,H  20)      2.6676         0.010322   
    160. D(O  24,C  22,C  19,N   5)    128.0383         0.010322   
    161. D(N  23,C  22,C  19,H  21)     66.6819         0.010322   
    162. D(N  23,C  22,C  19,H  20)   -179.1520         0.010322   
    163. D(N  23,C  22,C  19,N   5)    -53.7813         0.010322   
    164. D(C  30,N  23,C  22,O  24)     -6.6583         0.030656   
    165. D(C  30,N  23,C  22,C  19)    175.2495         0.030656   
    166. D(C  26,N  23,C  22,O  24)    175.9035         0.030656   
    167. D(C  26,N  23,C  22,C  19)     -2.1888         0.030656   
    168. D(H  27,C  26,N  23,C  22)     97.4026         0.016642   
    169. D(H  29,C  26,N  23,C  30)    158.4845         0.016642   
    170. D(H  29,C  26,N  23,C  22)    -24.0184         0.016642   
    171. D(H  28,C  26,N  23,C  30)     39.5864         0.016642   
    172. D(H  28,C  26,N  23,C  22)   -142.9165         0.016642   
    173. D(H  27,C  26,N  23,C  30)    -80.0946         0.016642   
    174. D(H  33,C  30,N  23,C  26)    175.5777         0.016509   
    175. D(H  33,C  30,N  23,C  22)     -2.1038         0.016509   
    176. D(H  32,C  30,N  23,C  26)     55.2042         0.016509   
    177. D(H  32,C  30,N  23,C  22)   -122.4773         0.016509   
    178. D(H  31,C  30,N  23,C  26)    -64.5425         0.016509   
    179. D(H  31,C  30,N  23,C  22)    117.7759         0.016509   
    180. D(H  37,C  34,C   6,C   8)    -59.0920         0.011259   
    181. D(H  37,C  34,C   6,H   7)   -175.6343         0.011259   
    182. D(H  37,C  34,C   6,N   5)     71.0050         0.011259   
    183. D(H  36,C  34,C   6,C   8)    179.5735         0.011259   
    184. D(H  36,C  34,C   6,H   7)     63.0312         0.011259   
    185. D(H  36,C  34,C   6,N   5)    -50.3295         0.011259   
    186. D(H  35,C  34,C   6,C   8)     61.2437         0.011259   
    187. D(H  35,C  34,C   6,H   7)    -55.2986         0.011259   
    188. D(H  35,C  34,C   6,N   5)   -168.6593         0.011259   
    -----------------------------------------------------------------

Number of atoms                         .... 38
Number of degrees of freedom            .... 188

         *************************************************************
         *                GEOMETRY OPTIMIZATION CYCLE   1            *
         *************************************************************
---------------------------------
CARTESIAN COORDINATES (ANGSTROEM)
---------------------------------
  C     -2.475000    1.654000    0.977000
  H     -3.044000    1.805000    0.058000
  H     -2.660000    2.475000    1.672000
  H     -2.826000    0.730000    1.443000
  C     -0.974000    1.610000    0.765000
  N     -0.499000    1.058000   -0.403000
  C      0.882000    1.335000   -0.878000
  H      0.810000    1.226000   -1.968000
  C      1.877000    0.302000   -0.398000
  C      2.207000    0.186000    0.962000
  C      2.487000   -0.558000   -1.321000
  C      3.117000   -0.785000    1.381000
  H      1.726000    0.845000    1.679000
  C      3.401000   -1.528000   -0.900000
  H      2.250000   -0.465000   -2.381000
  C      3.716000   -1.644000    0.454000
  H      3.364000   -0.869000    2.437000
  H      3.865000   -2.189000   -1.629000
  H      4.425000   -2.398000    0.787000
  C     -1.347000    0.332000   -1.350000
  H     -1.899000    1.009000   -2.012000
  H     -0.678000   -0.269000   -1.978000
  C     -2.409000   -0.610000   -0.775000
  N     -2.014000   -1.568000    0.112000
  O     -3.578000   -0.489000   -1.162000
  O     -0.214000    2.072000    1.627000
  C     -0.645000   -1.812000    0.538000
  H     -0.423000   -1.324000    1.494000
  H     -0.513000   -2.892000    0.655000
  H      0.070000   -1.459000   -0.200000
  C     -3.033000   -2.396000    0.740000
  H     -2.890000   -3.447000    0.467000
  H     -2.967000   -2.305000    1.830000
  H     -4.009000   -2.062000    0.396000
  C      1.349000    2.770000   -0.635000
  H      2.278000    2.920000   -1.195000
  H      0.601000    3.478000   -1.005000
  H      1.529000    2.969000    0.418000

----------------------------
CARTESIAN COORDINATES (A.U.)
----------------------------
  NO LB      ZA    FRAG     MASS         X           Y           Z
   0 C     6.0000    0    12.011   -4.677072    3.125607    1.846262
   1 H     1.0000    0     1.008   -5.752326    3.410956    0.109604
   2 H     1.0000    0     1.008   -5.026672    4.677072    3.159622
   3 H     1.0000    0     1.008   -5.340366    1.379500    2.726875
   4 C     6.0000    0    12.011   -1.840593    3.042459    1.445640
   5 N     7.0000    0    14.007   -0.942973    1.999330   -0.761560
   6 C     6.0000    0    12.011    1.666738    2.522784   -1.659180
   7 H     1.0000    0     1.008    1.530678    2.316804   -3.718981
   8 C     6.0000    0    12.011    3.547016    0.570697   -0.752111
   9 C     6.0000    0    12.011    4.170626    0.351489    1.817917
  10 C     6.0000    0    12.011    4.699749   -1.054467   -2.496328
  11 C     6.0000    0    12.011    5.890276   -1.483435    2.609712
  12 H     1.0000    0     1.008    3.261667    1.596819    3.172850
  13 C     6.0000    0    12.011    6.426959   -2.887502   -1.700754
  14 H     1.0000    0     1.008    4.251884   -0.878723   -4.499438
  15 C     6.0000    0    12.011    7.022222   -3.106710    0.857936
  16 H     1.0000    0     1.008    6.357039   -1.642172    4.605263
  17 H     1.0000    0     1.008    7.303792   -4.136611   -3.078364
  18 H     1.0000    0     1.008    8.362038   -4.531563    1.487214
  19 C     6.0000    0    12.011   -2.545461    0.627389   -2.551130
  20 H     1.0000    0     1.008   -3.588590    1.906734   -3.802129
  21 H     1.0000    0     1.008   -1.281234   -0.508336   -3.737878
  22 C     6.0000    0    12.011   -4.552350   -1.152733   -1.464538
  23 N     7.0000    0    14.007   -3.805908   -2.963091    0.211649
  24 O     8.0000    0    15.999   -6.761440   -0.924076   -2.195862
  25 O     8.0000    0    15.999   -0.404401    3.915513    3.074584
  26 C     6.0000    0    12.011   -1.218873   -3.424184    1.016673
  27 H     1.0000    0     1.008   -0.799354   -2.501997    2.823251
  28 H     1.0000    0     1.008   -0.969430   -5.465088    1.237771
  29 H     1.0000    0     1.008    0.132281   -2.757110   -0.377945
  30 C     6.0000    0    12.011   -5.731539   -4.527784    1.398397
  31 H     1.0000    0     1.008   -5.461309   -6.513886    0.882502
  32 H     1.0000    0     1.008   -5.606817   -4.355819    3.458199
  33 H     1.0000    0     1.008   -7.575912   -3.896615    0.748332
  34 C     6.0000    0    12.011    2.549241    5.234541   -1.199976
  35 H     1.0000    0     1.008    4.304796    5.518000   -2.258223
  36 H     1.0000    0     1.008    1.135725    6.572467   -1.899175
  37 H     1.0000    0     1.008    2.889391    5.610597    0.789906

--------------------------------
INTERNAL COORDINATES (ANGSTROEM)
--------------------------------
 C      0   0   0     0.000000000000     0.00000000     0.00000000
 H      1   0   0     1.091385816290     0.00000000     0.00000000
 H      1   2   0     1.091462779943   110.10507927     0.00000000
 H      1   2   3     1.092763926930   107.97560209   117.76690232
 C      1   2   3     1.516535855165   113.72309733   240.99273409
 N      5   1   2     1.376427622507   118.15253476   325.97021161
 C      6   5   1     1.486443742629   121.13444407   161.30095600
 H      7   6   5     1.097800072873   103.75957463   207.60478948
 C      7   6   5     1.512452974476   112.48935781    92.45323457
 C      9   7   6     1.404263508035   121.22364075   292.69392385
 C      9   7   6     1.401295472054   119.76905723   112.78710279
 C     10   9   7     1.395170957267   120.10751640   179.29817303
 H     10   9   7     1.086154224777   119.02112095     0.77239291
 C     11   9   7     1.397689879766   120.80960046   180.54622177
 H     11   9   7     1.090145861800   119.56878610     0.91780266
 C     14  11   9     1.394989964122   119.85021201   359.85121840
 H     12  10   9     1.087750430935   119.56496129   180.18127269
 H     14  11   9     1.087960477223   119.91481873   179.91721460
 H     16  14  11     1.087237784480   120.14571870   179.89167549
 C      6   5   1     1.463895146518   123.22507690   350.31418045
 H     20   6   5     1.096027828114   112.09489426    81.46158864
 H     20   6   5     1.096880121071   106.78608232   198.87614040
 C     20   6   5     1.531611243103   117.63398808   319.71572538
 N     23  20   6     1.364022727083   118.37878491   306.21872045
 O     23  20   6     1.237324128917   118.52434784   128.03829736
 O      5   1   2     1.238583061405   119.94753971   145.46651916
 C     24  23  20     1.454363434634   125.51345796   357.81124798
 H     27  24  23     1.096067516169   111.80432677    97.40256812
 H     27  24  23     1.094309371247   108.08565173   217.08348982
 H     27  24  23     1.086498044177   111.46817624   335.98164600
 C     24  23  20     1.455448040983   118.51539637   175.24945208
 H     31  24  23     1.095252938823   110.30086294   117.77590565
 H     31  24  23     1.095781456313   109.86419134   237.52266485
 H     31  24  23     1.087413444831   108.49122937   357.89617768
 C      7   6   5     1.528516601153   114.07923190   322.13323643
 H     35   7   6     1.095052966755   107.84811616   191.34071412
 H     35   7   6     1.094380189879   110.16885940   309.67052875
 H     35   7   6     1.086650817880   112.12267964    71.00502772

---------------------------
INTERNAL COORDINATES (A.U.)
---------------------------
 C      0   0   0     0.000000000000     0.00000000     0.00000000
 H      1   0   0     2.062420299235     0.00000000     0.00000000
 H      1   2   0     2.062565739460   110.10507927     0.00000000
 H      1   2   3     2.065024550926   107.97560209   117.76690232
 C      1   2   3     2.865837438533   113.72309733   240.99273409
 N      5   1   2     2.601071249702   118.15253476   325.97021161
 C      6   5   1     2.808971587049   121.13444407   161.30095600
 H      7   6   5     2.074541487529   103.75957463   207.60478948
 C      7   6   5     2.858121912193   112.48935781    92.45323457
 C      9   7   6     2.653673450047   121.22364075   292.69392385
 C      9   7   6     2.648064674887   119.76905723   112.78710279
 C     10   9   7     2.636491019234   120.10751640   179.29817303
 H     10   9   7     2.052534024029   119.02112095     0.77239291
 C     11   9   7     2.641251092911   120.80960046   180.54622177
 H     11   9   7     2.060077124830   119.56878610     0.91780266
 C     14  11   9     2.636148991758   119.85021201   359.85121840
 H     12  10   9     2.055550416523   119.56496129   180.18127269
 H     14  11   9     2.055947346482   119.91481873   179.91721460
 H     16  14  11     2.054581655118   120.14571870   179.89167549
 C      6   5   1     2.766360915696   123.22507690   350.31418045
 H     20   6   5     2.071192430292   112.09489426    81.46158864
 H     20   6   5     2.072803030566   106.78608232   198.87614040
 C     20   6   5     2.894325793100   117.63398808   319.71572538
 N     23  20   6     2.577629394632   118.37878491   306.21872045
 O     23  20   6     2.338203742546   118.52434784   128.03829736
 O      5   1   2     2.340582780170   119.94753971   145.46651916
 C     24  23  20     2.748348590647   125.51345796   357.81124798
 H     27  24  23     2.071267429846   111.80432677    97.40256812
 H     27  24  23     2.067945017441   108.08565173   217.08348982
 H     27  24  23     2.053183748535   111.46817624   335.98164600
 C     24  23  20     2.750398199609   118.51539637   175.24945208
 H     31  24  23     2.069728101748   110.30086294   117.77590565
 H     31  24  23     2.070726855061   109.86419134   237.52266485
 H     31  24  23     2.054913605075   108.49122937   357.89617768
 C      7   6   5     2.888477767331   114.07923190   322.13323643
 H     35   7   6     2.069350209306   107.84811616   191.34071412
 H     35   7   6     2.068078845260   110.16885940   309.67052875
 H     35   7   6     2.053472448995   112.12267964    71.00502772

---------------------
BASIS SET INFORMATION
---------------------
There are 4 groups of distinct atoms

 Group   1 Type C   : 10s4p1d contracted to 3s2p1d pattern {631/31/1}
 Group   2 Type H   : 4s contracted to 2s pattern {31}
 Group   3 Type N   : 10s4p1d contracted to 3s2p1d pattern {631/31/1}
 Group   4 Type O   : 10s4p1d contracted to 3s2p1d pattern {631/31/1}

Atom   0C    basis set group =>   1
Atom   1H    basis set group =>   2
Atom   2H    basis set group =>   2
Atom   3H    basis set group =>   2
Atom   4C    basis set group =>   1
Atom   5N    basis set group =>   3
Atom   6C    basis set group =>   1
Atom   7H    basis set group =>   2
Atom   8C    basis set group =>   1
Atom   9C    basis set group =>   1
Atom  10C    basis set group =>   1
Atom  11C    basis set group =>   1
Atom  12H    basis set group =>   2
Atom  13C    basis set group =>   1
Atom  14H    basis set group =>   2
Atom  15C    basis set group =>   1
Atom  16H    basis set group =>   2
Atom  17H    basis set group =>   2
Atom  18H    basis set group =>   2
Atom  19C    basis set group =>   1
Atom  20H    basis set group =>   2
Atom  21H    basis set group =>   2
Atom  22C    basis set group =>   1
Atom  23N    basis set group =>   3
Atom  24O    basis set group =>   4
Atom  25O    basis set group =>   4
Atom  26C    basis set group =>   1
Atom  27H    basis set group =>   2
Atom  28H    basis set group =>   2
Atom  29H    basis set group =>   2
Atom  30C    basis set group =>   1
Atom  31H    basis set group =>   2
Atom  32H    basis set group =>   2
Atom  33H    basis set group =>   2
Atom  34C    basis set group =>   1
Atom  35H    basis set group =>   2
Atom  36H    basis set group =>   2
Atom  37H    basis set group =>   2
---------------------------------
AUXILIARY/J BASIS SET INFORMATION
---------------------------------
There are 4 groups of distinct atoms

 Group   1 Type C   : 13s11p10d2f contracted to 13s11p10d2f pattern {1111111111111/11111111111/1111111111/11}
 Group   2 Type H   : 9s2p contracted to 9s2p pattern {111111111/11}
 Group   3 Type N   : 14s11p10d2f contracted to 14s11p10d2f pattern {11111111111111/11111111111/1111111111/11}
 Group   4 Type O   : 14s11p10d2f contracted to 14s11p10d2f pattern {11111111111111/11111111111/1111111111/11}

Atom   0C    basis set group =>   1
Atom   1H    basis set group =>   2
Atom   2H    basis set group =>   2
Atom   3H    basis set group =>   2
Atom   4C    basis set group =>   1
Atom   5N    basis set group =>   3
Atom   6C    basis set group =>   1
Atom   7H    basis set group =>   2
Atom   8C    basis set group =>   1
Atom   9C    basis set group =>   1
Atom  10C    basis set group =>   1
Atom  11C    basis set group =>   1
Atom  12H    basis set group =>   2
Atom  13C    basis set group =>   1
Atom  14H    basis set group =>   2
Atom  15C    basis set group =>   1
Atom  16H    basis set group =>   2
Atom  17H    basis set group =>   2
Atom  18H    basis set group =>   2
Atom  19C    basis set group =>   1
Atom  20H    basis set group =>   2
Atom  21H    basis set group =>   2
Atom  22C    basis set group =>   1
Atom  23N    basis set group =>   3
Atom  24O    basis set group =>   4
Atom  25O    basis set group =>   4
Atom  26C    basis set group =>   1
Atom  27H    basis set group =>   2
Atom  28H    basis set group =>   2
Atom  29H    basis set group =>   2
Atom  30C    basis set group =>   1
Atom  31H    basis set group =>   2
Atom  32H    basis set group =>   2
Atom  33H    basis set group =>   2
Atom  34C    basis set group =>   1
Atom  35H    basis set group =>   2
Atom  36H    basis set group =>   2
Atom  37H    basis set group =>   2
---------------------------------
AUXILIARY/C BASIS SET INFORMATION
---------------------------------
There are 4 groups of distinct atoms

 Group   1 Type C   : 13s11p10d2f contracted to 13s11p10d2f pattern {1111111111111/11111111111/1111111111/11}
 Group   2 Type H   : 9s2p contracted to 9s2p pattern {111111111/11}
 Group   3 Type N   : 14s11p10d2f contracted to 14s11p10d2f pattern {11111111111111/11111111111/1111111111/11}
 Group   4 Type O   : 14s11p10d2f contracted to 14s11p10d2f pattern {11111111111111/11111111111/1111111111/11}

Atom   0C    basis set group =>   1
Atom   1H    basis set group =>   2
Atom   2H    basis set group =>   2
Atom   3H    basis set group =>   2
Atom   4C    basis set group =>   1
Atom   5N    basis set group =>   3
Atom   6C    basis set group =>   1
Atom   7H    basis set group =>   2
Atom   8C    basis set group =>   1
Atom   9C    basis set group =>   1
Atom  10C    basis set group =>   1
Atom  11C    basis set group =>   1
Atom  12H    basis set group =>   2
Atom  13C    basis set group =>   1
Atom  14H    basis set group =>   2
Atom  15C    basis set group =>   1
Atom  16H    basis set group =>   2
Atom  17H    basis set group =>   2
Atom  18H    basis set group =>   2
Atom  19C    basis set group =>   1
Atom  20H    basis set group =>   2
Atom  21H    basis set group =>   2
Atom  22C    basis set group =>   1
Atom  23N    basis set group =>   3
Atom  24O    basis set group =>   4
Atom  25O    basis set group =>   4
Atom  26C    basis set group =>   1
Atom  27H    basis set group =>   2
Atom  28H    basis set group =>   2
Atom  29H    basis set group =>   2
Atom  30C    basis set group =>   1
Atom  31H    basis set group =>   2
Atom  32H    basis set group =>   2
Atom  33H    basis set group =>   2
Atom  34C    basis set group =>   1
Atom  35H    basis set group =>   2
Atom  36H    basis set group =>   2
Atom  37H    basis set group =>   2
----------------------------------
AUXILIARY/JK BASIS SET INFORMATION
----------------------------------
There are 4 groups of distinct atoms

 Group   1 Type C   : 13s11p10d2f contracted to 13s11p10d2f pattern {1111111111111/11111111111/1111111111/11}
 Group   2 Type H   : 9s2p contracted to 9s2p pattern {111111111/11}
 Group   3 Type N   : 14s11p10d2f contracted to 14s11p10d2f pattern {11111111111111/11111111111/1111111111/11}
 Group   4 Type O   : 14s11p10d2f contracted to 14s11p10d2f pattern {11111111111111/11111111111/1111111111/11}

Atom   0C    basis set group =>   1
Atom   1H    basis set group =>   2
Atom   2H    basis set group =>   2
Atom   3H    basis set group =>   2
Atom   4C    basis set group =>   1
Atom   5N    basis set group =>   3
Atom   6C    basis set group =>   1
Atom   7H    basis set group =>   2
Atom   8C    basis set group =>   1
Atom   9C    basis set group =>   1
Atom  10C    basis set group =>   1
Atom  11C    basis set group =>   1
Atom  12H    basis set group =>   2
Atom  13C    basis set group =>   1
Atom  14H    basis set group =>   2
Atom  15C    basis set group =>   1
Atom  16H    basis set group =>   2
Atom  17H    basis set group =>   2
Atom  18H    basis set group =>   2
Atom  19C    basis set group =>   1
Atom  20H    basis set group =>   2
Atom  21H    basis set group =>   2
Atom  22C    basis set group =>   1
Atom  23N    basis set group =>   3
Atom  24O    basis set group =>   4
Atom  25O    basis set group =>   4
Atom  26C    basis set group =>   1
Atom  27H    basis set group =>   2
Atom  28H    basis set group =>   2
Atom  29H    basis set group =>   2
Atom  30C    basis set group =>   1
Atom  31H    basis set group =>   2
Atom  32H    basis set group =>   2
Atom  33H    basis set group =>   2
Atom  34C    basis set group =>   1
Atom  35H    basis set group =>   2
Atom  36H    basis set group =>   2
Atom  37H    basis set group =>   2


           ************************************************************
           *        Program running with 4 parallel MPI-processes     *
           *              working on a common directory               *
           ************************************************************
------------------------------------------------------------------------------
                           ORCA GTO INTEGRAL CALCULATION
                           -- RI-GTO INTEGRALS CHOSEN --
------------------------------------------------------------------------------
------------------------------------------------------------------------------
                   ___                                                        
                  /   \      - P O W E R E D   B Y -                         
                 /     \                                                     
                 |  |  |   _    _      __       _____    __    __             
                 |  |  |  | |  | |    /  \     |  _  \  |  |  /  |          
                  \  \/   | |  | |   /    \    | | | |  |  | /  /          
                 / \  \   | |__| |  /  /\  \   | |_| |  |  |/  /          
                |  |  |   |  __  | /  /__\  \  |    /   |      \           
                |  |  |   | |  | | |   __   |  |    \   |  |\   \          
                \     /   | |  | | |  |  |  |  | |\  \  |  | \   \       
                 \___/    |_|  |_| |__|  |__|  |_| \__\ |__|  \__/        
                                                                              
                      - O R C A' S   B I G   F R I E N D -                    
                                      &                                       
                       - I N T E G R A L  F E E D E R -                       
                                                                              
 v1 FN, 2020, v2 2021                                                         
------------------------------------------------------------------------------


Reading SHARK input file Nfes_water.SHARKINP.tmp ... ok
----------------------
SHARK INTEGRAL PACKAGE
----------------------

Number of atoms                             ...     38
Number of basis functions                   ...    292
Number of shells                            ...    148
Maximum angular momentum                    ...      2
Integral batch strategy                     ... SHARK/LIBINT Hybrid
RI-J (if used) integral strategy            ... SPLIT-RIJ (Revised 2003 algorithm where possible)
Printlevel                                  ...      1
Contraction scheme used                     ... SEGMENTED contraction
Coulomb Range Separation                    ... NOT USED
Exchange Range Separation                   ... NOT USED
Finite Nucleus Model                        ... NOT USED
Auxiliary Coulomb fitting basis             ... AVAILABLE
   # of basis functions in Aux-J            ...   2284
   # of shells in Aux-J                     ...    872
   Maximum angular momentum in Aux-J        ...      3
Auxiliary J/K fitting basis                 ... AVAILABLE
   # of basis functions in Aux-JK           ...   2284
   # of shells in Aux-JK                    ...    872
   Maximum angular momentum in Aux-JK       ...      3
Auxiliary Correlation fitting basis         ... AVAILABLE
   # of basis functions in Aux-C            ...   2284
   # of shells in Aux-C                     ...    872
   Maximum angular momentum in Aux-C        ...      3
Auxiliary 'external' fitting basis          ... NOT available
Integral threshold                          ...     2.500000e-11
Primitive cut-off                           ...     2.500000e-12
Primitive pair pre-selection threshold      ...     2.500000e-12

Calculating pre-screening integrals         ... done (  0.1 sec) Dimension = 148
Organizing shell pair data                  ... done (  1.5 sec)
Shell pair information
Total number of shell pairs                 ...     11026
Shell pairs after pre-screening             ...      9236
Total number of primitive shell pairs       ...     61863
Primitive shell pairs kept                  ...     29405
          la=0 lb=0:   3591 shell pairs
          la=1 lb=0:   3013 shell pairs
          la=1 lb=1:    629 shell pairs
          la=2 lb=0:   1303 shell pairs
          la=2 lb=1:    573 shell pairs
          la=2 lb=2:    127 shell pairs

Calculating one electron integrals          ... done (  0.0 sec)
Calculating RI/J V-Matrix + Cholesky decomp.... done (  0.3 sec)
Calculating RI/JK V-Matrix + Cholesky decomp... done (  0.3 sec)
Calculating RI/C V-Matrix + Cholesky decomp.... done (  0.3 sec)
Calculating Nuclear repulsion               ... done (  0.0 sec) ENN=   1403.646865288149 Eh

SHARK setup successfully completed in   3.0 seconds

Maximum memory used throughout the entire GTOINT-calculation: 44.8 MB


           ************************************************************
           *        Program running with 4 parallel MPI-processes     *
           *              working on a common directory               *
           ************************************************************
-------------------------------------------------------------------------------
                                 ORCA SCF
-------------------------------------------------------------------------------

------------
SCF SETTINGS
------------
Hamiltonian:
 Density Functional     Method          .... DFT(GTOs)
 Exchange Functional    Exchange        .... B88
   X-Alpha parameter    XAlpha          ....  0.666667
   Becke's b parameter  XBeta           ....  0.004200
 Correlation Functional Correlation     .... LYP
 LDA part of GGA corr.  LDAOpt          .... VWN-5
 Gradients option       PostSCFGGA      .... off
 Hybrid DFT is turned on
   Fraction HF Exchange ScalHFX         ....  0.200000
   Scaling of DF-GGA-X  ScalDFX         ....  0.720000
   Scaling of DF-GGA-C  ScalDFC         ....  0.810000
   Scaling of DF-LDA-C  ScalLDAC        ....  1.000000
   Perturbative correction              ....  0.000000
   Density functional embedding theory  .... OFF
   NL short-range parameter             ....  4.800000
 RI-approximation to the Coulomb term is turned on
   Number of AuxJ basis functions       .... 2284
   RIJ-COSX (HFX calculated with COS-X)).... on


General Settings:
 Integral files         IntName         .... Nfes_water
 Hartree-Fock type      HFTyp           .... RHF
 Total Charge           Charge          ....    0
 Multiplicity           Mult            ....    1
 Number of Electrons    NEL             ....  134
 Basis Dimension        Dim             ....  292
 Nuclear Repulsion      ENuc            ....   1403.6468652881 Eh

Convergence Acceleration:
 DIIS                   CNVDIIS         .... on
   Start iteration      DIISMaxIt       ....    12
   Startup error        DIISStart       ....  0.200000
   # of expansion vecs  DIISMaxEq       ....     5
   Bias factor          DIISBfac        ....   1.050
   Max. coefficient     DIISMaxC        ....  10.000
 Trust-Rad. Augm. Hess. CNVTRAH         .... auto
   Auto Start mean grad. ratio tolernc. ....  1.125000
   Auto Start start iteration           ....    20
   Auto Start num. interpolation iter.  ....    10
   Max. Number of Micro iterations      ....    16
   Max. Number of Macro iterations      .... Maxiter - #DIIS iter
   Number of Davidson start vectors     ....     2
   Converg. threshold I  (grad. norm)   ....   1.000e-05
   Converg. threshold II (energy diff.) ....   1.000e-08
   Grad. Scal. Fac. for Micro threshold ....   0.100
   Minimum threshold for Micro iter.    ....   0.010
   NR start threshold (gradient norm)   ....   0.001
   Initial trust radius                 ....   0.400
   Minimum AH scaling param. (alpha)    ....   1.000
   Maximum AH scaling param. (alpha)    .... 1000.000
   Orbital update algorithm             .... Taylor
   White noise on init. David. guess    .... on
   Maximum white noise                  ....   0.010
   Quad. conv. algorithm                .... NR
 SOSCF                  CNVSOSCF        .... on
   Start iteration      SOSCFMaxIt      ....   150
   Startup grad/error   SOSCFStart      ....  0.003300
 Level Shifting         CNVShift        .... on
   Level shift para.    LevelShift      ....    0.2500
   Turn off err/grad.   ShiftErr        ....    0.0010
 Zerner damping         CNVZerner       .... off
 Static damping         CNVDamp         .... on
   Fraction old density DampFac         ....    0.7000
   Max. Damping (<1)    DampMax         ....    0.9800
   Min. Damping (>=0)   DampMin         ....    0.0000
   Turn off err/grad.   DampErr         ....    0.1000
 Fernandez-Rico         CNVRico         .... off

SCF Procedure:
 Maximum # iterations   MaxIter         ....   125
 SCF integral mode      SCFMode         .... Direct
   Integral package                     .... SHARK and LIBINT hybrid scheme
 Reset frequency        DirectResetFreq ....    20
 Integral Threshold     Thresh          ....  2.500e-11 Eh
 Primitive CutOff       TCut            ....  2.500e-12 Eh

Convergence Tolerance:
 Convergence Check Mode ConvCheckMode   .... Total+1el-Energy
 Convergence forced     ConvForced      .... 0
 Energy Change          TolE            ....  1.000e-08 Eh
 1-El. energy change                    ....  1.000e-05 Eh
 Orbital Gradient       TolG            ....  1.000e-05
 Orbital Rotation angle TolX            ....  1.000e-05
 DIIS Error             TolErr          ....  5.000e-07


Diagonalization of the overlap matrix:
Smallest eigenvalue                        ... 4.766e-04
Time for diagonalization                   ...    0.015 sec
Threshold for overlap eigenvalues          ... 1.000e-08
Number of eigenvalues below threshold      ... 0
Time for construction of square roots      ...    0.007 sec
Total time needed                          ...    0.023 sec

Time for model grid setup =    0.359 sec

------------------------------
INITIAL GUESS: MODEL POTENTIAL
------------------------------
Loading Hartree-Fock densities                     ... done
Calculating cut-offs                               ... done
Initializing the effective Hamiltonian             ... done
Setting up the integral package (SHARK)            ... done
Starting the Coulomb interaction                   ... done (   0.3 sec)
Reading the grid                                   ... done
Mapping shells                                     ... done
Starting the XC term evaluation                    ... done (   0.3 sec)
  promolecular density results
     # of electrons  =    133.988453767
     EX              =   -107.478312786
     EC              =     -4.513199599
     EX+EC           =   -111.991512386
Transforming the Hamiltonian                       ... done (   0.0 sec)
Diagonalizing the Hamiltonian                      ... done (   0.0 sec)
Back transforming the eigenvectors                 ... done (   0.0 sec)
Now organizing SCF variables                       ... done
                      ------------------
                      INITIAL GUESS DONE (   1.0 sec)
                      ------------------
-------------------
DFT GRID GENERATION
-------------------

General Integration Accuracy     IntAcc      ... 4.388
Radial Grid Type                 RadialGrid  ... OptM3 with GC (2021)
Angular Grid (max. ang.)         AngularGrid ... 4 (Lebedev-302)
Angular grid pruning method      GridPruning ... 4 (adaptive)
Weight generation scheme         WeightScheme... Becke
Basis function cutoff            BFCut       ... 1.0000e-11
Integration weight cutoff        WCut        ... 1.0000e-14
Angular grids for H and He will be reduced by one unit
Partially contracted basis set               ... off
Rotationally invariant grid construction     ... off

Total number of grid points                  ...   170596
Total number of batches                      ...     2685
Average number of points per batch           ...       63
Average number of grid points per atom       ...     4489
Time for grid setup =    1.483 sec

--------------------
COSX GRID GENERATION
--------------------

GRIDX 1
-------
General Integration Accuracy     IntAcc      ... 3.816
Radial Grid Type                 RadialGrid  ... OptM3 with GC (2021)
Angular Grid (max. ang.)         AngularGrid ... 1 (Lebedev-50)
Angular grid pruning method      GridPruning ... 4 (adaptive)
Weight generation scheme         WeightScheme... Becke
Basis function cutoff            BFCut       ... 1.0000e-11
Integration weight cutoff        WCut        ... 1.0000e-14
Angular grids for H and He will be reduced by one unit
Partially contracted basis set               ... on
Rotationally invariant grid construction     ... off

Total number of grid points                  ...    21714
Total number of batches                      ...      359
Average number of points per batch           ...       60
Average number of grid points per atom       ...      571
UseSFitting                                  ... on

GRIDX 2
-------
General Integration Accuracy     IntAcc      ... 4.020
Radial Grid Type                 RadialGrid  ... OptM3 with GC (2021)
Angular Grid (max. ang.)         AngularGrid ... 2 (Lebedev-110)
Angular grid pruning method      GridPruning ... 4 (adaptive)
Weight generation scheme         WeightScheme... Becke
Basis function cutoff            BFCut       ... 1.0000e-11
Integration weight cutoff        WCut        ... 1.0000e-14
Angular grids for H and He will be reduced by one unit
Partially contracted basis set               ... on
Rotationally invariant grid construction     ... off

Total number of grid points                  ...    46068
Total number of batches                      ...      740
Average number of points per batch           ...       62
Average number of grid points per atom       ...     1212
UseSFitting                                  ... on

GRIDX 3
-------
General Integration Accuracy     IntAcc      ... 4.338
Radial Grid Type                 RadialGrid  ... OptM3 with GC (2021)
Angular Grid (max. ang.)         AngularGrid ... 3 (Lebedev-194)
Angular grid pruning method      GridPruning ... 4 (adaptive)
Weight generation scheme         WeightScheme... Becke
Basis function cutoff            BFCut       ... 1.0000e-11
Integration weight cutoff        WCut        ... 1.0000e-14
Angular grids for H and He will be reduced by one unit
Partially contracted basis set               ... on
Rotationally invariant grid construction     ... off

Total number of grid points                  ...   100239
Total number of batches                      ...     1588
Average number of points per batch           ...       63
Average number of grid points per atom       ...     2638
UseSFitting                                  ... on

Time for X-Grid setup             =    3.011 sec


--------------------
CPCM SOLVATION MODEL
--------------------
CPCM parameters:
  Epsilon                                         ...      80.4000
  Refrac                                          ...       1.3300
  Rsolv                                           ...       1.3000
  Surface type                                    ... GAUSSIAN VDW
  Epsilon function type                           ...         CPCM
Radii:
 Radius for C  used is    3.8550 Bohr (=   2.0400 Ang.)
 Radius for H  used is    2.4944 Bohr (=   1.3200 Ang.)
 Radius for N  used is    3.5149 Bohr (=   1.8600 Ang.)
 Radius for O  used is    3.4469 Bohr (=   1.8240 Ang.)
Calculating surface                               ...        done! (  0.0s)
GEPOL surface points                              ...         1924
GEPOL Volume                                      ...    2111.6779
GEPOL Surface-area                                ...    1056.4134
Calculating surface distance matrix               ...        done! (  0.0s)
Performing Cholesky decomposition & store         ...        done! (  0.1s)
Overall time for CPCM initialization              ...                 0.2s
--------------
SCF ITERATIONS
--------------
ITER       Energy         Delta-E        Max-DP      RMS-DP      [F,P]     Damp
               ***  Starting incremental Fock matrix formation  ***
  0   -804.5099261623   0.000000000000 0.09595773  0.00185534  0.2738059 0.7000
  1   -804.7374626318  -0.227536469506 0.05444132  0.00125151  0.1097672 0.7000
                               ***Turning on DIIS***
  2   -804.8282815071  -0.090818875324 0.06526187  0.00200171  0.0398600 0.0000
  3   -804.9719580393  -0.143676532169 0.03705925  0.00085280  0.0545236 0.0000
  4   -805.0013287501  -0.029370710858 0.00909651  0.00028291  0.0136104 0.0000
  5   -805.0033915117  -0.002062761537 0.00378515  0.00008662  0.0059999 0.0000
                      *** Initiating the SOSCF procedure ***
                           *** Shutting down DIIS ***
                      *** Re-Reading the Fockian *** 
                      *** Removing any level shift *** 
ITER      Energy       Delta-E        Grad      Rot      Max-DP    RMS-DP
  6   -805.00353433  -0.0001428151  0.000225  0.000225  0.001033  0.000027
               *** Restarting incremental Fock matrix formation ***
  7   -805.00358802  -0.0000536969  0.000143  0.000562  0.000921  0.000018
  8   -805.00358716   0.0000008667  0.000258  0.000385  0.000598  0.000008
  9   -805.00358974  -0.0000025812  0.000033  0.000087  0.000197  0.000004
 10   -805.00358959   0.0000001503  0.000072  0.000068  0.000138  0.000002
 11   -805.00358981  -0.0000002237  0.000003  0.000008  0.000024  0.000001
 12   -805.00358981  -0.0000000035  0.000003  0.000004  0.000014  0.000000
                  ***Gradient check signals convergence***
              ***Rediagonalizing the Fockian in SOSCF/NRSCF***

               *****************************************************
               *                     SUCCESS                       *
               *           SCF CONVERGED AFTER  13 CYCLES          *
               *****************************************************

Old exchange energy                            =    -21.901369424 Eh
New exchange energy                            =    -21.901388825 Eh
Exchange energy change after final integration =     -0.000019402 Eh
Total energy after final integration           =   -805.003609217 Eh
Final COS-X integration done in                =    15.423 sec

----------------
TOTAL SCF ENERGY
----------------

Total Energy       :         -805.00360922 Eh          -21905.26185 eV

Components:
Nuclear Repulsion  :         1403.64686529 Eh           38195.17301 eV
Electronic Energy  :        -2208.65047451 Eh          -60100.43486 eV
One Electron Energy:        -3881.58071040 Eh         -105623.18091 eV
Two Electron Energy:         1672.93023589 Eh           45522.74605 eV
Max COSX asymmetry :            0.00000444 Eh               0.00012 eV
CPCM Dielectric    :           -0.02056844 Eh              -0.55970 eV

Virial components:
Potential Energy   :        -1605.28823711 Eh          -43682.11369 eV
Kinetic Energy     :          800.28462790 Eh           21776.85184 eV
Virial Ratio       :            2.00589663


DFT components:
N(Alpha)           :       67.000063633892 electrons
N(Beta)            :       67.000063633892 electrons
N(Total)           :      134.000127267784 electrons
E(X)               :      -86.944614825543 Eh       
E(C)               :       -5.318345366733 Eh       
E(XC)              :      -92.262960192276 Eh       
DFET-embed. en.    :        0.000000000000 Eh       
CPCM Solvation Model Properties:
Surface-charge          :           -0.02284498
Charge-correction       :           -0.00016451 Eh              -0.00448 eV
Free-energy (cav+disp)  :  This term is not implemented in the current solvation scheme

---------------
SCF CONVERGENCE
---------------

  Last Energy change         ...   -3.8699e-10  Tolerance :   1.0000e-08
  Last MAX-Density change    ...    3.5527e-15  Tolerance :   1.0000e-07
  Last RMS-Density change    ...    4.7937e-17  Tolerance :   5.0000e-09
  Last Orbital Gradient      ...    6.6247e-07  Tolerance :   1.0000e-05
  Last Orbital Rotation      ...    2.5323e-06  Tolerance :   1.0000e-05

             **** THE GBW FILE WAS UPDATED (Nfes_water.gbw) ****
             **** DENSITY Nfes_water.scfp WAS UPDATED ****
             **** ENERGY FILE WAS UPDATED (Nfes_water.en.tmp) ****
             **** THE GBW FILE WAS UPDATED (Nfes_water.gbw) ****
             **** DENSITY Nfes_water.scfp WAS UPDATED ****
----------------
ORBITAL ENERGIES
----------------

  NO   OCC          E(Eh)            E(eV) 
   0   2.0000     -19.108902      -519.9797 
   1   2.0000     -19.108080      -519.9573 
   2   2.0000     -14.359535      -390.7428 
   3   2.0000     -14.357897      -390.6982 
   4   2.0000     -10.283324      -279.8235 
   5   2.0000     -10.283303      -279.8229 
   6   2.0000     -10.219885      -278.0972 
   7   2.0000     -10.219044      -278.0743 
   8   2.0000     -10.198633      -277.5189 
   9   2.0000     -10.194847      -277.4159 
  10   2.0000     -10.184241      -277.1273 
  11   2.0000     -10.178440      -276.9694 
  12   2.0000     -10.178000      -276.9574 
  13   2.0000     -10.177753      -276.9507 
  14   2.0000     -10.177366      -276.9402 
  15   2.0000     -10.172430      -276.8059 
  16   2.0000     -10.169679      -276.7310 
  17   2.0000     -10.159112      -276.4435 
  18   2.0000      -1.031850       -28.0781 
  19   2.0000      -1.025505       -27.9054 
  20   2.0000      -0.935508       -25.4565 
  21   2.0000      -0.925567       -25.1860 
  22   2.0000      -0.848868       -23.0989 
  23   2.0000      -0.785448       -21.3731 
  24   2.0000      -0.741176       -20.1684 
  25   2.0000      -0.737195       -20.0601 
  26   2.0000      -0.729842       -19.8600 
  27   2.0000      -0.712194       -19.3798 
  28   2.0000      -0.708483       -19.2788 
  29   2.0000      -0.675965       -18.3939 
  30   2.0000      -0.639606       -17.4046 
  31   2.0000      -0.597782       -16.2665 
  32   2.0000      -0.587368       -15.9831 
  33   2.0000      -0.546287       -14.8652 
  34   2.0000      -0.531662       -14.4673 
  35   2.0000      -0.508751       -13.8438 
  36   2.0000      -0.500110       -13.6087 
  37   2.0000      -0.485819       -13.2198 
  38   2.0000      -0.478010       -13.0073 
  39   2.0000      -0.462071       -12.5736 
  40   2.0000      -0.457810       -12.4577 
  41   2.0000      -0.449157       -12.2222 
  42   2.0000      -0.445843       -12.1320 
  43   2.0000      -0.437726       -11.9111 
  44   2.0000      -0.420439       -11.4407 
  45   2.0000      -0.412624       -11.2281 
  46   2.0000      -0.408943       -11.1279 
  47   2.0000      -0.404150       -10.9975 
  48   2.0000      -0.401236       -10.9182 
  49   2.0000      -0.398750       -10.8505 
  50   2.0000      -0.396689       -10.7945 
  51   2.0000      -0.393038       -10.6951 
  52   2.0000      -0.382230       -10.4010 
  53   2.0000      -0.375910       -10.2290 
  54   2.0000      -0.372282       -10.1303 
  55   2.0000      -0.356345        -9.6966 
  56   2.0000      -0.353006        -9.6058 
  57   2.0000      -0.349307        -9.5051 
  58   2.0000      -0.345766        -9.4088 
  59   2.0000      -0.332746        -9.0545 
  60   2.0000      -0.326322        -8.8797 
  61   2.0000      -0.256525        -6.9804 
  62   2.0000      -0.249448        -6.7878 
  63   2.0000      -0.247105        -6.7241 
  64   2.0000      -0.241407        -6.5690 
  65   2.0000      -0.237910        -6.4739 
  66   2.0000      -0.232947        -6.3388 
  67   0.0000      -0.001850        -0.0503 
  68   0.0000       0.002790         0.0759 
  69   0.0000       0.016456         0.4478 
  70   0.0000       0.020701         0.5633 
  71   0.0000       0.089399         2.4327 
  72   0.0000       0.101009         2.7486 
  73   0.0000       0.115590         3.1454 
  74   0.0000       0.130613         3.5542 
  75   0.0000       0.134357         3.6560 
  76   0.0000       0.145706         3.9649 
  77   0.0000       0.148962         4.0535 
  78   0.0000       0.154593         4.2067 
  79   0.0000       0.160163         4.3583 
  80   0.0000       0.163133         4.4391 
  81   0.0000       0.168450         4.5838 
  82   0.0000       0.171780         4.6744 
  83   0.0000       0.174675         4.7532 
  84   0.0000       0.176466         4.8019 
  85   0.0000       0.182421         4.9639 
  86   0.0000       0.187544         5.1033 
  87   0.0000       0.189379         5.1533 
  88   0.0000       0.194754         5.2995 
  89   0.0000       0.198301         5.3960 
  90   0.0000       0.202634         5.5140 
  91   0.0000       0.209858         5.7105 
  92   0.0000       0.217371         5.9150 
  93   0.0000       0.223083         6.0704 
  94   0.0000       0.231198         6.2912 
  95   0.0000       0.246727         6.7138 
  96   0.0000       0.252635         6.8746 
  97   0.0000       0.265417         7.2224 
  98   0.0000       0.279692         7.6108 
  99   0.0000       0.296882         8.0786 
 100   0.0000       0.313164         8.5216 
 101   0.0000       0.331723         9.0267 
 102   0.0000       0.336674         9.1614 
 103   0.0000       0.347944         9.4680 
 104   0.0000       0.355100         9.6628 
 105   0.0000       0.373683        10.1684 
 106   0.0000       0.391250        10.6464 
 107   0.0000       0.415544        11.3075 
 108   0.0000       0.461740        12.5646 
 109   0.0000       0.482472        13.1287 
 110   0.0000       0.487909        13.2767 
 111   0.0000       0.506171        13.7736 
 112   0.0000       0.511658        13.9229 
 113   0.0000       0.527858        14.3638 
 114   0.0000       0.536074        14.5873 
 115   0.0000       0.540588        14.7101 
 116   0.0000       0.554305        15.0834 
 117   0.0000       0.556305        15.1378 
 118   0.0000       0.560944        15.2641 
 119   0.0000       0.566532        15.4161 
 120   0.0000       0.582114        15.8401 
 121   0.0000       0.590442        16.0668 
 122   0.0000       0.596787        16.2394 
 123   0.0000       0.601337        16.3632 
 124   0.0000       0.611302        16.6344 
 125   0.0000       0.616968        16.7886 
 126   0.0000       0.621866        16.9218 
 127   0.0000       0.628970        17.1151 
 128   0.0000       0.636083        17.3087 
 129   0.0000       0.636734        17.3264 
 130   0.0000       0.652052        17.7432 
 131   0.0000       0.659588        17.9483 
 132   0.0000       0.663069        18.0430 
 133   0.0000       0.670090        18.2341 
 134   0.0000       0.685837        18.6626 
 135   0.0000       0.698195        18.9988 
 136   0.0000       0.712182        19.3795 
 137   0.0000       0.721317        19.6280 
 138   0.0000       0.743317        20.2267 
 139   0.0000       0.748170        20.3587 
 140   0.0000       0.760083        20.6829 
 141   0.0000       0.776132        21.1196 
 142   0.0000       0.791991        21.5512 
 143   0.0000       0.814051        22.1515 
 144   0.0000       0.818474        22.2718 
 145   0.0000       0.826497        22.4901 
 146   0.0000       0.836845        22.7717 
 147   0.0000       0.841809        22.9068 
 148   0.0000       0.843780        22.9604 
 149   0.0000       0.849935        23.1279 
 150   0.0000       0.852738        23.2042 
 151   0.0000       0.860418        23.4132 
 152   0.0000       0.872632        23.7455 
 153   0.0000       0.879245        23.9255 
 154   0.0000       0.888909        24.1884 
 155   0.0000       0.894322        24.3357 
 156   0.0000       0.900894        24.5146 
 157   0.0000       0.910176        24.7671 
 158   0.0000       0.916461        24.9382 
 159   0.0000       0.923399        25.1270 
 160   0.0000       0.931384        25.3442 
 161   0.0000       0.937827        25.5196 
 162   0.0000       0.941962        25.6321 
 163   0.0000       0.951163        25.8825 
 164   0.0000       0.966570        26.3017 
 165   0.0000       0.969561        26.3831 
 166   0.0000       0.972536        26.4640 
 167   0.0000       0.982575        26.7372 
 168   0.0000       0.988741        26.9050 
 169   0.0000       0.993272        27.0283 
 170   0.0000       1.005423        27.3590 
 171   0.0000       1.013751        27.5856 
 172   0.0000       1.025970        27.9181 
 173   0.0000       1.034781        28.1578 
 174   0.0000       1.071054        29.1448 
 175   0.0000       1.082611        29.4593 
 176   0.0000       1.098940        29.9037 
 177   0.0000       1.105457        30.0810 
 178   0.0000       1.112255        30.2660 
 179   0.0000       1.126717        30.6595 
 180   0.0000       1.150288        31.3009 
 181   0.0000       1.160151        31.5693 
 182   0.0000       1.177452        32.0401 
 183   0.0000       1.188954        32.3531 
 184   0.0000       1.210148        32.9298 
 185   0.0000       1.239173        33.7196 
 186   0.0000       1.255228        34.1565 
 187   0.0000       1.262691        34.3596 
 188   0.0000       1.284551        34.9544 
 189   0.0000       1.297562        35.3085 
 190   0.0000       1.343392        36.5556 
 191   0.0000       1.358356        36.9627 
 192   0.0000       1.372764        37.3548 
 193   0.0000       1.388966        37.7957 
 194   0.0000       1.407006        38.2866 
 195   0.0000       1.433516        39.0080 
 196   0.0000       1.439740        39.1773 
 197   0.0000       1.443909        39.2908 
 198   0.0000       1.456021        39.6203 
 199   0.0000       1.468679        39.9648 
 200   0.0000       1.484946        40.4074 
 201   0.0000       1.495006        40.6812 
 202   0.0000       1.505803        40.9750 
 203   0.0000       1.520792        41.3829 
 204   0.0000       1.541010        41.9330 
 205   0.0000       1.560553        42.4648 
 206   0.0000       1.599181        43.5159 
 207   0.0000       1.622202        44.1424 
 208   0.0000       1.627975        44.2995 
 209   0.0000       1.673484        45.5378 
 210   0.0000       1.696023        46.1511 
 211   0.0000       1.734959        47.2106 
 212   0.0000       1.758298        47.8457 
 213   0.0000       1.771601        48.2077 
 214   0.0000       1.781678        48.4819 
 215   0.0000       1.795862        48.8679 
 216   0.0000       1.814323        49.3702 
 217   0.0000       1.827478        49.7282 
 218   0.0000       1.834081        49.9079 
 219   0.0000       1.850126        50.3445 
 220   0.0000       1.864111        50.7250 
 221   0.0000       1.876197        51.0539 
 222   0.0000       1.883951        51.2649 
 223   0.0000       1.904681        51.8290 
 224   0.0000       1.909569        51.9620 
 225   0.0000       1.926528        52.4235 
 226   0.0000       1.935719        52.6736 
 227   0.0000       1.939674        52.7812 
 228   0.0000       1.959994        53.3341 
 229   0.0000       1.975974        53.7690 
 230   0.0000       1.986978        54.0684 
 231   0.0000       1.993788        54.2537 
 232   0.0000       2.007386        54.6237 
 233   0.0000       2.015555        54.8460 
 234   0.0000       2.022311        55.0299 
 235   0.0000       2.047506        55.7155 
 236   0.0000       2.055482        55.9325 
 237   0.0000       2.068157        56.2774 
 238   0.0000       2.077658        56.5359 
 239   0.0000       2.090925        56.8970 
 240   0.0000       2.103838        57.2483 
 241   0.0000       2.117774        57.6276 
 242   0.0000       2.131191        57.9926 
 243   0.0000       2.136603        58.1399 
 244   0.0000       2.152955        58.5849 
 245   0.0000       2.159907        58.7741 
 246   0.0000       2.176760        59.2327 
 247   0.0000       2.214798        60.2677 
 248   0.0000       2.226907        60.5972 
 249   0.0000       2.239166        60.9308 
 250   0.0000       2.250980        61.2523 
 251   0.0000       2.255386        61.3722 
 252   0.0000       2.276361        61.9429 
 253   0.0000       2.300759        62.6068 
 254   0.0000       2.310746        62.8786 
 255   0.0000       2.311604        62.9019 
 256   0.0000       2.321978        63.1842 
 257   0.0000       2.328179        63.3530 
 258   0.0000       2.338184        63.6252 
 259   0.0000       2.372921        64.5705 
 260   0.0000       2.386776        64.9475 
 261   0.0000       2.405589        65.4594 
 262   0.0000       2.420865        65.8751 
 263   0.0000       2.443864        66.5009 
 264   0.0000       2.487016        67.6751 
 265   0.0000       2.510327        68.3095 
 266   0.0000       2.519003        68.5456 
 267   0.0000       2.544029        69.2266 
 268   0.0000       2.565139        69.8010 
 269   0.0000       2.587321        70.4046 
 270   0.0000       2.598959        70.7213 
 271   0.0000       2.606782        70.9342 
 272   0.0000       2.626830        71.4797 
 273   0.0000       2.645121        71.9774 
 274   0.0000       2.652917        72.1895 
 275   0.0000       2.669223        72.6332 
 276   0.0000       2.730478        74.3001 
 277   0.0000       2.734723        74.4156 
 278   0.0000       2.748918        74.8019 
 279   0.0000       2.757429        75.0334 
 280   0.0000       2.774019        75.4849 
 281   0.0000       2.786594        75.8271 
 282   0.0000       2.802590        76.2624 
 283   0.0000       2.900179        78.9179 
 284   0.0000       2.927127        79.6512 
 285   0.0000       2.975704        80.9730 
 286   0.0000       3.019085        82.1535 
 287   0.0000       3.031707        82.4969 
 288   0.0000       3.079829        83.8064 
 289   0.0000       3.176760        86.4440 
 290   0.0000       3.184543        86.6558 
 291   0.0000       3.417193        92.9865 

                    ********************************
                    * MULLIKEN POPULATION ANALYSIS *
                    ********************************

-----------------------
MULLIKEN ATOMIC CHARGES
-----------------------
   0 C :   -0.565938
   1 H :    0.188042
   2 H :    0.182922
   3 H :    0.202665
   4 C :    0.538732
   5 N :   -0.384536
   6 C :   -0.068445
   7 H :    0.172658
   8 C :    0.152692
   9 C :   -0.185369
  10 C :   -0.206460
  11 C :   -0.155303
  12 H :    0.162685
  13 C :   -0.147741
  14 H :    0.152037
  15 C :   -0.147928
  16 H :    0.149118
  17 H :    0.151099
  18 H :    0.149908
  19 C :   -0.257065
  20 H :    0.188320
  21 H :    0.213001
  22 C :    0.518471
  23 N :   -0.358513
  24 O :   -0.544606
  25 O :   -0.529158
  26 C :   -0.336597
  27 H :    0.175261
  28 H :    0.176167
  29 H :    0.190227
  30 C :   -0.332523
  31 H :    0.173749
  32 H :    0.173572
  33 H :    0.185111
  34 C :   -0.464313
  35 H :    0.155990
  36 H :    0.154449
  37 H :    0.177620
Sum of atomic charges:    0.0000000

--------------------------------
MULLIKEN REDUCED ORBITAL CHARGES
--------------------------------
  0 C s       :     3.324398  s :     3.324398
      pz      :     1.110322  p :     3.209527
      px      :     0.984410
      py      :     1.114796
      dz2     :     0.004727  d :     0.032012
      dxz     :     0.006702
      dyz     :     0.008028
      dx2y2   :     0.009116
      dxy     :     0.003439
  1 H s       :     0.811958  s :     0.811958
  2 H s       :     0.817078  s :     0.817078
  3 H s       :     0.797335  s :     0.797335
  4 C s       :     2.988373  s :     2.988373
      pz      :     0.762276  p :     2.364806
      px      :     0.825531
      py      :     0.776999
      dz2     :     0.034149  d :     0.108089
      dxz     :     0.024087
      dyz     :     0.018950
      dx2y2   :     0.017947
      dxy     :     0.012955
  5 N s       :     3.542690  s :     3.542690
      pz      :     1.187476  p :     3.806518
      px      :     1.143540
      py      :     1.475503
      dz2     :     0.007591  d :     0.035327
      dxz     :     0.009831
      dyz     :     0.006021
      dx2y2   :     0.005676
      dxy     :     0.006209
  6 C s       :     3.209351  s :     3.209351
      pz      :     1.023147  p :     2.800039
      px      :     0.790438
      py      :     0.986453
      dz2     :     0.014970  d :     0.059056
      dxz     :     0.008022
      dyz     :     0.005709
      dx2y2   :     0.015825
      dxy     :     0.014529
  7 H s       :     0.827342  s :     0.827342
  8 C s       :     3.139593  s :     3.139593
      pz      :     0.857320  p :     2.667545
      px      :     0.895659
      py      :     0.914566
[...]
    107      -0.007393   0.000084  -0.000648   0.000530  -0.000727   0.000901
    108      -0.011855   0.000030  -0.000182   0.000123  -0.002371   0.001125
    109       0.011130  -0.000021  -0.000161   0.000076   0.002647  -0.000671
    110      -0.005104   0.000008  -0.000028  -0.000005  -0.001186   0.000582
    111      -0.013103   0.000124  -0.000877   0.000461  -0.001044   0.002196
    112      -0.015427   0.000151  -0.000999   0.000516  -0.001438   0.003149
    113      -0.060591   0.000555  -0.004268   0.001831  -0.004978   0.011449


-----------
IR SPECTRUM
-----------

 Mode   freq       eps      Int      T**2         TX        TY        TZ
       cm**-1   L/(mol*cm) km/mol    a.u.
----------------------------------------------------------------------------
  6:     24.94   0.000690    3.49  0.008629  (-0.016510 -0.047844 -0.077896)
  7:     36.86   0.000025    0.13  0.000214  ( 0.007233 -0.001534 -0.012604)
  8:     46.70   0.000272    1.37  0.001816  ( 0.029474 -0.014324 -0.027235)
  9:     66.57   0.000681    3.44  0.003194  ( 0.018856  0.039824 -0.035386)
 10:     82.38   0.000408    2.06  0.001545  ( 0.017166  0.012767 -0.032979)
 11:     88.60   0.000226    1.14  0.000797  ( 0.007987 -0.027069 -0.000820)
 12:    101.39   0.001859    9.39  0.005722  (-0.002033 -0.075420 -0.005419)
 13:    127.53   0.000952    4.81  0.002329  (-0.026170  0.033881 -0.022282)
 14:    152.49   0.001466    7.41  0.002999  (-0.022720  0.049530  0.005443)
 15:    170.15   0.000152    0.77  0.000279  (-0.009319 -0.011233  0.008120)
 16:    186.15   0.000182    0.92  0.000305  (-0.007958 -0.007708  0.013517)
 17:    192.84   0.001123    5.68  0.001818  (-0.029440  0.027057  0.014803)
 18:    215.67   0.000036    0.18  0.000053  ( 0.003960  0.005411  0.002755)
 19:    228.98   0.001312    6.63  0.001787  ( 0.019104 -0.015775 -0.034257)
 20:    242.77   0.001690    8.54  0.002173  (-0.008554 -0.038757 -0.024442)
 21:    250.02   0.000156    0.79  0.000194  ( 0.005082 -0.000993 -0.012934)
 22:    278.44   0.000692    3.50  0.000776  ( 0.011340  0.000644 -0.025438)
 23:    301.64   0.000855    4.32  0.000884  (-0.001169  0.021918 -0.020061)
 24:    329.03   0.000231    1.16  0.000219  ( 0.003579 -0.010915 -0.009310)
 25:    336.57   0.000710    3.59  0.000658  (-0.012970  0.017887 -0.013036)
 26:    403.81   0.002236   11.30  0.001728  (-0.007558 -0.029485  0.028307)
 27:    418.41   0.000095    0.48  0.000071  (-0.007761  0.003265 -0.000479)
 28:    431.26   0.001902    9.61  0.001376  ( 0.006554  0.036089 -0.005575)
 29:    449.77   0.001888    9.54  0.001310  ( 0.027561  0.007951 -0.022064)
 30:    507.98   0.003509   17.73  0.002155  ( 0.035034 -0.016739 -0.025452)
 31:    558.03   0.004950   25.01  0.002768  ( 0.029747  0.025477 -0.035129)
 32:    583.19   0.007148   36.12  0.003825  ( 0.036533  0.038113  0.032212)
 33:    586.06   0.001247    6.30  0.000664  (-0.023303  0.010605 -0.002922)
 34:    612.64   0.002658   13.43  0.001354  ( 0.008352 -0.031764  0.016591)
 35:    632.92   0.000575    2.91  0.000284  (-0.007872  0.014807  0.001532)
 36:    648.45   0.006092   30.79  0.002932  (-0.019205  0.050560 -0.002601)
 37:    702.36   0.000441    2.23  0.000196  (-0.008444 -0.000214 -0.011166)
 38:    720.02   0.012698   64.17  0.005504  ( 0.056272  0.048056 -0.005254)
 39:    745.23   0.001355    6.85  0.000567  ( 0.004011 -0.023322  0.002737)
 40:    773.41   0.005718   28.89  0.002307  (-0.011763  0.045745 -0.008718)
 41:    787.72   0.004020   20.31  0.001592  ( 0.038159  0.011658  0.000684)
 42:    815.34   0.000590    2.98  0.000226  (-0.014476  0.000598 -0.003971)
 43:    871.44   0.000019    0.10  0.000007  (-0.001889 -0.001624 -0.000853)
 44:    920.85   0.000304    1.53  0.000103  ( 0.009802  0.002138  0.001502)
 45:    940.74   0.001703    8.61  0.000565  (-0.020427 -0.012110 -0.000971)
 46:    986.16   0.000153    0.77  0.000048  ( 0.006764  0.001311  0.000909)
 47:    999.00   0.005115   25.85  0.001598  ( 0.024945 -0.030621 -0.006164)
 48:   1005.24   0.009123   46.10  0.002832  (-0.003140 -0.025784  0.046447)
 49:   1009.52   0.001178    5.95  0.000364  ( 0.009900  0.010674  0.012333)
 50:   1013.64   0.001164    5.88  0.000358  (-0.000871 -0.018583  0.003484)
 51:   1019.66   0.002180   11.02  0.000667  ( 0.003595 -0.025049  0.005168)
 52:   1054.19   0.003423   17.30  0.001013  ( 0.030386  0.001311  0.009403)
 53:   1060.23   0.003330   16.83  0.000980  ( 0.004575 -0.028512  0.012092)
 54:   1067.23   0.001069    5.40  0.000313  ( 0.008027  0.000639  0.015741)
 55:   1088.01   0.001882    9.51  0.000540  ( 0.022818  0.004290 -0.000825)
 56:   1092.39   0.000835    4.22  0.000239  ( 0.002261 -0.002802  0.015023)
 57:   1117.38   0.002495   12.61  0.000697  ( 0.008572 -0.015738 -0.019384)
 58:   1135.10   0.001859    9.40  0.000511  (-0.019403  0.004746 -0.010592)
 59:   1137.72   0.009057   45.77  0.002484  ( 0.048501  0.011178  0.002603)
 60:   1174.73   0.001472    7.44  0.000391  ( 0.017364 -0.009354  0.001411)
 61:   1182.45   0.000335    1.70  0.000089  ( 0.008279 -0.002429  0.003754)
 62:   1196.17   0.018629   94.14  0.004860  (-0.031856  0.049289 -0.037627)
 63:   1202.95   0.014246   71.99  0.003696  ( 0.055184  0.016003 -0.019856)
 64:   1206.74   0.000134    0.68  0.000035  ( 0.004037 -0.003784  0.002038)
 65:   1239.32   0.001776    8.98  0.000447  ( 0.010139 -0.008479  0.016511)
 66:   1291.85   0.010481   52.97  0.002532  (-0.012221 -0.047858  0.009595)
 67:   1298.54   0.007600   38.41  0.001826  (-0.042425  0.000151  0.005152)
 68:   1322.82   0.014258   72.06  0.003364  ( 0.033447 -0.033481 -0.033526)
 69:   1338.09   0.046652  235.76  0.010880  ( 0.023407 -0.037169 -0.094608)
 70:   1363.19   0.000795    4.02  0.000182  ( 0.010400 -0.006983  0.005003)
 71:   1384.23   0.003370   17.03  0.000760  (-0.023617  0.006467  0.012654)
 72:   1400.97   0.006470   32.70  0.001441  ( 0.028531 -0.019788 -0.015352)
 73:   1414.22   0.009754   49.29  0.002152  (-0.033555  0.012383  0.029550)
 74:   1420.71   0.005787   29.25  0.001271  (-0.033396 -0.004208  0.011756)
 75:   1441.15   0.019840  100.26  0.004296  (-0.020769  0.053654 -0.031400)
 76:   1458.65   0.013277   67.10  0.002841  ( 0.011884  0.037161 -0.036310)
 77:   1477.71   0.008898   44.97  0.001879  ( 0.007521  0.028561  0.031729)
 78:   1485.57   0.006871   34.72  0.001443  ( 0.013547 -0.024439 -0.025740)
 79:   1492.96   0.001702    8.60  0.000356  (-0.018264 -0.004445 -0.001575)
 80:   1499.22   0.000797    4.03  0.000166  (-0.009459  0.001015  0.008678)
 81:   1500.52   0.003464   17.51  0.000720  ( 0.005669  0.015942  0.020837)
 82:   1502.79   0.004187   21.16  0.000869  (-0.017558 -0.003692  0.023397)
 83:   1506.77   0.004745   23.98  0.000983  (-0.011920  0.028408 -0.005806)
 84:   1514.20   0.004300   21.73  0.000886  (-0.023063 -0.013396 -0.013227)
 85:   1515.28   0.002148   10.86  0.000442  (-0.000556 -0.018825 -0.009368)
 86:   1519.24   0.000496    2.51  0.000102  (-0.000798  0.000981  0.010014)
 87:   1528.86   0.015639   79.04  0.003192  (-0.037742  0.008133  0.041251)
 88:   1540.98   0.004993   25.23  0.001011  ( 0.025626 -0.017519  0.006892)
 89:   1552.47   0.015550   78.58  0.003126  ( 0.013378  0.047098 -0.026993)
 90:   1639.18   0.000723    3.66  0.000138  ( 0.004848  0.004139  0.009853)
 91:   1659.50   0.000928    4.69  0.000175  ( 0.011581 -0.004021  0.004930)
 92:   1708.13   0.142248  718.86  0.025988  (-0.102919 -0.033196 -0.119555)
 93:   1712.38   0.077960  393.98  0.014207  (-0.085103  0.080856 -0.020668)
 94:   3045.74   0.010540   53.26  0.001080  ( 0.015451  0.027631 -0.008814)
 95:   3057.19   0.012041   60.85  0.001229  ( 0.020247 -0.019003  0.021401)
 96:   3058.19   0.006399   32.34  0.000653  ( 0.003948  0.023199 -0.009956)
 97:   3068.18   0.003623   18.31  0.000368  (-0.013429  0.001211 -0.013662)
 98:   3070.43   0.000605    3.06  0.000061  ( 0.005812 -0.000074 -0.005263)
 99:   3088.31   0.007977   40.31  0.000806  ( 0.009335 -0.005928  0.026149)
100:   3101.63   0.009819   49.62  0.000988  (-0.001094 -0.017127 -0.026333)
101:   3115.78   0.005690   28.76  0.000570  ( 0.003654  0.022683  0.006485)
102:   3118.35   0.000320    1.62  0.000032  (-0.000829 -0.005127  0.002253)
103:   3119.18   0.010622   53.68  0.001063  (-0.029503  0.013399  0.003576)
104:   3141.22   0.002267   11.46  0.000225  ( 0.006317 -0.013441  0.002169)
105:   3168.27   0.002346   11.86  0.000231  (-0.003594 -0.006622 -0.013202)
106:   3179.01   0.002003   10.12  0.000197  (-0.005913  0.004696 -0.011816)
107:   3183.54   0.003251   16.43  0.000319  (-0.003414 -0.000350 -0.017518)
108:   3186.24   0.000763    3.85  0.000075  ( 0.005575 -0.006604 -0.000025)
109:   3191.71   0.001127    5.70  0.000110  ( 0.010237 -0.002310 -0.000206)
110:   3195.82   0.009687   48.95  0.000946  (-0.002571 -0.001924 -0.030588)
111:   3201.52   0.001698    8.58  0.000166  (-0.002353 -0.003040  0.012278)
112:   3208.34   0.006351   32.09  0.000618  (-0.017566  0.017572  0.000610)
113:   3232.56   0.001738    8.79  0.000168  (-0.010513  0.005222 -0.005482)

* The epsilon (eps) is given for a Dirac delta lineshape.
** The dipole moment derivative (T) already includes vibrational overlap.

The first frequency considered to be a vibration is 6
The total number of vibrations considered is 108


--------------------------
THERMOCHEMISTRY AT 298.15K
--------------------------

Temperature         ... 298.15 K
Pressure            ... 1.00 atm
Total Mass          ... 248.33 AMU

Throughout the following assumptions are being made:
  (1) The electronic state is orbitally nondegenerate
  (2) There are no thermally accessible electronically excited states
  (3) Hindered rotations indicated by low frequency modes are not
      treated as such but are treated as vibrations and this may
      cause some error
  (4) All equations used are the standard statistical mechanics
      equations for an ideal gas
  (5) All vibrations are strictly harmonic

freq.      24.94  E(vib)   ...       0.56 
freq.      36.86  E(vib)   ...       0.54 
freq.      46.70  E(vib)   ...       0.53 
freq.      66.57  E(vib)   ...       0.50 
freq.      82.38  E(vib)   ...       0.48 
freq.      88.60  E(vib)   ...       0.47 
freq.     101.39  E(vib)   ...       0.46 
freq.     127.53  E(vib)   ...       0.43 
freq.     152.49  E(vib)   ...       0.40 
freq.     170.15  E(vib)   ...       0.38 
freq.     186.15  E(vib)   ...       0.37 
freq.     192.84  E(vib)   ...       0.36 
freq.     215.67  E(vib)   ...       0.34 
freq.     228.98  E(vib)   ...       0.32 
freq.     242.77  E(vib)   ...       0.31 
freq.     250.02  E(vib)   ...       0.31 
freq.     278.44  E(vib)   ...       0.28 
freq.     301.64  E(vib)   ...       0.26 
freq.     329.03  E(vib)   ...       0.24 
freq.     336.57  E(vib)   ...       0.24 
freq.     403.81  E(vib)   ...       0.19 
freq.     418.41  E(vib)   ...       0.18 
freq.     431.26  E(vib)   ...       0.18 
freq.     449.77  E(vib)   ...       0.17 
freq.     507.98  E(vib)   ...       0.14 
freq.     558.03  E(vib)   ...       0.12 
freq.     583.19  E(vib)   ...       0.11 
freq.     586.06  E(vib)   ...       0.11 
freq.     612.64  E(vib)   ...       0.10 
freq.     632.92  E(vib)   ...       0.09 
freq.     648.45  E(vib)   ...       0.08 
freq.     702.36  E(vib)   ...       0.07 
freq.     720.02  E(vib)   ...       0.07 
freq.     745.23  E(vib)   ...       0.06 
freq.     773.41  E(vib)   ...       0.05 
freq.     787.72  E(vib)   ...       0.05 
freq.     815.34  E(vib)   ...       0.05 
freq.     871.44  E(vib)   ...       0.04 
freq.     920.85  E(vib)   ...       0.03 
freq.     940.74  E(vib)   ...       0.03 
freq.     986.16  E(vib)   ...       0.02 
freq.     999.00  E(vib)   ...       0.02 
freq.    1005.24  E(vib)   ...       0.02 
freq.    1009.52  E(vib)   ...       0.02 
freq.    1013.64  E(vib)   ...       0.02 
freq.    1019.66  E(vib)   ...       0.02 
freq.    1054.19  E(vib)   ...       0.02 
freq.    1060.23  E(vib)   ...       0.02 
freq.    1067.23  E(vib)   ...       0.02 
freq.    1088.01  E(vib)   ...       0.02 
freq.    1092.39  E(vib)   ...       0.02 
freq.    1117.38  E(vib)   ...       0.01 
freq.    1135.10  E(vib)   ...       0.01 
freq.    1137.72  E(vib)   ...       0.01 
freq.    1174.73  E(vib)   ...       0.01 
freq.    1182.45  E(vib)   ...       0.01 
freq.    1196.17  E(vib)   ...       0.01 
freq.    1202.95  E(vib)   ...       0.01 
freq.    1206.74  E(vib)   ...       0.01 
freq.    1239.32  E(vib)   ...       0.01 
freq.    1291.85  E(vib)   ...       0.01 
freq.    1298.54  E(vib)   ...       0.01 
freq.    1322.82  E(vib)   ...       0.01 
freq.    1338.09  E(vib)   ...       0.01 
freq.    1363.19  E(vib)   ...       0.01 
freq.    1384.23  E(vib)   ...       0.00 
freq.    1400.97  E(vib)   ...       0.00 
freq.    1414.22  E(vib)   ...       0.00 
freq.    1420.71  E(vib)   ...       0.00 
freq.    1441.15  E(vib)   ...       0.00 
freq.    1458.65  E(vib)   ...       0.00 
freq.    1477.71  E(vib)   ...       0.00 
freq.    1485.57  E(vib)   ...       0.00 
freq.    1492.96  E(vib)   ...       0.00 
freq.    1499.22  E(vib)   ...       0.00 
freq.    1500.52  E(vib)   ...       0.00 
freq.    1502.79  E(vib)   ...       0.00 
freq.    1506.77  E(vib)   ...       0.00 
freq.    1514.20  E(vib)   ...       0.00 
freq.    1515.28  E(vib)   ...       0.00 
freq.    1519.24  E(vib)   ...       0.00 
freq.    1528.86  E(vib)   ...       0.00 
freq.    1540.98  E(vib)   ...       0.00 
freq.    1552.47  E(vib)   ...       0.00 
freq.    1639.18  E(vib)   ...       0.00 
freq.    1659.50  E(vib)   ...       0.00 
freq.    1708.13  E(vib)   ...       0.00 
freq.    1712.38  E(vib)   ...       0.00 
freq.    3045.74  E(vib)   ...       0.00 
freq.    3057.19  E(vib)   ...       0.00 
freq.    3058.19  E(vib)   ...       0.00 
freq.    3068.18  E(vib)   ...       0.00 
freq.    3070.43  E(vib)   ...       0.00 
freq.    3088.31  E(vib)   ...       0.00 
freq.    3101.63  E(vib)   ...       0.00 
freq.    3115.78  E(vib)   ...       0.00 
freq.    3118.35  E(vib)   ...       0.00 
freq.    3119.18  E(vib)   ...       0.00 
freq.    3141.22  E(vib)   ...       0.00 
freq.    3168.27  E(vib)   ...       0.00 
freq.    3179.01  E(vib)   ...       0.00 
freq.    3183.54  E(vib)   ...       0.00 
freq.    3186.24  E(vib)   ...       0.00 
freq.    3191.71  E(vib)   ...       0.00 
freq.    3195.82  E(vib)   ...       0.00 
freq.    3201.52  E(vib)   ...       0.00 
freq.    3208.34  E(vib)   ...       0.00 
freq.    3232.56  E(vib)   ...       0.00 

------------
INNER ENERGY
------------

The inner energy is: U= E(el) + E(ZPE) + E(vib) + E(rot) + E(trans)
    E(el)   - is the total energy from the electronic structure calculation
              = E(kin-el) + E(nuc-el) + E(el-el) + E(nuc-nuc)
    E(ZPE)  - the the zero temperature vibrational energy from the frequency calculation
    E(vib)  - the the finite temperature correction to E(ZPE) due to population
              of excited vibrational states
    E(rot)  - is the rotational thermal energy
    E(trans)- is the translational thermal energy

Summary of contributions to the inner energy U:
Electronic energy                ...   -805.08133971 Eh
Zero point energy                ...      0.32527361 Eh     204.11 kcal/mol
Thermal vibrational correction   ...      0.01611208 Eh      10.11 kcal/mol
Thermal rotational correction    ...      0.00141627 Eh       0.89 kcal/mol
Thermal translational correction ...      0.00141627 Eh       0.89 kcal/mol
-----------------------------------------------------------------------
Total thermal energy                   -804.73712147 Eh


Summary of corrections to the electronic energy:
(perhaps to be used in another calculation)
Total thermal correction                  0.01894463 Eh      11.89 kcal/mol
Non-thermal (ZPE) correction              0.32527361 Eh     204.11 kcal/mol
-----------------------------------------------------------------------
Total correction                          0.34421823 Eh     216.00 kcal/mol


--------
ENTHALPY
--------

The enthalpy is H = U + kB*T
                kB is Boltzmann's constant
Total free energy                 ...   -804.73712147 Eh 
Thermal Enthalpy correction       ...      0.00094421 Eh       0.59 kcal/mol
-----------------------------------------------------------------------
Total Enthalpy                    ...   -804.73617726 Eh


Note: Only C1 symmetry has been detected, increase convergence thresholds 
      if your molecule has a higher symmetry. Symmetry factor of 1.0 is   
      used for the rotational entropy correction. 
 

Note: Rotational entropy computed according to Herzberg 
Infrared and Raman Spectra, Chapter V,1, Van Nostrand Reinhold, 1945 
Point Group:  C1, Symmetry Number:   1  
Rotational constants in cm-1:     0.020281     0.010617     0.008773 

Vibrational entropy computed according to the QRRHO of S. Grimme
Chem.Eur.J. 2012 18 9955


-------
ENTROPY
-------

The entropy contributions are T*S = T*(S(el)+S(vib)+S(rot)+S(trans))
     S(el)   - electronic entropy
     S(vib)  - vibrational entropy
     S(rot)  - rotational entropy
     S(trans)- translational entropy
The entropies will be listed as multiplied by the temperature to get
units of energy

Electronic entropy                ...      0.00000000 Eh      0.00 kcal/mol
Vibrational entropy               ...      0.02878171 Eh     18.06 kcal/mol
Rotational entropy                ...      0.01573270 Eh      9.87 kcal/mol
Translational entropy             ...      0.02015944 Eh     12.65 kcal/mol
-----------------------------------------------------------------------
Final entropy term                ...      0.06467385 Eh     40.58 kcal/mol

In case the symmetry of your molecule has not been determined correctly
or in case you have a reason to use a different symmetry number we print 
out the resulting rotational entropy values for sn=1,12 :
 --------------------------------------------------------
|  sn= 1 | S(rot)=       0.01573270 Eh      9.87 kcal/mol|
|  sn= 2 | S(rot)=       0.01507824 Eh      9.46 kcal/mol|
|  sn= 3 | S(rot)=       0.01469541 Eh      9.22 kcal/mol|
|  sn= 4 | S(rot)=       0.01442379 Eh      9.05 kcal/mol|
|  sn= 5 | S(rot)=       0.01421310 Eh      8.92 kcal/mol|
|  sn= 6 | S(rot)=       0.01404095 Eh      8.81 kcal/mol|
|  sn= 7 | S(rot)=       0.01389541 Eh      8.72 kcal/mol|
|  sn= 8 | S(rot)=       0.01376933 Eh      8.64 kcal/mol|
|  sn= 9 | S(rot)=       0.01365812 Eh      8.57 kcal/mol|
|  sn=10 | S(rot)=       0.01355864 Eh      8.51 kcal/mol|
|  sn=11 | S(rot)=       0.01346865 Eh      8.45 kcal/mol|
|  sn=12 | S(rot)=       0.01338650 Eh      8.40 kcal/mol|
 --------------------------------------------------------


-------------------
GIBBS FREE ENERGY
-------------------

The Gibbs free energy is G = H - T*S

Total enthalpy                    ...   -804.73617726 Eh 
Total entropy correction          ...     -0.06467385 Eh    -40.58 kcal/mol
-----------------------------------------------------------------------
Final Gibbs free energy         ...   -804.80085112 Eh

For completeness - the Gibbs free energy minus the electronic energy
G-E(el)                           ...      0.28048859 Eh    176.01 kcal/mol


Timings for individual modules:

Sum of individual times         ...     3031.248 sec (=  50.521 min)
GTO integral calculation        ...       33.346 sec (=   0.556 min)   1.1 %
SCF iterations                  ...     1547.833 sec (=  25.797 min)  51.1 %
SCF Gradient evaluation         ...      501.585 sec (=   8.360 min)  16.5 %
Geometry relaxation             ...        3.043 sec (=   0.051 min)   0.1 %
Analytical frequency calculation...      945.442 sec (=  15.757 min)  31.2 %
                             ****ORCA TERMINATED NORMALLY****
TOTAL RUN TIME: 0 days 0 hours 50 minutes 39 seconds 939 msec
