
                                 *****************
                                 * O   R   C   A *
                                 *****************

                                            #,                                       
                                            ###                                      
                                            ####                                     
                                            #####                                    
                                            ######                                   
                                           ########,                                 
                                     ,,################,,,,,                         
                               ,,#################################,,                 
                          ,,##########################################,,             
                       ,#########################################, ''#####,          
                    ,#############################################,,   '####,        
                  ,##################################################,,,,####,       
                ,###########''''           ''''###############################       
              ,#####''   ,,,,##########,,,,          '''####'''          '####       
            ,##' ,,,,###########################,,,                        '##       
           ' ,,###''''                  '''############,,,                           
         ,,##''                                '''############,,,,        ,,,,,,###''
      ,#''                                            '''#######################'''  
     '                                                          ''''####''''         
             ,#######,   #######,   ,#######,      ##                                
            ,#'     '#,  ##    ##  ,#'     '#,    #''#        ######   ,####,        
            ##       ##  ##   ,#'  ##            #'  '#       #        #'  '#        
            ##       ##  #######   ##           ,######,      #####,   #    #        
            '#,     ,#'  ##    ##  '#,     ,#' ,#      #,         ##   #,  ,#        
             '#######'   ##     ##  '#######'  #'      '#     #####' # '####'        



                  #######################################################
                  #                        -***-                        #
                  #          Department of theory and spectroscopy      #
                  #    Directorship and core code : Frank Neese         #
                  #        Max Planck Institute fuer Kohlenforschung    #
                  #                Kaiser Wilhelm Platz 1               #
                  #                 D-45470 Muelheim/Ruhr               #
                  #                      Germany                        #
                  #                                                     #
                  #                  All rights reserved                #
                  #                        -***-                        #
                  #######################################################


                         Program Version 5.0.4 -  RELEASE  -


 With contributions from (in alphabetic order):
   Daniel Aravena         : Magnetic Suceptibility
   Michael Atanasov       : Ab Initio Ligand Field Theory (pilot matlab implementation)
   Alexander A. Auer      : GIAO ZORA, VPT2 properties, NMR spectrum
   Ute Becker             : Parallelization
   Giovanni Bistoni       : ED, misc. LED, open-shell LED, HFLD
   Martin Brehm           : Molecular dynamics
   Dmytro Bykov           : SCF Hessian
   Vijay G. Chilkuri      : MRCI spin determinant printing, contributions to CSF-ICE
   Dipayan Datta          : RHF DLPNO-CCSD density
   Achintya Kumar Dutta   : EOM-CC, STEOM-CC
   Dmitry Ganyushin       : Spin-Orbit,Spin-Spin,Magnetic field MRCI
   Miquel Garcia          : C-PCM and meta-GGA Hessian, CC/C-PCM, Gaussian charge scheme
   Yang Guo               : DLPNO-NEVPT2, F12-NEVPT2, CIM, IAO-localization
   Andreas Hansen         : Spin unrestricted coupled pair/coupled cluster methods
   Benjamin Helmich-Paris : MC-RPA, TRAH-SCF, COSX integrals
   Lee Huntington         : MR-EOM, pCC
   Robert Izsak           : Overlap fitted RIJCOSX, COSX-SCS-MP3, EOM
   Marcus Kettner         : VPT2
   Christian Kollmar      : KDIIS, OOCD, Brueckner-CCSD(T), CCSD density, CASPT2, CASPT2-K
   Simone Kossmann        : Meta GGA functionals, TD-DFT gradient, OOMP2, MP2 Hessian
   Martin Krupicka        : Initial AUTO-CI
   Lucas Lang             : DCDCAS
   Marvin Lechner         : AUTO-CI (C++ implementation), FIC-MRCC
   Dagmar Lenk            : GEPOL surface, SMD
   Dimitrios Liakos       : Extrapolation schemes; Compound Job, initial MDCI parallelization
   Dimitrios Manganas     : Further ROCIS development; embedding schemes
   Dimitrios Pantazis     : SARC Basis sets
   Anastasios Papadopoulos: AUTO-CI, single reference methods and gradients
   Taras Petrenko         : DFT Hessian,TD-DFT gradient, ASA, ECA, R-Raman, ABS, FL, XAS/XES, NRVS
   Peter Pinski           : DLPNO-MP2, DLPNO-MP2 Gradient
   Christoph Reimann      : Effective Core Potentials
   Marius Retegan         : Local ZFS, SOC
   Christoph Riplinger    : Optimizer, TS searches, QM/MM, DLPNO-CCSD(T), (RO)-DLPNO pert. Triples
   Tobias Risthaus        : Range-separated hybrids, TD-DFT gradient, RPA, STAB
   Michael Roemelt        : Original ROCIS implementation
   Masaaki Saitow         : Open-shell DLPNO-CCSD energy and density
   Barbara Sandhoefer     : DKH picture change effects
   Avijit Sen             : IP-ROCIS
   Kantharuban Sivalingam : CASSCF convergence, NEVPT2, FIC-MRCI
   Bernardo de Souza      : ESD, SOC TD-DFT
   Georgi Stoychev        : AutoAux, RI-MP2 NMR, DLPNO-MP2 response
   Willem Van den Heuvel  : Paramagnetic NMR
   Boris Wezisla          : Elementary symmetry handling
   Frank Wennmohs         : Technical directorship


 We gratefully acknowledge several colleagues who have allowed us to
 interface, adapt or use parts of their codes:
   Stefan Grimme, W. Hujo, H. Kruse, P. Pracht,  : VdW corrections, initial TS optimization,
                  C. Bannwarth, S. Ehlert          DFT functionals, gCP, sTDA/sTD-DF
   Ed Valeev, F. Pavosevic, A. Kumar             : LibInt (2-el integral package), F12 methods
   Garnet Chan, S. Sharma, J. Yang, R. Olivares  : DMRG
   Ulf Ekstrom                                   : XCFun DFT Library
   Mihaly Kallay                                 : mrcc  (arbitrary order and MRCC methods)
   Jiri Pittner, Ondrej Demel                    : Mk-CCSD
   Frank Weinhold                                : gennbo (NPA and NBO analysis)
   Christopher J. Cramer and Donald G. Truhlar   : smd solvation model
   Lars Goerigk                                  : TD-DFT with DH, B97 family of functionals
   V. Asgeirsson, H. Jonsson                     : NEB implementation
   FAccTs GmbH                                   : IRC, NEB, NEB-TS, DLPNO-Multilevel, CI-OPT
                                                   MM, QMMM, 2- and 3-layer-ONIOM, Crystal-QMMM,
                                                   LR-CPCM, SF, NACMEs, symmetry and pop. for TD-DFT,
                                                   nearIR, NL-DFT gradient (VV10), updates on ESD,
                                                   ML-optimized integration grids
   S Lehtola, MJT Oliveira, MAL Marques          : LibXC Library
   Liviu Ungur et al                             : ANISO software


 Your calculation uses the libint2 library for the computation of 2-el integrals
 For citations please refer to: http://libint.valeyev.net

 Your ORCA version has been built with support for libXC version: 5.1.0
 For citations please refer to: https://tddft.org/programs/libxc/

 This ORCA versions uses:
   CBLAS   interface :  Fast vector & matrix operations
   LAPACKE interface :  Fast linear algebra routines
   SCALAPACK package :  Parallel linear algebra routines
   Shared memory     :  Shared parallel matrices
   BLAS/LAPACK       :  OpenBLAS 0.3.15  USE64BITINT DYNAMIC_ARCH NO_AFFINITY SkylakeX SINGLE_THREADED
        Core in use  :  SkylakeX
   Copyright (c) 2011-2014, The OpenBLAS Project




***************************************
The coordinates will be read from file: /users/fjb15167/WWenergy/structures/Ni.xyz
***************************************


Your calculation utilizes the atom-pairwise dispersion correction
based on tight binding partial charges (D4)
Cite in your paper:
E.Caldeweyher, C.Bannwarth, S.Grimme, J.Chem.Phys., (2017), 147, 034112.
E.Caldeweyher, S.Ehlert, A.Hansen, H.Neugebauer, S.Grimme, J.Chem.Phys., (2018), in progress.
   

================================================================================

----- Orbital basis set information -----
Your calculation utilizes the basis: 6-31G(d)
   H-He, Li-Ne : W. J. Hehre, R. Ditchfield and J.A. Pople, J. Chem. Phys. 56, 2257 (1972).
                 Note: He and Ne are unpublished basis sets taken from the Gaussian program.
                 Note: Li and B from J. D. Dill and J. A. Pople, J. Chem. Phys. 62, 2921 (1975).
   Na - Ar     : M. M. Francl, W. J. Pietro, W. J. Hehre, J. S. Binkley, M. S. Gordon, 
                 D. J. DeFrees and J. A. Pople, J. Chem. Phys. 77, 3654 (1982).
   K - Zn      : V. A. Rassolov, J. A. Pople, M. A. Ratner, and T. L. Windus, J. Chem. Phys. 109, 1223 (1998).

----- AuxJ basis set information -----
Your calculation utilizes the AutoAux generation procedure.
  G. L. Stoychev, A. A. Auer, F. Neese, J. Chem. Theory Comput. 13, 554 (2017)

----- AuxC basis set information -----
Your calculation utilizes the AutoAux generation procedure.
  G. L. Stoychev, A. A. Auer, F. Neese, J. Chem. Theory Comput. 13, 554 (2017)

----- AuxJK basis set information -----
Your calculation utilizes the AutoAux generation procedure.
  G. L. Stoychev, A. A. Auer, F. Neese, J. Chem. Theory Comput. 13, 554 (2017)

================================================================================
                                        WARNINGS
                       Please study these warnings very carefully!
================================================================================


WARNING: Geometry Optimization
  ===> : Switching off AutoStart
         For restart on a previous wavefunction, please use MOREAD

INFO   : the flag for use of the SHARK integral package has been found!

================================================================================
                                       INPUT FILE
================================================================================
NAME = Ni_water.inp
|  1> ! OPT FREQ B3LYP 6-31G(d) D4 AUTOAUX CPCM(water)
|  2> 
|  3> %PAL NPROCS 4 END
|  4> 
|  5> %maxcore 3375
|  6> 
|  7> *xyzfile 0 1 /users/fjb15167/WWenergy/structures/Ni.xyz
|  8> 
|  9>                          ****END OF INPUT****
================================================================================

                       *****************************
                       * Geometry Optimization Run *
                       *****************************

Geometry optimization settings:
Update method            Update   .... BFGS
Choice of coordinates    CoordSys .... Z-matrix Internals
Initial Hessian          InHess   .... Almoef's Model

Convergence Tolerances:
Energy Change            TolE     ....  5.0000e-06 Eh
Max. Gradient            TolMAXG  ....  3.0000e-04 Eh/bohr
RMS Gradient             TolRMSG  ....  1.0000e-04 Eh/bohr
Max. Displacement        TolMAXD  ....  4.0000e-03 bohr
RMS Displacement         TolRMSD  ....  2.0000e-03 bohr
Strict Convergence                ....  False
------------------------------------------------------------------------------
                        ORCA OPTIMIZATION COORDINATE SETUP
------------------------------------------------------------------------------

The optimization will be done in new redundant internal coordinates
Making redundant internal coordinates   ...  (new redundants) done
Evaluating the initial hessian          ...  (Almloef) done
Evaluating the coordinates              ...  done
Calculating the B-matrix                .... done
Calculating the G-matrix                .... done
Diagonalizing the G-matrix              .... done
Small eigenvalue found = 5.612e-03
Small eigenvalue found = 6.497e-03
Small eigenvalue found = 1.315e-02
Small eigenvalue found = 1.507e-02
The first mode is                       ....   68
The number of degrees of freedom        ....   96

    -----------------------------------------------------------------
                    Redundant Internal Coordinates


    -----------------------------------------------------------------
         Definition                    Initial Value    Approx d2E/dq
    -----------------------------------------------------------------
      1. B(H   1,C   0)                  1.0884         0.362162   
      2. B(H   2,C   0)                  1.0930         0.356098   
      3. B(H   3,C   0)                  1.0896         0.360638   
      4. B(C   4,C   0)                  1.5139         0.396281   
      5. B(O   5,C   4)                  1.2417         0.964857   
      6. B(N   6,C   4)                  1.3742         0.592976   
      7. B(C   7,N   6)                  1.4653         0.424389   
      8. B(H   8,C   7)                  1.0955         0.352960   
      9. B(H   9,C   7)                  1.0901         0.359984   
     10. B(C  10,C   7)                  1.5256         0.379619   
     11. B(N  11,C  10)                  1.3658         0.611592   
     12. B(O  12,C  10)                  1.2416         0.965367   
     13. B(C  13,N  11)                  1.4541         0.442217   
     14. B(H  14,C  13)                  1.0982         0.349352   
     15. B(H  15,C  13)                  1.0953         0.353119   
     16. B(H  16,C  13)                  1.0873         0.363647   
     17. B(C  17,N  11)                  1.4548         0.441032   
     18. B(H  18,C  17)                  1.0970         0.351019   
     19. B(H  19,C  17)                  1.0881         0.362669   
     20. B(H  20,C  17)                  1.0934         0.355618   
     21. B(C  21,N   6)                  1.4797         0.402471   
     22. B(H  22,C  21)                  1.0954         0.353083   
     23. B(C  23,C  21)                  1.5339         0.368211   
     24. B(H  24,C  23)                  1.0952         0.353263   
     25. B(H  25,C  23)                  1.0949         0.353633   
     26. B(C  26,C  23)                  1.5277         0.376763   
     27. B(H  27,C  26)                  1.0944         0.354341   
     28. B(H  28,C  26)                  1.0929         0.356223   
     29. B(H  29,C  26)                  1.0948         0.353801   
     30. B(C  30,C  21)                  1.5295         0.374272   
     31. B(H  31,C  30)                  1.0932         0.355875   
     32. B(H  32,C  30)                  1.0918         0.357761   
     33. B(H  33,C  30)                  1.0941         0.354704   
     34. A(H   1,C   0,H   2)          108.5387         0.290590   
     35. A(H   3,C   0,C   4)          106.5966         0.327563   
     36. A(H   2,C   0,C   4)          109.9045         0.326880   
     37. A(H   2,C   0,H   3)          108.2734         0.290398   
     38. A(H   1,C   0,C   4)          113.7589         0.327791   
     39. A(H   1,C   0,H   3)          109.6347         0.291169   
     40. A(C   0,C   4,N   6)          119.3183         0.395151   
     41. A(O   5,C   4,N   6)          121.5064         0.460379   
     42. A(C   0,C   4,O   5)          119.1680         0.430814   
     43. A(C   4,N   6,C  21)          128.2319         0.393699   
     44. A(C   4,N   6,C   7)          117.5111         0.397378   
     45. A(C   7,N   6,C  21)          114.1905         0.371481   
     46. A(N   6,C   7,C  10)          111.1896         0.370082   
     47. A(N   6,C   7,H   8)          109.6699         0.328131   
     48. A(N   6,C   7,H   9)          108.0865         0.329200   
     49. A(H   8,C   7,C  10)          105.3978         0.324107   
     50. A(H   8,C   7,H   9)          108.8510         0.289912   
     51. A(H   9,C   7,C  10)          113.5726         0.325158   
     52. A(N  11,C  10,O  12)          122.6092         0.463032   
     53. A(C   7,C  10,O  12)          119.2701         0.427547   
     54. A(C   7,C  10,N  11)          118.1076         0.394318   
     55. A(C  13,N  11,C  17)          115.3657         0.380091   
     56. A(C  10,N  11,C  13)          125.4279         0.402449   
     57. A(C  10,N  11,C  17)          118.5135         0.402259   
     58. A(H  14,C  13,H  16)          108.5159         0.289905   
     59. A(N  11,C  13,H  16)          111.9790         0.332004   
     60. A(H  15,C  13,H  16)          108.8008         0.290393   
     61. A(H  14,C  13,H  15)          108.1512         0.288574   
     62. A(N  11,C  13,H  15)          108.9905         0.330393   
     63. A(N  11,C  13,H  14)          110.3165         0.329808   
     64. A(H  18,C  17,H  19)          109.4592         0.289999   
     65. A(N  11,C  17,H  19)          108.4896         0.331708   
     66. A(N  11,C  17,H  18)          110.6121         0.329921   
     67. A(H  19,C  17,H  20)          110.1247         0.290592   
     68. A(H  18,C  17,H  20)          108.6479         0.289108   
     69. A(N  11,C  17,H  20)          109.5027         0.330632   
     70. A(C  23,C  21,C  30)          114.1462         0.362570   
     71. A(H  22,C  21,C  30)          106.4065         0.323372   
     72. A(N   6,C  21,C  30)          114.0846         0.365838   
     73. A(H  22,C  21,C  23)          105.8595         0.322507   
     74. A(N   6,C  21,C  23)          112.0314         0.364817   
     75. A(N   6,C  21,H  22)          103.1465         0.325297   
     76. A(H  25,C  23,C  26)          109.7298         0.323807   
     77. A(H  24,C  23,C  26)          109.3236         0.323751   
     78. A(C  21,C  23,C  26)          112.6861         0.362981   
     79. A(H  24,C  23,H  25)          106.8591         0.289143   
     80. A(C  21,C  23,H  25)          110.3853         0.322590   
     81. A(C  21,C  23,H  24)          107.6632         0.322534   
     82. A(H  28,C  26,H  29)          108.3667         0.289543   
     83. A(H  27,C  26,H  29)          107.8454         0.289303   
     84. A(C  23,C  26,H  29)          110.5109         0.323832   
     85. A(H  27,C  26,H  28)          107.5265         0.289612   
     86. A(C  23,C  26,H  28)          111.8854         0.324195   
     87. A(C  23,C  26,H  27)          110.5613         0.323913   
     88. A(H  32,C  30,H  33)          108.7441         0.289854   
     89. A(H  31,C  30,H  33)          107.8216         0.289614   
     90. A(C  21,C  30,H  33)          110.2457         0.323615   
     91. A(H  31,C  30,H  32)          107.6024         0.290004   
     92. A(C  21,C  30,H  32)          112.8266         0.324071   
     93. A(C  21,C  30,H  31)          109.4455         0.323790   
     94. D(O   5,C   4,C   0,H   1)   -142.1752         0.011664   
     95. D(O   5,C   4,C   0,H   3)    -21.2248         0.011664   
     96. D(O   5,C   4,C   0,H   2)     95.8973         0.011664   
     97. D(N   6,C   4,C   0,H   1)     38.7883         0.011664   
     98. D(N   6,C   4,C   0,H   2)    -83.1391         0.011664   
     99. D(N   6,C   4,C   0,H   3)    159.7387         0.011664   
    100. D(C   7,N   6,C   4,O   5)     -2.3886         0.028286   
    101. D(C  21,N   6,C   4,C   0)     -0.2164         0.028286   
    102. D(C  21,N   6,C   4,O   5)   -179.2295         0.028286   
    103. D(C   7,N   6,C   4,C   0)    176.6246         0.028286   
    104. D(C  10,C   7,N   6,C   4)    124.9252         0.015356   
    105. D(H   8,C   7,N   6,C  21)     58.3727         0.015356   
    106. D(H   9,C   7,N   6,C   4)     -0.3715         0.015356   
    107. D(H   9,C   7,N   6,C  21)    176.9085         0.015356   
    108. D(H   8,C   7,N   6,C   4)   -118.9074         0.015356   
    109. D(C  10,C   7,N   6,C  21)    -57.7947         0.015356   
    110. D(O  12,C  10,C   7,H   9)   -136.1336         0.010755   
    111. D(O  12,C  10,C   7,H   8)    -17.0677         0.010755   
    112. D(O  12,C  10,C   7,N   6)    101.6970         0.010755   
    113. D(N  11,C  10,C   7,H   8)    164.2114         0.010755   
    114. D(N  11,C  10,C   7,N   6)    -77.0238         0.010755   
    115. D(N  11,C  10,C   7,H   9)     45.1455         0.010755   
    116. D(C  17,N  11,C  10,C   7)    175.7429         0.030225   
    117. D(C  13,N  11,C  10,O  12)   -172.9238         0.030225   
    118. D(C  13,N  11,C  10,C   7)      5.7515         0.030225   
    119. D(C  17,N  11,C  10,O  12)     -2.9324         0.030225   
    120. D(H  15,C  13,N  11,C  10)   -135.0915         0.016676   
    121. D(H  14,C  13,N  11,C  17)    -63.9636         0.016676   
    122. D(H  15,C  13,N  11,C  17)     54.6387         0.016676   
    123. D(H  14,C  13,N  11,C  10)    106.3062         0.016676   
    124. D(H  16,C  13,N  11,C  10)    -14.6647         0.016676   
    125. D(H  16,C  13,N  11,C  17)    175.0655         0.016676   
    126. D(H  20,C  17,N  11,C  13)    -56.2232         0.016586   
    127. D(H  20,C  17,N  11,C  10)    132.7938         0.016586   
    128. D(H  19,C  17,N  11,C  13)   -176.4421         0.016586   
    129. D(H  19,C  17,N  11,C  10)     12.5749         0.016586   
    130. D(H  18,C  17,N  11,C  13)     63.4877         0.016586   
    131. D(H  18,C  17,N  11,C  10)   -107.4954         0.016586   
    132. D(C  30,C  21,N   6,C   7)   -122.8496         0.013827   
    133. D(C  30,C  21,N   6,C   4)     54.0789         0.013827   
    134. D(C  23,C  21,N   6,C   7)    105.5253         0.013827   
    135. D(C  23,C  21,N   6,C   4)    -77.5462         0.013827   
    136. D(H  22,C  21,N   6,C   7)     -7.8815         0.013827   
    137. D(H  22,C  21,N   6,C   4)    169.0471         0.013827   
    138. D(C  26,C  23,C  21,C  30)     63.9299         0.010845   
    139. D(C  26,C  23,C  21,H  22)    -52.7586         0.010845   
    140. D(C  26,C  23,C  21,N   6)   -164.4760         0.010845   
    141. D(H  25,C  23,C  21,C  30)    -59.1413         0.010845   
    142. D(H  25,C  23,C  21,H  22)   -175.8297         0.010845   
    143. D(H  25,C  23,C  21,N   6)     72.4528         0.010845   
    144. D(H  24,C  23,C  21,C  30)   -175.4390         0.010845   
    145. D(H  24,C  23,C  21,H  22)     67.8725         0.010845   
    146. D(H  24,C  23,C  21,N   6)    -43.8449         0.010845   
    147. D(H  29,C  26,C  23,H  25)    179.2990         0.011324   
    148. D(H  29,C  26,C  23,H  24)    -63.8123         0.011324   
    149. D(H  29,C  26,C  23,C  21)     55.8628         0.011324   
    150. D(H  28,C  26,C  23,H  25)     58.4464         0.011324   
    151. D(H  28,C  26,C  23,H  24)    175.3351         0.011324   
    152. D(H  28,C  26,C  23,C  21)    -64.9898         0.011324   
    153. D(H  27,C  26,C  23,H  25)    -61.3749         0.011324   
    154. D(H  27,C  26,C  23,H  24)     55.5139         0.011324   
    155. D(H  27,C  26,C  23,C  21)    175.1889         0.011324   
    156. D(H  31,C  30,C  21,N   6)    159.6022         0.011183   
    157. D(H  33,C  30,C  21,H  22)    -71.8692         0.011183   
    158. D(H  33,C  30,C  21,N   6)     41.1675         0.011183   
    159. D(H  32,C  30,C  21,C  23)     49.9664         0.011183   
    160. D(H  32,C  30,C  21,H  22)    166.3379         0.011183   
    161. D(H  32,C  30,C  21,N   6)    -80.6255         0.011183   
    162. D(H  31,C  30,C  21,C  23)    -69.8059         0.011183   
    163. D(H  33,C  30,C  21,C  23)    171.7593         0.011183   
    164. D(H  31,C  30,C  21,H  22)     46.5656         0.011183   
    -----------------------------------------------------------------

Number of atoms                         .... 34
Number of degrees of freedom            .... 164

         *************************************************************
         *                GEOMETRY OPTIMIZATION CYCLE   1            *
         *************************************************************
---------------------------------
CARTESIAN COORDINATES (ANGSTROEM)
---------------------------------
  C     -2.586000   -1.487000   -0.907000
  H     -2.589000   -0.598000   -1.535000
  H     -3.465000   -1.457000   -0.258000
  H     -2.653000   -2.377000   -1.532000
  C     -1.333000   -1.639000   -0.071000
  O     -0.856000   -2.772000    0.104000
  N     -0.761000   -0.524000    0.493000
  C      0.406000   -0.725000    1.356000
  H      0.183000   -0.367000    2.367000
  H      0.615000   -1.794000    1.399000
  C      1.592000    0.110000    0.883000
  N      2.295000   -0.328000   -0.203000
  O      1.867000    1.165000    1.477000
  C      1.942000   -1.470000   -1.031000
  H      1.546000   -1.132000   -1.998000
  H      2.842000   -2.065000   -1.220000
  H      1.197000   -2.103000   -0.555000
  C      3.368000    0.508000   -0.719000
  H      3.074000    0.971000   -1.669000
  H      3.582000    1.285000    0.012000
  H      4.258000   -0.104000   -0.889000
  C     -1.209000    0.883000    0.397000
  H     -0.594000    1.392000    1.147000
  C     -0.836000    1.515000   -0.950000
  H      0.195000    1.225000   -1.179000
  H     -1.465000    1.109000   -1.749000
  C     -0.941000    3.039000   -0.935000
  H     -0.587000    3.458000   -1.882000
  H     -1.971000    3.375000   -0.791000
  H     -0.326000    3.458000   -0.132000
  C     -2.665000    1.104000    0.810000
  H     -2.816000    2.157000    1.062000
  H     -3.373000    0.849000    0.019000
  H     -2.901000    0.510000    1.698000

----------------------------
CARTESIAN COORDINATES (A.U.)
----------------------------
  NO LB      ZA    FRAG     MASS         X           Y           Z
   0 C     6.0000    0    12.011   -4.886832   -2.810023   -1.713982
   1 H     1.0000    0     1.008   -4.892501   -1.130056   -2.900730
   2 H     1.0000    0     1.008   -6.547901   -2.753331   -0.487549
   3 H     1.0000    0     1.008   -5.013443   -4.491879   -2.895060
   4 C     6.0000    0    12.011   -2.519005   -3.097261   -0.134171
   5 O     8.0000    0    15.999   -1.617606   -5.238321    0.196532
   6 N     7.0000    0    14.007   -1.438082   -0.990216    0.931635
   7 C     6.0000    0    12.011    0.767229   -1.370051    2.562469
   8 H     1.0000    0     1.008    0.345820   -0.693529    4.472982
   9 H     1.0000    0     1.008    1.162182   -3.390169    2.643727
  10 C     6.0000    0    12.011    3.008444    0.207870    1.668628
  11 N     7.0000    0    14.007    4.336921   -0.619830   -0.383614
  12 O     8.0000    0    15.999    3.528119    2.201531    2.791125
  13 C     6.0000    0    12.011    3.669848   -2.777897   -1.948308
  14 H     1.0000    0     1.008    2.921517   -2.139170   -3.775673
  15 H     1.0000    0     1.008    5.370602   -3.902284   -2.305466
  16 H     1.0000    0     1.008    2.262002   -3.974094   -1.048798
  17 C     6.0000    0    12.011    6.364598    0.959981   -1.358713
  18 H     1.0000    0     1.008    5.809018    1.834924   -3.153953
  19 H     1.0000    0     1.008    6.768999    2.428298    0.022677
  20 H     1.0000    0     1.008    8.046454   -0.196532   -1.679967
  21 C     6.0000    0    12.011   -2.284679    1.668628    0.750221
  22 H     1.0000    0     1.008   -1.122497    2.630499    2.167516
  23 C     6.0000    0    12.011   -1.579811    2.862935   -1.795240
  24 H     1.0000    0     1.008    0.368497    2.314915   -2.227987
  25 H     1.0000    0     1.008   -2.768449    2.095706   -3.305131
  26 C     6.0000    0    12.011   -1.778232    5.742878   -1.766894
  27 H     1.0000    0     1.008   -1.109269    6.534673   -3.556465
  28 H     1.0000    0     1.008   -3.724650    6.377826   -1.494773
  29 H     1.0000    0     1.008   -0.616051    6.534673   -0.249444
  30 C     6.0000    0    12.011   -5.036120    2.086258    1.530678
  31 H     1.0000    0     1.008   -5.321469    4.076139    2.006889
  32 H     1.0000    0     1.008   -6.374046    1.604377    0.035905
  33 H     1.0000    0     1.008   -5.482096    0.963760    3.208755

--------------------------------
INTERNAL COORDINATES (ANGSTROEM)
--------------------------------
 C      0   0   0     0.000000000000     0.00000000     0.00000000
 H      1   0   0     1.088445680776     0.00000000     0.00000000
 H      1   2   0     1.093042542630   108.53870737     0.00000000
 H      1   2   3     1.089593502183   109.63465752   118.08430171
 C      1   2   3     1.513938241805   113.75885438   237.31933208
 O      5   1   2     1.241709708426   119.16800064   217.82480087
 N      5   1   2     1.374228874678   119.31834807    38.78832469
 C      7   5   1     1.465284613991   117.51113731   176.62461646
 H      8   7   5     1.095451505088   109.66990437   241.09262925
 H      8   7   5     1.090087611158   108.08645554   359.62849422
 C      8   7   5     1.525631016989   111.18961397   124.92523544
 N     11   8   7     1.365814409061   118.10763609   282.97616381
 O     11   8   7     1.241565946698   119.27012939   101.69701544
 C     12  11   8     1.454082872466   125.42790647     5.75152915
 H     14  12  11     1.098248150465   110.31649823   106.30618850
 H     14  12  11     1.095329174267   108.99048089   224.90845482
 H     14  12  11     1.087331596156   111.97903890   345.33525958
 C     12  11   8     1.454813046408   118.51346465   175.74291762
 H     18  12  11     1.096952596970   110.61210741   252.50462279
 H     18  12  11     1.088065255396   108.48955955    12.57487093
 H     18  12  11     1.093409346951   109.50265052   132.79378444
 C      7   5   1     1.479719230124   128.23185601   359.78363163
 H     22   7   5     1.095356562951   103.14653343   169.04709477
 C     22   7   5     1.533936765320   112.03135468   282.45384468
 H     24  22   7     1.095217786561   107.66320303   316.15505636
 H     24  22   7     1.094932874655   110.38533669    72.45276824
 C     24  22   7     1.527686486161   112.68610338   195.52395930
 H     27  24  22     1.094388413681   110.56131218   175.18894722
 H     27  24  22     1.092946476274   111.88535208   295.01019994
 H     27  24  22     1.094803635361   110.51091021    55.86277772
 C     22   7   5     1.529492072552   114.08463138    54.07894713
 H     31  22   7     1.093212696597   109.44547631   159.60221583
 H     31  22   7     1.091773786093   112.82655810   279.37452121
 H     31  22   7     1.094109683715   110.24571603    41.16746236

---------------------------
INTERNAL COORDINATES (A.U.)
---------------------------
 C      0   0   0     0.000000000000     0.00000000     0.00000000
 H      1   0   0     2.056864248316     0.00000000     0.00000000
 H      1   2   0     2.065551058296   108.53870737     0.00000000
 H      1   2   3     2.059033316427   109.63465752   118.08430171
 C      1   2   3     2.860928660682   113.75885438   237.31933208
 O      5   1   2     2.346491286757   119.16800064   217.82480087
 N      5   1   2     2.596916218469   119.31834807    38.78832469
 C      7   5   1     2.768986628692   117.51113731   176.62461646
 H      8   7   5     2.070103337609   109.66990437   241.09262925
 H      8   7   5     2.059967047069   108.08645554   359.62849422
 C      8   7   5     2.883024803526   111.18961397   124.92523544
 N     11   8   7     2.581015182890   118.10763609   282.97616381
 O     11   8   7     2.346219616462   119.27012939   101.69701544
 C     12  11   8     2.747818404987   125.42790647     5.75152915
 H     14  12  11     2.075388231465   110.31649823   106.30618850
 H     14  12  11     2.069872165858   108.99048089   224.90845482
 H     14  12  11     2.054758933495   111.97903890   345.33525958
 C     12  11   8     2.749198233767   118.51346465   175.74291762
 H     18  12  11     2.072939990168   110.61210741   252.50462279
 H     18  12  11     2.056145348534   108.48955955    12.57487093
 H     18  12  11     2.066244218007   109.50265052   132.79378444
 C      7   5   1     2.796264100032   128.23185601   359.78363163
 H     22   7   5     2.069923922971   103.14653343   169.04709477
 C     22   7   5     2.898720393208   112.03135468   282.45384468
 H     24  22   7     2.069661673600   107.66320303   316.15505636
 H     24  22   7     2.069123268125   110.38533669    72.45276824
 C     24  22   7     2.886909077337   112.68610338   195.52395930
 H     27  24  22     2.068094385994   110.56131218   175.18894722
 H     27  24  22     2.065369519192   111.88535208   295.01019994
 H     27  24  22     2.068879041254   110.51091021    55.86277772
 C     22   7   5     2.890321141127   114.08463138    54.07894713
 H     31  22   7     2.065872602693   109.44547631   159.60221583
 H     31  22   7     2.063153455910   112.82655810   279.37452121
 H     31  22   7     2.067567662693   110.24571603    41.16746236

---------------------
BASIS SET INFORMATION
---------------------
There are 4 groups of distinct atoms

 Group   1 Type C   : 10s4p1d contracted to 3s2p1d pattern {631/31/1}
 Group   2 Type H   : 4s contracted to 2s pattern {31}
 Group   3 Type O   : 10s4p1d contracted to 3s2p1d pattern {631/31/1}
 Group   4 Type N   : 10s4p1d contracted to 3s2p1d pattern {631/31/1}

Atom   0C    basis set group =>   1
Atom   1H    basis set group =>   2
Atom   2H    basis set group =>   2
Atom   3H    basis set group =>   2
Atom   4C    basis set group =>   1
Atom   5O    basis set group =>   3
Atom   6N    basis set group =>   4
Atom   7C    basis set group =>   1
Atom   8H    basis set group =>   2
Atom   9H    basis set group =>   2
Atom  10C    basis set group =>   1
Atom  11N    basis set group =>   4
Atom  12O    basis set group =>   3
Atom  13C    basis set group =>   1
Atom  14H    basis set group =>   2
Atom  15H    basis set group =>   2
Atom  16H    basis set group =>   2
Atom  17C    basis set group =>   1
Atom  18H    basis set group =>   2
Atom  19H    basis set group =>   2
Atom  20H    basis set group =>   2
Atom  21C    basis set group =>   1
Atom  22H    basis set group =>   2
Atom  23C    basis set group =>   1
Atom  24H    basis set group =>   2
Atom  25H    basis set group =>   2
Atom  26C    basis set group =>   1
Atom  27H    basis set group =>   2
Atom  28H    basis set group =>   2
Atom  29H    basis set group =>   2
Atom  30C    basis set group =>   1
Atom  31H    basis set group =>   2
Atom  32H    basis set group =>   2
Atom  33H    basis set group =>   2
---------------------------------
AUXILIARY/J BASIS SET INFORMATION
---------------------------------
There are 4 groups of distinct atoms

 Group   1 Type C   : 13s11p10d2f contracted to 13s11p10d2f pattern {1111111111111/11111111111/1111111111/11}
 Group   2 Type H   : 9s2p contracted to 9s2p pattern {111111111/11}
 Group   3 Type O   : 14s11p10d2f contracted to 14s11p10d2f pattern {11111111111111/11111111111/1111111111/11}
 Group   4 Type N   : 14s11p10d2f contracted to 14s11p10d2f pattern {11111111111111/11111111111/1111111111/11}

Atom   0C    basis set group =>   1
Atom   1H    basis set group =>   2
Atom   2H    basis set group =>   2
Atom   3H    basis set group =>   2
Atom   4C    basis set group =>   1
Atom   5O    basis set group =>   3
Atom   6N    basis set group =>   4
Atom   7C    basis set group =>   1
Atom   8H    basis set group =>   2
Atom   9H    basis set group =>   2
Atom  10C    basis set group =>   1
Atom  11N    basis set group =>   4
Atom  12O    basis set group =>   3
Atom  13C    basis set group =>   1
Atom  14H    basis set group =>   2
Atom  15H    basis set group =>   2
Atom  16H    basis set group =>   2
Atom  17C    basis set group =>   1
Atom  18H    basis set group =>   2
Atom  19H    basis set group =>   2
Atom  20H    basis set group =>   2
Atom  21C    basis set group =>   1
Atom  22H    basis set group =>   2
Atom  23C    basis set group =>   1
Atom  24H    basis set group =>   2
Atom  25H    basis set group =>   2
Atom  26C    basis set group =>   1
Atom  27H    basis set group =>   2
Atom  28H    basis set group =>   2
Atom  29H    basis set group =>   2
Atom  30C    basis set group =>   1
Atom  31H    basis set group =>   2
Atom  32H    basis set group =>   2
Atom  33H    basis set group =>   2
---------------------------------
AUXILIARY/C BASIS SET INFORMATION
---------------------------------
There are 4 groups of distinct atoms

 Group   1 Type C   : 13s11p10d2f contracted to 13s11p10d2f pattern {1111111111111/11111111111/1111111111/11}
 Group   2 Type H   : 9s2p contracted to 9s2p pattern {111111111/11}
 Group   3 Type O   : 14s11p10d2f contracted to 14s11p10d2f pattern {11111111111111/11111111111/1111111111/11}
 Group   4 Type N   : 14s11p10d2f contracted to 14s11p10d2f pattern {11111111111111/11111111111/1111111111/11}

Atom   0C    basis set group =>   1
Atom   1H    basis set group =>   2
Atom   2H    basis set group =>   2
Atom   3H    basis set group =>   2
Atom   4C    basis set group =>   1
Atom   5O    basis set group =>   3
Atom   6N    basis set group =>   4
Atom   7C    basis set group =>   1
Atom   8H    basis set group =>   2
Atom   9H    basis set group =>   2
Atom  10C    basis set group =>   1
Atom  11N    basis set group =>   4
Atom  12O    basis set group =>   3
Atom  13C    basis set group =>   1
Atom  14H    basis set group =>   2
Atom  15H    basis set group =>   2
Atom  16H    basis set group =>   2
Atom  17C    basis set group =>   1
Atom  18H    basis set group =>   2
Atom  19H    basis set group =>   2
Atom  20H    basis set group =>   2
Atom  21C    basis set group =>   1
Atom  22H    basis set group =>   2
Atom  23C    basis set group =>   1
Atom  24H    basis set group =>   2
Atom  25H    basis set group =>   2
Atom  26C    basis set group =>   1
Atom  27H    basis set group =>   2
Atom  28H    basis set group =>   2
Atom  29H    basis set group =>   2
Atom  30C    basis set group =>   1
Atom  31H    basis set group =>   2
Atom  32H    basis set group =>   2
Atom  33H    basis set group =>   2
----------------------------------
AUXILIARY/JK BASIS SET INFORMATION
----------------------------------
There are 4 groups of distinct atoms

 Group   1 Type C   : 13s11p10d2f contracted to 13s11p10d2f pattern {1111111111111/11111111111/1111111111/11}
 Group   2 Type H   : 9s2p contracted to 9s2p pattern {111111111/11}
 Group   3 Type O   : 14s11p10d2f contracted to 14s11p10d2f pattern {11111111111111/11111111111/1111111111/11}
 Group   4 Type N   : 14s11p10d2f contracted to 14s11p10d2f pattern {11111111111111/11111111111/1111111111/11}

Atom   0C    basis set group =>   1
Atom   1H    basis set group =>   2
Atom   2H    basis set group =>   2
Atom   3H    basis set group =>   2
Atom   4C    basis set group =>   1
Atom   5O    basis set group =>   3
Atom   6N    basis set group =>   4
Atom   7C    basis set group =>   1
Atom   8H    basis set group =>   2
Atom   9H    basis set group =>   2
Atom  10C    basis set group =>   1
Atom  11N    basis set group =>   4
Atom  12O    basis set group =>   3
Atom  13C    basis set group =>   1
Atom  14H    basis set group =>   2
Atom  15H    basis set group =>   2
Atom  16H    basis set group =>   2
Atom  17C    basis set group =>   1
Atom  18H    basis set group =>   2
Atom  19H    basis set group =>   2
Atom  20H    basis set group =>   2
Atom  21C    basis set group =>   1
Atom  22H    basis set group =>   2
Atom  23C    basis set group =>   1
Atom  24H    basis set group =>   2
Atom  25H    basis set group =>   2
Atom  26C    basis set group =>   1
Atom  27H    basis set group =>   2
Atom  28H    basis set group =>   2
Atom  29H    basis set group =>   2
Atom  30C    basis set group =>   1
Atom  31H    basis set group =>   2
Atom  32H    basis set group =>   2
Atom  33H    basis set group =>   2


           ************************************************************
           *        Program running with 4 parallel MPI-processes     *
           *              working on a common directory               *
           ************************************************************
------------------------------------------------------------------------------
                           ORCA GTO INTEGRAL CALCULATION
                           -- RI-GTO INTEGRALS CHOSEN --
------------------------------------------------------------------------------
------------------------------------------------------------------------------
                   ___                                                        
                  /   \      - P O W E R E D   B Y -                         
                 /     \                                                     
                 |  |  |   _    _      __       _____    __    __             
                 |  |  |  | |  | |    /  \     |  _  \  |  |  /  |          
                  \  \/   | |  | |   /    \    | | | |  |  | /  /          
                 / \  \   | |__| |  /  /\  \   | |_| |  |  |/  /          
                |  |  |   |  __  | /  /__\  \  |    /   |      \           
                |  |  |   | |  | | |   __   |  |    \   |  |\   \          
                \     /   | |  | | |  |  |  |  | |\  \  |  | \   \       
                 \___/    |_|  |_| |__|  |__|  |_| \__\ |__|  \__/        
                                                                              
                      - O R C A' S   B I G   F R I E N D -                    
                                      &                                       
                       - I N T E G R A L  F E E D E R -                       
                                                                              
 v1 FN, 2020, v2 2021                                                         
------------------------------------------------------------------------------


Reading SHARK input file Ni_water.SHARKINP.tmp ... ok
----------------------
SHARK INTEGRAL PACKAGE
----------------------

Number of atoms                             ...     34
Number of basis functions                   ...    236
Number of shells                            ...    124
Maximum angular momentum                    ...      2
Integral batch strategy                     ... SHARK/LIBINT Hybrid
RI-J (if used) integral strategy            ... SPLIT-RIJ (Revised 2003 algorithm where possible)
Printlevel                                  ...      1
Contraction scheme used                     ... SEGMENTED contraction
Coulomb Range Separation                    ... NOT USED
Exchange Range Separation                   ... NOT USED
Finite Nucleus Model                        ... NOT USED
Auxiliary Coulomb fitting basis             ... AVAILABLE
   # of basis functions in Aux-J            ...   1844
   # of shells in Aux-J                     ...    728
   Maximum angular momentum in Aux-J        ...      3
Auxiliary J/K fitting basis                 ... AVAILABLE
   # of basis functions in Aux-JK           ...   1844
   # of shells in Aux-JK                    ...    728
   Maximum angular momentum in Aux-JK       ...      3
Auxiliary Correlation fitting basis         ... AVAILABLE
   # of basis functions in Aux-C            ...   1844
   # of shells in Aux-C                     ...    728
   Maximum angular momentum in Aux-C        ...      3
Auxiliary 'external' fitting basis          ... NOT available
Integral threshold                          ...     2.500000e-11
Primitive cut-off                           ...     2.500000e-12
Primitive pair pre-selection threshold      ...     2.500000e-12

Calculating pre-screening integrals         ... done (  0.1 sec) Dimension = 124
Organizing shell pair data                  ... done (  0.7 sec)
Shell pair information
Total number of shell pairs                 ...      7750
Shell pairs after pre-screening             ...      6863
Total number of primitive shell pairs       ...     42549
Primitive shell pairs kept                  ...     22280
          la=0 lb=0:   2912 shell pairs
          la=1 lb=0:   2132 shell pairs
          la=1 lb=1:    398 shell pairs
          la=2 lb=0:    961 shell pairs
          la=2 lb=1:    369 shell pairs
          la=2 lb=2:     91 shell pairs

Calculating one electron integrals          ... done (  0.0 sec)
Calculating RI/J V-Matrix + Cholesky decomp.... done (  0.2 sec)
Calculating RI/JK V-Matrix + Cholesky decomp... done (  0.2 sec)
Calculating RI/C V-Matrix + Cholesky decomp.... done (  0.2 sec)
Calculating Nuclear repulsion               ... done (  0.0 sec) ENN=   1014.900127189518 Eh

SHARK setup successfully completed in   1.9 seconds

Maximum memory used throughout the entire GTOINT-calculation: 31.1 MB


           ************************************************************
           *        Program running with 4 parallel MPI-processes     *
           *              working on a common directory               *
           ************************************************************
-------------------------------------------------------------------------------
                                 ORCA SCF
-------------------------------------------------------------------------------

------------
SCF SETTINGS
------------
Hamiltonian:
 Density Functional     Method          .... DFT(GTOs)
 Exchange Functional    Exchange        .... B88
   X-Alpha parameter    XAlpha          ....  0.666667
   Becke's b parameter  XBeta           ....  0.004200
 Correlation Functional Correlation     .... LYP
 LDA part of GGA corr.  LDAOpt          .... VWN-5
 Gradients option       PostSCFGGA      .... off
 Hybrid DFT is turned on
   Fraction HF Exchange ScalHFX         ....  0.200000
   Scaling of DF-GGA-X  ScalDFX         ....  0.720000
   Scaling of DF-GGA-C  ScalDFC         ....  0.810000
   Scaling of DF-LDA-C  ScalLDAC        ....  1.000000
   Perturbative correction              ....  0.000000
   Density functional embedding theory  .... OFF
   NL short-range parameter             ....  4.800000
 RI-approximation to the Coulomb term is turned on
   Number of AuxJ basis functions       .... 1844
   RIJ-COSX (HFX calculated with COS-X)).... on


General Settings:
 Integral files         IntName         .... Ni_water
 Hartree-Fock type      HFTyp           .... RHF
 Total Charge           Charge          ....    0
 Multiplicity           Mult            ....    1
 Number of Electrons    NEL             ....  110
 Basis Dimension        Dim             ....  236
 Nuclear Repulsion      ENuc            ....   1014.9001271895 Eh

Convergence Acceleration:
 DIIS                   CNVDIIS         .... on
   Start iteration      DIISMaxIt       ....    12
   Startup error        DIISStart       ....  0.200000
   # of expansion vecs  DIISMaxEq       ....     5
   Bias factor          DIISBfac        ....   1.050
   Max. coefficient     DIISMaxC        ....  10.000
 Trust-Rad. Augm. Hess. CNVTRAH         .... auto
   Auto Start mean grad. ratio tolernc. ....  1.125000
   Auto Start start iteration           ....    20
   Auto Start num. interpolation iter.  ....    10
   Max. Number of Micro iterations      ....    16
   Max. Number of Macro iterations      .... Maxiter - #DIIS iter
   Number of Davidson start vectors     ....     2
   Converg. threshold I  (grad. norm)   ....   1.000e-05
   Converg. threshold II (energy diff.) ....   1.000e-08
   Grad. Scal. Fac. for Micro threshold ....   0.100
   Minimum threshold for Micro iter.    ....   0.010
   NR start threshold (gradient norm)   ....   0.001
   Initial trust radius                 ....   0.400
   Minimum AH scaling param. (alpha)    ....   1.000
   Maximum AH scaling param. (alpha)    .... 1000.000
   Orbital update algorithm             .... Taylor
   White noise on init. David. guess    .... on
   Maximum white noise                  ....   0.010
   Quad. conv. algorithm                .... NR
 SOSCF                  CNVSOSCF        .... on
   Start iteration      SOSCFMaxIt      ....   150
   Startup grad/error   SOSCFStart      ....  0.003300
 Level Shifting         CNVShift        .... on
   Level shift para.    LevelShift      ....    0.2500
   Turn off err/grad.   ShiftErr        ....    0.0010
 Zerner damping         CNVZerner       .... off
 Static damping         CNVDamp         .... on
   Fraction old density DampFac         ....    0.7000
   Max. Damping (<1)    DampMax         ....    0.9800
   Min. Damping (>=0)   DampMin         ....    0.0000
   Turn off err/grad.   DampErr         ....    0.1000
 Fernandez-Rico         CNVRico         .... off

SCF Procedure:
 Maximum # iterations   MaxIter         ....   125
 SCF integral mode      SCFMode         .... Direct
   Integral package                     .... SHARK and LIBINT hybrid scheme
 Reset frequency        DirectResetFreq ....    20
 Integral Threshold     Thresh          ....  2.500e-11 Eh
 Primitive CutOff       TCut            ....  2.500e-12 Eh

Convergence Tolerance:
 Convergence Check Mode ConvCheckMode   .... Total+1el-Energy
 Convergence forced     ConvForced      .... 0
 Energy Change          TolE            ....  1.000e-08 Eh
 1-El. energy change                    ....  1.000e-05 Eh
 Orbital Gradient       TolG            ....  1.000e-05
 Orbital Rotation angle TolX            ....  1.000e-05
 DIIS Error             TolErr          ....  5.000e-07


Diagonalization of the overlap matrix:
Smallest eigenvalue                        ... 3.078e-03
Time for diagonalization                   ...    0.011 sec
Threshold for overlap eigenvalues          ... 1.000e-08
Number of eigenvalues below threshold      ... 0
Time for construction of square roots      ...    0.006 sec
Total time needed                          ...    0.018 sec

Time for model grid setup =    0.249 sec

------------------------------
INITIAL GUESS: MODEL POTENTIAL
------------------------------
Loading Hartree-Fock densities                     ... done
Calculating cut-offs                               ... done
Initializing the effective Hamiltonian             ... done
Setting up the integral package (SHARK)            ... done
Starting the Coulomb interaction                   ... done (   0.2 sec)
Reading the grid                                   ... done
Mapping shells                                     ... done
Starting the XC term evaluation                    ... done (   0.2 sec)
  promolecular density results
     # of electrons  =    109.978183819
     EX              =    -86.925642766
     EC              =     -3.679143140
     EX+EC           =    -90.604785905
Transforming the Hamiltonian                       ... done (   0.0 sec)
Diagonalizing the Hamiltonian                      ... done (   0.0 sec)
Back transforming the eigenvectors                 ... done (   0.0 sec)
Now organizing SCF variables                       ... done
                      ------------------
                      INITIAL GUESS DONE (   0.7 sec)
                      ------------------
-------------------
DFT GRID GENERATION
-------------------

General Integration Accuracy     IntAcc      ... 4.388
Radial Grid Type                 RadialGrid  ... OptM3 with GC (2021)
Angular Grid (max. ang.)         AngularGrid ... 4 (Lebedev-302)
Angular grid pruning method      GridPruning ... 4 (adaptive)
Weight generation scheme         WeightScheme... Becke
Basis function cutoff            BFCut       ... 1.0000e-11
Integration weight cutoff        WCut        ... 1.0000e-14
Angular grids for H and He will be reduced by one unit
Partially contracted basis set               ... off
Rotationally invariant grid construction     ... off

Total number of grid points                  ...   147012
Total number of batches                      ...     2314
Average number of points per batch           ...       63
Average number of grid points per atom       ...     4324
Time for grid setup =    1.185 sec

--------------------
COSX GRID GENERATION
--------------------

GRIDX 1
-------
General Integration Accuracy     IntAcc      ... 3.816
Radial Grid Type                 RadialGrid  ... OptM3 with GC (2021)
Angular Grid (max. ang.)         AngularGrid ... 1 (Lebedev-50)
Angular grid pruning method      GridPruning ... 4 (adaptive)
Weight generation scheme         WeightScheme... Becke
Basis function cutoff            BFCut       ... 1.0000e-11
Integration weight cutoff        WCut        ... 1.0000e-14
Angular grids for H and He will be reduced by one unit
Partially contracted basis set               ... on
Rotationally invariant grid construction     ... off

Total number of grid points                  ...    18751
Total number of batches                      ...      313
Average number of points per batch           ...       59
Average number of grid points per atom       ...      552
UseSFitting                                  ... on

GRIDX 2
-------
General Integration Accuracy     IntAcc      ... 4.020
Radial Grid Type                 RadialGrid  ... OptM3 with GC (2021)
Angular Grid (max. ang.)         AngularGrid ... 2 (Lebedev-110)
Angular grid pruning method      GridPruning ... 4 (adaptive)
Weight generation scheme         WeightScheme... Becke
Basis function cutoff            BFCut       ... 1.0000e-11
Integration weight cutoff        WCut        ... 1.0000e-14
Angular grids for H and He will be reduced by one unit
Partially contracted basis set               ... on
Rotationally invariant grid construction     ... off

Total number of grid points                  ...    39200
Total number of batches                      ...      628
Average number of points per batch           ...       62
Average number of grid points per atom       ...     1153
UseSFitting                                  ... on

GRIDX 3
-------
General Integration Accuracy     IntAcc      ... 4.338
Radial Grid Type                 RadialGrid  ... OptM3 with GC (2021)
Angular Grid (max. ang.)         AngularGrid ... 3 (Lebedev-194)
Angular grid pruning method      GridPruning ... 4 (adaptive)
Weight generation scheme         WeightScheme... Becke
Basis function cutoff            BFCut       ... 1.0000e-11
Integration weight cutoff        WCut        ... 1.0000e-14
Angular grids for H and He will be reduced by one unit
Partially contracted basis set               ... on
Rotationally invariant grid construction     ... off

Total number of grid points                  ...    85275
Total number of batches                      ...     1351
Average number of points per batch           ...       63
Average number of grid points per atom       ...     2508
UseSFitting                                  ... on

Time for X-Grid setup             =    1.174 sec


--------------------
CPCM SOLVATION MODEL
--------------------
CPCM parameters:
  Epsilon                                         ...      80.4000
  Refrac                                          ...       1.3300
  Rsolv                                           ...       1.3000
  Surface type                                    ... GAUSSIAN VDW
  Epsilon function type                           ...         CPCM
Radii:
 Radius for C  used is    3.8550 Bohr (=   2.0400 Ang.)
 Radius for H  used is    2.4944 Bohr (=   1.3200 Ang.)
 Radius for O  used is    3.4469 Bohr (=   1.8240 Ang.)
 Radius for N  used is    3.5149 Bohr (=   1.8600 Ang.)
Calculating surface                               ...        done! (  0.0s)
GEPOL surface points                              ...         1729
GEPOL Volume                                      ...    1772.2364
GEPOL Surface-area                                ...     927.2863
Calculating surface distance matrix               ...        done! (  0.0s)
Performing Cholesky decomposition & store         ...        done! (  0.1s)
Overall time for CPCM initialization              ...                 0.1s
--------------
SCF ITERATIONS
--------------
ITER       Energy         Delta-E        Max-DP      RMS-DP      [F,P]     Damp
               ***  Starting incremental Fock matrix formation  ***
  0   -652.2203668574   0.000000000000 0.09408265  0.00216583  0.2725755 0.7000
  1   -652.4354760476  -0.215109190208 0.05296812  0.00145885  0.1103870 0.7000
                               ***Turning on DIIS***
  2   -652.5184028470  -0.082926799418 0.06412407  0.00228941  0.0373511 0.0000
  3   -652.6488129250  -0.130410077960 0.03535305  0.00098608  0.0537935 0.0000
  4   -652.6772693413  -0.028456416323 0.00868081  0.00033112  0.0118909 0.0000
  5   -652.6791069228  -0.001837581522 0.00402357  0.00010105  0.0064377 0.0000
                      *** Initiating the SOSCF procedure ***
                           *** Shutting down DIIS ***
                      *** Re-Reading the Fockian *** 
                      *** Removing any level shift *** 
ITER      Energy       Delta-E        Grad      Rot      Max-DP    RMS-DP
  6   -652.67925133  -0.0001444078  0.000268  0.000268  0.001208  0.000043
               *** Restarting incremental Fock matrix formation ***
  7   -652.67922032   0.0000310127  0.000231  0.000884  0.001453  0.000026
  8   -652.67921537   0.0000049517  0.000415  0.000624  0.000945  0.000016
  9   -652.67922341  -0.0000080454  0.000058  0.000161  0.000245  0.000006
 10   -652.67922314   0.0000002676  0.000119  0.000109  0.000182  0.000004
 11   -652.67922352  -0.0000003766  0.000007  0.000010  0.000026  0.000001
 12   -652.67922352   0.0000000046  0.000008  0.000005  0.000012  0.000000
                  ***Gradient check signals convergence***
              ***Rediagonalizing the Fockian in SOSCF/NRSCF***

               *****************************************************
               *                     SUCCESS                       *
               *           SCF CONVERGED AFTER  13 CYCLES          *
               *****************************************************

Old exchange energy                            =    -17.751959539 Eh
New exchange energy                            =    -17.751974166 Eh
Exchange energy change after final integration =     -0.000014627 Eh
Total energy after final integration           =   -652.679238136 Eh
Final COS-X integration done in                =     9.999 sec

----------------
TOTAL SCF ENERGY
----------------

Total Energy       :         -652.67923814 Eh          -17760.30499 eV

Components:
Nuclear Repulsion  :         1014.90012719 Eh           27616.83647 eV
Electronic Energy  :        -1667.57936533 Eh          -45377.14146 eV
One Electron Energy:        -2901.66626601 Eh          -78958.35326 eV
Two Electron Energy:         1234.08690069 Eh           33581.21180 eV
Max COSX asymmetry :            0.00000297 Eh               0.00008 eV
CPCM Dielectric    :           -0.01772701 Eh              -0.48238 eV

Virial components:
Potential Energy   :        -1301.54697016 Eh          -35416.89362 eV
Kinetic Energy     :          648.86773202 Eh           17656.58863 eV
Virial Ratio       :            2.00587409


DFT components:
N(Alpha)           :       54.999890764080 electrons
N(Beta)            :       54.999890764080 electrons
N(Total)           :      109.999781528160 electrons
E(X)               :      -70.455188628333 Eh       
E(C)               :       -4.337633863362 Eh       
E(XC)              :      -74.792822491695 Eh       
DFET-embed. en.    :        0.000000000000 Eh       
CPCM Solvation Model Properties:
Surface-charge          :           -0.02198776
Charge-correction       :           -0.00028505 Eh              -0.00776 eV
Free-energy (cav+disp)  :  This term is not implemented in the current solvation scheme

---------------
SCF CONVERGENCE
---------------

  Last Energy change         ...    7.0313e-09  Tolerance :   1.0000e-08
  Last MAX-Density change    ...    2.2204e-15  Tolerance :   1.0000e-07
  Last RMS-Density change    ...    3.3993e-17  Tolerance :   5.0000e-09
  Last Orbital Gradient      ...    6.5405e-07  Tolerance :   1.0000e-05
  Last Orbital Rotation      ...    2.4013e-06  Tolerance :   1.0000e-05

             **** THE GBW FILE WAS UPDATED (Ni_water.gbw) ****
             **** DENSITY Ni_water.scfp WAS UPDATED ****
             **** ENERGY FILE WAS UPDATED (Ni_water.en.tmp) ****
             **** THE GBW FILE WAS UPDATED (Ni_water.gbw) ****
             **** DENSITY Ni_water.scfp WAS UPDATED ****
----------------
ORBITAL ENERGIES
----------------

  NO   OCC          E(Eh)            E(eV) 
   0   2.0000     -19.108528      -519.9695 
   1   2.0000     -19.107819      -519.9502 
   2   2.0000     -14.358736      -390.7211 
   3   2.0000     -14.357640      -390.6912 
   4   2.0000     -10.283054      -279.8161 
   5   2.0000     -10.279640      -279.7232 
   6   2.0000     -10.214073      -277.9391 
   7   2.0000     -10.208481      -277.7869 
   8   2.0000     -10.196842      -277.4702 
   9   2.0000     -10.193754      -277.3862 
  10   2.0000     -10.170054      -276.7412 
  11   2.0000     -10.168546      -276.7002 
  12   2.0000     -10.161315      -276.5035 
  13   2.0000     -10.158775      -276.4343 
  14   2.0000      -1.030955       -28.0537 
  15   2.0000      -1.023910       -27.8620 
  16   2.0000      -0.931459       -25.3463 
  17   2.0000      -0.925692       -25.1894 
  18   2.0000      -0.790703       -21.5161 
  19   2.0000      -0.754063       -20.5191 
  20   2.0000      -0.721769       -19.6403 
  21   2.0000      -0.715233       -19.4625 
  22   2.0000      -0.704979       -19.1835 
  23   2.0000      -0.668910       -18.2020 
  24   2.0000      -0.649001       -17.6602 
  25   2.0000      -0.594790       -16.1851 
  26   2.0000      -0.541835       -14.7441 
  27   2.0000      -0.524600       -14.2751 
  28   2.0000      -0.503232       -13.6936 
  29   2.0000      -0.490260       -13.3406 
  30   2.0000      -0.478857       -13.0304 
  31   2.0000      -0.460966       -12.5435 
  32   2.0000      -0.457908       -12.4603 
  33   2.0000      -0.448743       -12.2109 
  34   2.0000      -0.440737       -11.9931 
  35   2.0000      -0.424696       -11.5566 
  36   2.0000      -0.410323       -11.1654 
  37   2.0000      -0.406978       -11.0744 
  38   2.0000      -0.399729       -10.8772 
  39   2.0000      -0.394744       -10.7415 
  40   2.0000      -0.392997       -10.6940 
  41   2.0000      -0.389618       -10.6020 
  42   2.0000      -0.381855       -10.3908 
  43   2.0000      -0.379236       -10.3195 
  44   2.0000      -0.373099       -10.1525 
  45   2.0000      -0.365301        -9.9403 
  46   2.0000      -0.357326        -9.7233 
  47   2.0000      -0.345923        -9.4131 
  48   2.0000      -0.339827        -9.2472 
  49   2.0000      -0.325823        -8.8661 
  50   2.0000      -0.321628        -8.7519 
  51   2.0000      -0.257660        -7.0113 
  52   2.0000      -0.251100        -6.8328 
  53   2.0000      -0.236827        -6.4444 
  54   2.0000      -0.233447        -6.3524 
  55   0.0000       0.013887         0.3779 
  56   0.0000       0.028970         0.7883 
  57   0.0000       0.083887         2.2827 
  58   0.0000       0.104652         2.8477 
  59   0.0000       0.113908         3.0996 
  60   0.0000       0.125967         3.4277 
  61   0.0000       0.139399         3.7932 
  62   0.0000       0.149342         4.0638 
  63   0.0000       0.149662         4.0725 
  64   0.0000       0.159484         4.3398 
  65   0.0000       0.161836         4.4038 
  66   0.0000       0.170334         4.6350 
  67   0.0000       0.171240         4.6597 
  68   0.0000       0.175103         4.7648 
  69   0.0000       0.176766         4.8101 
  70   0.0000       0.181214         4.9311 
  71   0.0000       0.185695         5.0530 
  72   0.0000       0.190893         5.1945 
  73   0.0000       0.196341         5.3427 
  74   0.0000       0.201120         5.4727 
  75   0.0000       0.215067         5.8523 
  76   0.0000       0.224407         6.1064 
  77   0.0000       0.227120         6.1803 
  78   0.0000       0.230471         6.2714 
  79   0.0000       0.237153         6.4533 
  80   0.0000       0.248069         6.7503 
  81   0.0000       0.252349         6.8668 
  82   0.0000       0.264486         7.1970 
  83   0.0000       0.271414         7.3856 
  84   0.0000       0.280085         7.6215 
  85   0.0000       0.306085         8.3290 
  86   0.0000       0.344643         9.3782 
  87   0.0000       0.367294         9.9946 
  88   0.0000       0.390373        10.6226 
  89   0.0000       0.423551        11.5254 
  90   0.0000       0.471086        12.8189 
  91   0.0000       0.495861        13.4931 
  92   0.0000       0.506508        13.7828 
  93   0.0000       0.510720        13.8974 
  94   0.0000       0.521394        14.1879 
  95   0.0000       0.524960        14.2849 
  96   0.0000       0.542515        14.7626 
  97   0.0000       0.555152        15.1065 
  98   0.0000       0.557027        15.1575 
  99   0.0000       0.582438        15.8489 
 100   0.0000       0.589132        16.0311 
 101   0.0000       0.603328        16.4174 
 102   0.0000       0.617075        16.7915 
 103   0.0000       0.622039        16.9265 
 104   0.0000       0.632942        17.2232 
 105   0.0000       0.646778        17.5997 
 106   0.0000       0.661446        17.9989 
 107   0.0000       0.666438        18.1347 
 108   0.0000       0.682556        18.5733 
 109   0.0000       0.687979        18.7209 
 110   0.0000       0.719127        19.5684 
 111   0.0000       0.730688        19.8830 
 112   0.0000       0.737096        20.0574 
 113   0.0000       0.744602        20.2616 
 114   0.0000       0.774960        21.0877 
 115   0.0000       0.787158        21.4197 
 116   0.0000       0.802750        21.8439 
 117   0.0000       0.814896        22.1744 
 118   0.0000       0.816291        22.2124 
 119   0.0000       0.835442        22.7335 
 120   0.0000       0.846903        23.0454 
 121   0.0000       0.854838        23.2613 
 122   0.0000       0.865440        23.5498 
 123   0.0000       0.878266        23.8988 
 124   0.0000       0.883657        24.0455 
 125   0.0000       0.888756        24.1843 
 126   0.0000       0.897703        24.4277 
 127   0.0000       0.901109        24.5204 
 128   0.0000       0.903913        24.5967 
 129   0.0000       0.908739        24.7281 
 130   0.0000       0.915085        24.9007 
 131   0.0000       0.919110        25.0103 
 132   0.0000       0.926120        25.2010 
 133   0.0000       0.939329        25.5605 
 134   0.0000       0.952323        25.9140 
 135   0.0000       0.964464        26.2444 
 136   0.0000       0.967406        26.3244 
 137   0.0000       0.977173        26.5902 
 138   0.0000       0.986794        26.8520 
 139   0.0000       0.992147        26.9977 
 140   0.0000       1.006094        27.3772 
 141   0.0000       1.027295        27.9541 
 142   0.0000       1.029507        28.0143 
 143   0.0000       1.035007        28.1640 
 144   0.0000       1.061332        28.8803 
 145   0.0000       1.076991        29.3064 
 146   0.0000       1.095740        29.8166 
 147   0.0000       1.098431        29.8898 
 148   0.0000       1.123128        30.5619 
 149   0.0000       1.132928        30.8285 
 150   0.0000       1.165679        31.7197 
 151   0.0000       1.187608        32.3164 
 152   0.0000       1.252268        34.0759 
 153   0.0000       1.275605        34.7110 
 154   0.0000       1.291453        35.1422 
 155   0.0000       1.313036        35.7295 
 156   0.0000       1.347563        36.6691 
 157   0.0000       1.369758        37.2730 
 158   0.0000       1.376190        37.4480 
 159   0.0000       1.396987        38.0140 
 160   0.0000       1.432557        38.9819 
 161   0.0000       1.441781        39.2329 
 162   0.0000       1.444866        39.3168 
 163   0.0000       1.463991        39.8372 
 164   0.0000       1.490758        40.5656 
 165   0.0000       1.547728        42.1158 
 166   0.0000       1.558953        42.4213 
 167   0.0000       1.609509        43.7970 
 168   0.0000       1.630833        44.3772 
 169   0.0000       1.652366        44.9632 
 170   0.0000       1.698103        46.2077 
 171   0.0000       1.726421        46.9783 
 172   0.0000       1.735473        47.2246 
 173   0.0000       1.756071        47.7851 
 174   0.0000       1.768861        48.1332 
 175   0.0000       1.798750        48.9465 
 176   0.0000       1.821127        49.5554 
 177   0.0000       1.825940        49.6863 
 178   0.0000       1.841974        50.1227 
 179   0.0000       1.863188        50.6999 
 180   0.0000       1.870236        50.8917 
 181   0.0000       1.890308        51.4379 
 182   0.0000       1.906321        51.8736 
 183   0.0000       1.913230        52.0616 
 184   0.0000       1.943449        52.8839 
 185   0.0000       1.955049        53.1996 
 186   0.0000       1.957769        53.2736 
 187   0.0000       1.963884        53.4400 
 188   0.0000       1.966346        53.5070 
 189   0.0000       1.991186        54.1829 
 190   0.0000       2.009336        54.6768 
 191   0.0000       2.028334        55.1938 
 192   0.0000       2.044920        55.6451 
 193   0.0000       2.051504        55.8243 
 194   0.0000       2.072499        56.3956 
 195   0.0000       2.080849        56.6228 
 196   0.0000       2.099004        57.1168 
 197   0.0000       2.110360        57.4258 
 198   0.0000       2.115741        57.5722 
 199   0.0000       2.140880        58.2563 
 200   0.0000       2.182960        59.4013 
 201   0.0000       2.196871        59.7799 
 202   0.0000       2.213668        60.2370 
 203   0.0000       2.232908        60.7605 
 204   0.0000       2.234300        60.7984 
 205   0.0000       2.270264        61.7770 
 206   0.0000       2.288361        62.2695 
 207   0.0000       2.290220        62.3200 
 208   0.0000       2.318344        63.0853 
 209   0.0000       2.328277        63.3556 
 210   0.0000       2.337281        63.6006 
 211   0.0000       2.346816        63.8601 
 212   0.0000       2.377322        64.6902 
 213   0.0000       2.390032        65.0361 
 214   0.0000       2.416715        65.7622 
 215   0.0000       2.422958        65.9320 
 216   0.0000       2.453036        66.7505 
 217   0.0000       2.489898        67.7536 
 218   0.0000       2.512742        68.3752 
 219   0.0000       2.546600        69.2965 
 220   0.0000       2.570209        69.9389 
 221   0.0000       2.602591        70.8201 
 222   0.0000       2.615877        71.1816 
 223   0.0000       2.636447        71.7414 
 224   0.0000       2.643813        71.9418 
 225   0.0000       2.688715        73.1637 
 226   0.0000       2.721921        74.0672 
 227   0.0000       2.752262        74.8928 
 228   0.0000       2.772680        75.4485 
 229   0.0000       2.800758        76.2125 
 230   0.0000       2.938717        79.9666 
 231   0.0000       2.972599        80.8885 
 232   0.0000       3.003244        81.7224 
 233   0.0000       3.003899        81.7402 
 234   0.0000       3.166949        86.1771 
 235   0.0000       3.184994        86.6681 

                    ********************************
                    * MULLIKEN POPULATION ANALYSIS *
                    ********************************

-----------------------
MULLIKEN ATOMIC CHARGES
-----------------------
   0 C :   -0.556368
   1 H :    0.189199
   2 H :    0.200179
   3 H :    0.179458
   4 C :    0.531264
   5 O :   -0.542194
   6 N :   -0.383873
   7 C :   -0.256175
   8 H :    0.181163
   9 H :    0.205315
  10 C :    0.527709
  11 N :   -0.360284
  12 O :   -0.544153
  13 C :   -0.349433
  14 H :    0.170580
  15 H :    0.171754
  16 H :    0.197792
  17 C :   -0.331306
  18 H :    0.171189
  19 H :    0.184401
  20 H :    0.172102
  21 C :    0.023125
  22 H :    0.166187
  23 C :   -0.269988
  24 H :    0.155248
  25 H :    0.152848
  26 C :   -0.464203
  27 H :    0.153197
  28 H :    0.157827
  29 H :    0.152098
  30 C :   -0.475889
  31 H :    0.166793
  32 H :    0.163464
  33 H :    0.160974
Sum of atomic charges:   -0.0000000

--------------------------------
MULLIKEN REDUCED ORBITAL CHARGES
--------------------------------
  0 C s       :     3.322308  s :     3.322308
      pz      :     1.061745  p :     3.201888
      px      :     1.026506
      py      :     1.113637
      dz2     :     0.001265  d :     0.032172
      dxz     :     0.009567
      dyz     :     0.010212
      dx2y2   :     0.009825
      dxy     :     0.001303
  1 H s       :     0.810801  s :     0.810801
  2 H s       :     0.799821  s :     0.799821
  3 H s       :     0.820542  s :     0.820542
  4 C s       :     2.988440  s :     2.988440
      pz      :     0.810613  p :     2.372758
      px      :     0.811294
      py      :     0.750851
      dz2     :     0.010460  d :     0.107539
      dxz     :     0.008856
      dyz     :     0.028445
      dx2y2   :     0.029238
      dxy     :     0.030539
  5 O s       :     3.864753  s :     3.864753
      pz      :     1.596361  p :     4.652671
      px      :     1.623847
      py      :     1.432463
      dz2     :     0.002580  d :     0.024770
      dxz     :     0.001282
      dyz     :     0.006893
      dx2y2   :     0.007034
      dxy     :     0.006982
  6 N s       :     3.541639  s :     3.541639
      pz      :     1.420988  p :     3.806084
      px      :     1.281104
      py      :     1.103992
      dz2     :     0.005201  d :     0.036149
      dxz     :     0.004787
      dyz     :     0.007758
      dx2y2   :     0.009292
      dxy     :     0.009111
  7 C s       :     3.252953  s :     3.252953
      pz      :     0.991914  p :     2.951417
      px      :     0.856098
      py      :     1.103405
      dz2     :     0.014375  d :     0.051806
      dxz     :     0.011746
      dyz     :     0.005013
      dx2y2   :     0.012821
      dxy     :     0.007851
  8 H s       :     0.818837  s :     0.818837
  9 H s       :     0.794685  s :     0.794685
 10 C s       :     2.981742  s :     2.981742
      pz      :     0.775886  p :     2.383383
      px      :     0.830965
      py      :     0.776532
      dz2     :     0.027210  d :     0.107165
      dxz     :     0.015354
      dyz     :     0.022268
      dx2y2   :     0.015714
      dxy     :     0.026620
 11 N s       :     3.533323  s :     3.533323
      pz      :     1.233097  p :     3.789233
      px      :     1.302988
      py      :     1.253149
      dz2     :     0.007983  d :     0.037728
      dxz     :     0.007247
      dyz     :     0.008051
      dx2y2   :     0.006289
      dxy     :     0.008160
 12 O s       :     3.859367  s :     3.859367
      pz      :     1.602044  p :     4.659943
      px      :     1.661379
      py      :     1.396520
      dz2     :     0.004146  d :     0.024844
      dxz     :     0.002458
      dyz     :     0.006905
      dx2y2   :     0.006236
      dxy     :     0.005098
 13 C s       :     3.269539  s :     3.269539
      pz      :     1.008952  p :     3.031678
      px      :     1.106481
      py      :     0.916244
      dz2     :     0.009715  d :     0.048217
      dxz     :     0.008140
      dyz     :     0.011889
      dx2y2   :     0.006056
      dxy     :     0.012417
 14 H s       :     0.829420  s :     0.829420
 15 H s       :     0.828246  s :     0.828246
 16 H s       :     0.802208  s :     0.802208
 17 C s       :     3.259064  s :     3.259064
      pz      :     1.075846  p :     3.024321
      px      :     0.932340
      py      :     1.016135
      dz2     :     0.008373  d :     0.047921
      dxz     :     0.006102
      dyz     :     0.012677
      dx2y2   :     0.007476
      dxy     :     0.013294
 18 H s       :     0.828811  s :     0.828811
 19 H s       :     0.815599  s :     0.815599
 20 H s       :     0.827898  s :     0.827898
 21 C s       :     3.175444  s :     3.175444
      pz      :     0.997290  p :     2.743047
      px      :     0.973554
      py      :     0.772203
      dz2     :     0.009742  d :     0.058383
      dxz     :     0.011409
      dyz     :     0.011772
      dx2y2   :     0.014083
      dxy     :     0.011377
 22 H s       :     0.833813  s :     0.833813
 23 C s       :     3.251427  s :     3.251427
      pz      :     0.971080  p :     2.978472
      px      :     1.058053
      py      :     0.949339
      dz2     :     0.007935  d :     0.040089
      dxz     :     0.007950
      dyz     :     0.008427
      dx2y2   :     0.009476
      dxy     :     0.006300
 24 H s       :     0.844752  s :     0.844752
 25 H s       :     0.847152  s :     0.847152
 26 C s       :     3.297110  s :     3.297110
      pz      :     1.074780  p :     3.132362
      px      :     1.080169
      py      :     0.977414
      dz2     :     0.006825  d :     0.034731
      dxz     :     0.005974
      dyz     :     0.007302
      dx2y2   :     0.008107
      dxy     :     0.006524
 27 H s       :     0.846803  s :     0.846803
 28 H s       :     0.842173  s :     0.842173
 29 H s       :     0.847902  s :     0.847902
 30 C s       :     3.302021  s :     3.302021
      pz      :     1.077093  p :     3.139888
      px      :     0.975584
      py      :     1.087212
      dz2     :     0.005200  d :     0.033980
      dxz     :     0.009432
      dyz     :     0.006165
      dx2y2   :     0.010024
      dxy     :     0.003159
 31 H s       :     0.833207  s :     0.833207
 32 H s       :     0.836536  s :     0.836536
 33 H s       :     0.839026  s :     0.839026


                     *******************************
                     * LOEWDIN POPULATION ANALYSIS *
                     *******************************

----------------------
LOEWDIN ATOMIC CHARGES
----------------------
   0 C :   -0.391603
   1 H :    0.147715
   2 H :    0.161118
   3 H :    0.150355
   4 C :    0.119470
   5 O :   -0.345325
   6 N :   -0.066695
   7 C :   -0.179673
   8 H :    0.144294
   9 H :    0.159191
  10 C :    0.098233
  11 N :   -0.068086
  12 O :   -0.342926
  13 C :   -0.287820
  14 H :    0.132435
  15 H :    0.135810
  16 H :    0.150176
  17 C :   -0.281368
  18 H :    0.132588
  19 H :    0.147352
  20 H :    0.136129
  21 C :   -0.062661
  22 H :    0.142125
  23 C :   -0.240093
  24 H :    0.129817
  25 H :    0.126028
  26 C :   -0.368799
  27 H :    0.130817
  28 H :    0.128457
  29 H :    0.127178
  30 C :   -0.370863
  31 H :    0.138600
  32 H :    0.132800
  33 H :    0.135225

-------------------------------
LOEWDIN REDUCED ORBITAL CHARGES
-------------------------------
  0 C s       :     2.981151  s :     2.981151
      pz      :     1.113662  p :     3.347128
      px      :     1.086107
      py      :     1.147358
      dz2     :     0.002355  d :     0.063324
      dxz     :     0.019773
      dyz     :     0.019113
      dx2y2   :     0.019391
      dxy     :     0.002693
  1 H s       :     0.852285  s :     0.852285
  2 H s       :     0.838882  s :     0.838882
  3 H s       :     0.849645  s :     0.849645
  4 C s       :     2.850567  s :     2.850567
      pz      :     0.866867  p :     2.776807
      px      :     0.942630
      py      :     0.967311
      dz2     :     0.023385  d :     0.253156
      dxz     :     0.019129
      dyz     :     0.065445
      dx2y2   :     0.072074
      dxy     :     0.073123
  5 O s       :     3.566216  s :     3.566216
      pz      :     1.591770  p :     4.728009
      px      :     1.636211
      py      :     1.500027
      dz2     :     0.006214  d :     0.051100
      dxz     :     0.002446
      dyz     :     0.011382
      dx2y2   :     0.015422
[...]
     76      -0.017336  -0.004136   0.000799  -0.030986   0.000396  -0.000187
     77      -0.029070  -0.001019   0.002035  -0.043621   0.000591  -0.000305
     78      -0.001282   0.003007  -0.000002   0.000418   0.000007   0.000004
     79       0.000167  -0.000330   0.000025   0.000100   0.000014  -0.000004
     80       0.001223  -0.000834  -0.000029   0.000465  -0.000003   0.000018
     81       0.003830  -0.003580  -0.000186   0.000638  -0.000072   0.000048
     82       0.004525  -0.004118  -0.000323   0.000864  -0.000134   0.000097
     83      -0.011124   0.010920   0.000590  -0.001858   0.000213  -0.000153
     84       0.014898  -0.031394   0.000097  -0.002247   0.000043  -0.000082
     85      -0.004106   0.008934  -0.000023   0.000797  -0.000015   0.000019
     86      -0.002122   0.004630  -0.000029   0.000252  -0.000013   0.000021
     87      -0.002713  -0.001705   0.000052  -0.003242  -0.000066  -0.000065
     88      -0.002020  -0.001407   0.000081  -0.002725  -0.000047  -0.000044
     89      -0.002571  -0.003634   0.000026  -0.004149  -0.000093  -0.000064
     90       0.019647  -0.033769  -0.000160   0.003412  -0.000068   0.000040
     91       0.016918  -0.028780  -0.000206   0.002069  -0.000016   0.000013
     92       0.038382  -0.064142  -0.000092   0.005394  -0.000056   0.000022
     93       0.025556  -0.041400  -0.000303   0.002387   0.000116  -0.000078
     94      -0.170014   0.283322   0.002129  -0.018054  -0.000196   0.000096
     95      -0.025022   0.042001   0.000399  -0.003352  -0.000049   0.000033
     96      -0.292168   0.496909   0.002154  -0.047045   0.000797  -0.000457
     97      -0.123760   0.209511   0.000696  -0.019617   0.000331  -0.000183
     98      -0.306944   0.522336   0.001879  -0.049430   0.000805  -0.000445
     99       0.032684  -0.052838   0.000119   0.003715  -0.000020  -0.000011
    100       0.085697  -0.137232   0.000382   0.009867  -0.000022  -0.000066
    101      -0.129422   0.205027  -0.000807  -0.015161   0.000028   0.000120


-----------
IR SPECTRUM
-----------

 Mode   freq       eps      Int      T**2         TX        TY        TZ
       cm**-1   L/(mol*cm) km/mol    a.u.
----------------------------------------------------------------------------
  6:     43.40   0.000395    2.00  0.002842  (-0.033743  0.036347 -0.019554)
  7:     51.04   0.000849    4.29  0.005194  (-0.010536  0.049108 -0.051686)
  8:     64.38   0.000629    3.18  0.003047  ( 0.032410 -0.017017  0.041317)
  9:     76.80   0.000502    2.54  0.002040  ( 0.031473 -0.000572  0.032388)
 10:     89.77   0.000247    1.25  0.000858  ( 0.011868 -0.005902  0.026112)
 11:     97.37   0.000259    1.31  0.000831  (-0.027779  0.000752  0.007656)
 12:    108.20   0.003090   15.61  0.008911  ( 0.080495  0.007422 -0.048753)
 13:    141.50   0.000837    4.23  0.001845  ( 0.040627 -0.013957  0.000010)
 14:    165.99   0.000037    0.18  0.000069  (-0.007081  0.001569 -0.004024)
 15:    191.07   0.000218    1.10  0.000355  (-0.017760 -0.003617  0.005178)
 16:    203.25   0.000117    0.59  0.000179  ( 0.010870  0.007609  0.001768)
 17:    218.52   0.000582    2.94  0.000831  ( 0.003862 -0.014958  0.024328)
 18:    240.04   0.000942    4.76  0.001225  ( 0.030691 -0.002249  0.016664)
 19:    266.78   0.000349    1.77  0.000409  (-0.005033 -0.017370  0.009029)
 20:    268.81   0.001903    9.62  0.002210  ( 0.042193 -0.020688  0.001162)
 21:    286.07   0.000306    1.55  0.000334  (-0.012119 -0.013435  0.002588)
 22:    314.47   0.000591    2.99  0.000587  ( 0.015212 -0.010217  0.015840)
 23:    344.76   0.001904    9.62  0.001723  ( 0.030885 -0.003286 -0.027546)
 24:    377.61   0.002332   11.78  0.001927  ( 0.007613 -0.032410 -0.028614)
 25:    396.94   0.001860    9.40  0.001462  ( 0.008291  0.026723 -0.026064)
 26:    424.49   0.001692    8.55  0.001244  (-0.033904  0.001039  0.009676)
 27:    441.41   0.001809    9.14  0.001279  (-0.019786 -0.025185  0.015919)
 28:    477.83   0.001280    6.47  0.000836  ( 0.019854  0.018226  0.010471)
 29:    538.36   0.004962   25.08  0.002876  (-0.038801 -0.000270 -0.037022)
 30:    582.30   0.004065   20.55  0.002179  (-0.031593 -0.029363  0.017845)
 31:    611.64   0.001937    9.79  0.000988  ( 0.000230 -0.018110  0.025697)
 32:    642.51   0.005676   28.69  0.002757  (-0.024872  0.026665  0.037780)
 33:    703.40   0.001183    5.98  0.000525  ( 0.013127  0.008364  0.016814)
 34:    746.58   0.000310    1.57  0.000130  ( 0.006578  0.008146 -0.004469)
 35:    781.50   0.006637   33.54  0.002650  ( 0.040805 -0.013780 -0.028198)
 36:    794.64   0.001070    5.41  0.000420  (-0.002982  0.015333  0.013279)
 37:    864.69   0.000695    3.51  0.000251  ( 0.004141 -0.013743 -0.006687)
 38:    943.78   0.000841    4.25  0.000278  ( 0.007305  0.008696 -0.012205)
 39:    984.24   0.004577   23.13  0.001451  ( 0.016716 -0.008090 -0.033259)
 40:    996.38   0.003323   16.80  0.001041  ( 0.020911  0.003291 -0.024347)
 41:   1006.52   0.002569   12.98  0.000797  ( 0.017227 -0.001595 -0.022298)
 42:   1015.86   0.005348   27.03  0.001643  (-0.001694 -0.040440 -0.002168)
 43:   1041.39   0.002879   14.55  0.000863  ( 0.002580  0.022489 -0.018713)
 44:   1063.80   0.003029   15.31  0.000889  ( 0.022929  0.005266 -0.018308)
 45:   1074.34   0.004599   23.24  0.001336  ( 0.004847  0.009142  0.035054)
 46:   1091.14   0.001955    9.88  0.000559  (-0.011439 -0.020691  0.000524)
 47:   1137.18   0.000166    0.84  0.000045  (-0.003583  0.000414 -0.005698)
 48:   1143.02   0.009973   50.40  0.002723  (-0.008988  0.048322  0.017520)
 49:   1154.70   0.007393   37.36  0.001998  ( 0.039354 -0.012600 -0.017047)
 50:   1167.56   0.002761   13.95  0.000738  (-0.017489  0.000667  0.020776)
 51:   1183.52   0.001541    7.79  0.000406  (-0.005423  0.012670  0.014711)
 52:   1200.63   0.011101   56.10  0.002885  ( 0.007307 -0.018554 -0.049875)
 53:   1227.79   0.006710   33.91  0.001705  (-0.003077  0.029024 -0.029215)
 54:   1272.88   0.034126  172.46  0.008366  (-0.062651 -0.046359 -0.047874)
 55:   1286.31   0.019480   98.44  0.004726  (-0.055875 -0.036456  0.016578)
 56:   1311.46   0.001917    9.69  0.000456  (-0.012806  0.011945 -0.012230)
 57:   1356.76   0.007270   36.74  0.001672  ( 0.022657  0.033978  0.002055)
 58:   1366.50   0.002513   12.70  0.000574  (-0.003864  0.022303  0.007844)
 59:   1381.12   0.014360   72.57  0.003245  ( 0.017851  0.052961  0.011003)
 60:   1398.39   0.008416   42.53  0.001878  (-0.020515 -0.038023 -0.003394)
 61:   1418.46   0.007809   39.46  0.001718  ( 0.031230  0.020327  0.018150)
 62:   1429.08   0.000432    2.18  0.000094  (-0.006754  0.004176  0.005592)
 63:   1435.30   0.001575    7.96  0.000342  ( 0.000274 -0.017548 -0.005871)
 64:   1440.28   0.016142   81.58  0.003497  (-0.020589  0.028096  0.047793)
 65:   1459.01   0.017103   86.43  0.003658  (-0.043022  0.000518  0.042509)
 66:   1485.06   0.014629   73.93  0.003074  ( 0.012179  0.054086  0.000648)
 67:   1489.37   0.002269   11.47  0.000475  (-0.019408 -0.009835 -0.001430)
 68:   1499.78   0.001454    7.35  0.000303  ( 0.016476  0.003392 -0.004434)
 69:   1500.27   0.000956    4.83  0.000199  (-0.012294 -0.001316 -0.006782)
 70:   1506.20   0.000058    0.29  0.000012  ( 0.003427  0.000293  0.000387)
 71:   1508.00   0.001011    5.11  0.000209  (-0.006181 -0.011710  0.005813)
 72:   1511.89   0.000440    2.22  0.000091  (-0.008952 -0.001619 -0.002843)
 73:   1514.50   0.011382   57.52  0.002345  ( 0.039414  0.014279  0.024247)
 74:   1519.31   0.003510   17.74  0.000721  (-0.025282  0.005335 -0.007297)
 75:   1523.82   0.007634   38.58  0.001563  (-0.000427  0.031237  0.024239)
 76:   1526.86   0.002277   11.51  0.000465  (-0.005801 -0.002734  0.020597)
 77:   1530.43   0.005683   28.72  0.001159  (-0.009892  0.029612 -0.013564)
 78:   1538.83   0.011821   59.74  0.002397  ( 0.032922  0.020528  0.029866)
 79:   1556.08   0.016617   83.98  0.003333  (-0.038798 -0.010717  0.041380)
 80:   1685.06   0.127369  643.67  0.023588  (-0.022679  0.150969  0.016790)
 81:   1705.95   0.108742  549.54  0.019892  ( 0.006345  0.075911  0.118697)
 82:   3038.00   0.007371   37.25  0.000757  (-0.009995 -0.014603 -0.021070)
 83:   3042.63   0.007056   35.66  0.000724  (-0.001279 -0.026625 -0.003620)
 84:   3044.92   0.017722   89.56  0.001816  ( 0.021806  0.004181 -0.036376)
 85:   3061.34   0.008697   43.95  0.000887  (-0.013123  0.016800  0.020786)
 86:   3064.26   0.001491    7.53  0.000152  ( 0.012073  0.001861 -0.001612)
 87:   3075.67   0.001043    5.27  0.000106  (-0.008223 -0.005154 -0.003413)
 88:   3078.56   0.001198    6.05  0.000121  ( 0.006040 -0.008721 -0.002985)
 89:   3087.41   0.007701   38.92  0.000778  ( 0.002514  0.007408  0.026781)
 90:   3094.90   0.011586   58.55  0.001168  ( 0.022828 -0.024363  0.007323)
 91:   3095.50   0.006589   33.30  0.000664  ( 0.023748 -0.007922  0.006129)
 92:   3098.68   0.000633    3.20  0.000064  ( 0.005751 -0.002801 -0.004777)
 93:   3110.71   0.015213   76.88  0.001526  (-0.017776 -0.002672 -0.034685)
 94:   3118.75   0.017356   87.71  0.001737  (-0.039328 -0.010700  0.008683)
 95:   3128.98   0.007331   37.05  0.000731  (-0.010840  0.023531 -0.007741)
 96:   3146.00   0.008590   43.41  0.000852  ( 0.008443  0.013513  0.024458)
 97:   3149.14   0.002770   14.00  0.000274  (-0.010748 -0.006259 -0.010945)
 98:   3166.44   0.002118   10.70  0.000209  ( 0.013789  0.003318 -0.002751)
 99:   3191.17   0.003004   15.18  0.000294  ( 0.005048 -0.014547  0.007527)
100:   3193.82   0.001019    5.15  0.000100  ( 0.008763  0.003110  0.003615)
101:   3195.44   0.000643    3.25  0.000063  (-0.001616  0.007753  0.000235)

* The epsilon (eps) is given for a Dirac delta lineshape.
** The dipole moment derivative (T) already includes vibrational overlap.

The first frequency considered to be a vibration is 6
The total number of vibrations considered is 96


--------------------------
THERMOCHEMISTRY AT 298.15K
--------------------------

Temperature         ... 298.15 K
Pressure            ... 1.00 atm
Total Mass          ... 200.28 AMU

Throughout the following assumptions are being made:
  (1) The electronic state is orbitally nondegenerate
  (2) There are no thermally accessible electronically excited states
  (3) Hindered rotations indicated by low frequency modes are not
      treated as such but are treated as vibrations and this may
      cause some error
  (4) All equations used are the standard statistical mechanics
      equations for an ideal gas
  (5) All vibrations are strictly harmonic

freq.      43.40  E(vib)   ...       0.53 
freq.      51.04  E(vib)   ...       0.52 
freq.      64.38  E(vib)   ...       0.51 
freq.      76.80  E(vib)   ...       0.49 
freq.      89.77  E(vib)   ...       0.47 
freq.      97.37  E(vib)   ...       0.46 
freq.     108.20  E(vib)   ...       0.45 
freq.     141.50  E(vib)   ...       0.41 
freq.     165.99  E(vib)   ...       0.39 
freq.     191.07  E(vib)   ...       0.36 
freq.     203.25  E(vib)   ...       0.35 
freq.     218.52  E(vib)   ...       0.33 
freq.     240.04  E(vib)   ...       0.31 
freq.     266.78  E(vib)   ...       0.29 
freq.     268.81  E(vib)   ...       0.29 
freq.     286.07  E(vib)   ...       0.27 
freq.     314.47  E(vib)   ...       0.25 
freq.     344.76  E(vib)   ...       0.23 
freq.     377.61  E(vib)   ...       0.21 
freq.     396.94  E(vib)   ...       0.20 
freq.     424.49  E(vib)   ...       0.18 
freq.     441.41  E(vib)   ...       0.17 
freq.     477.83  E(vib)   ...       0.15 
freq.     538.36  E(vib)   ...       0.12 
freq.     582.30  E(vib)   ...       0.11 
freq.     611.64  E(vib)   ...       0.10 
freq.     642.51  E(vib)   ...       0.09 
freq.     703.40  E(vib)   ...       0.07 
freq.     746.58  E(vib)   ...       0.06 
freq.     781.50  E(vib)   ...       0.05 
freq.     794.64  E(vib)   ...       0.05 
freq.     864.69  E(vib)   ...       0.04 
freq.     943.78  E(vib)   ...       0.03 
freq.     984.24  E(vib)   ...       0.02 
freq.     996.38  E(vib)   ...       0.02 
freq.    1006.52  E(vib)   ...       0.02 
freq.    1015.86  E(vib)   ...       0.02 
freq.    1041.39  E(vib)   ...       0.02 
freq.    1063.80  E(vib)   ...       0.02 
freq.    1074.34  E(vib)   ...       0.02 
freq.    1091.14  E(vib)   ...       0.02 
freq.    1137.18  E(vib)   ...       0.01 
freq.    1143.02  E(vib)   ...       0.01 
freq.    1154.70  E(vib)   ...       0.01 
freq.    1167.56  E(vib)   ...       0.01 
freq.    1183.52  E(vib)   ...       0.01 
freq.    1200.63  E(vib)   ...       0.01 
freq.    1227.79  E(vib)   ...       0.01 
freq.    1272.88  E(vib)   ...       0.01 
freq.    1286.31  E(vib)   ...       0.01 
freq.    1311.46  E(vib)   ...       0.01 
freq.    1356.76  E(vib)   ...       0.01 
freq.    1366.50  E(vib)   ...       0.01 
freq.    1381.12  E(vib)   ...       0.01 
freq.    1398.39  E(vib)   ...       0.00 
freq.    1418.46  E(vib)   ...       0.00 
freq.    1429.08  E(vib)   ...       0.00 
freq.    1435.30  E(vib)   ...       0.00 
freq.    1440.28  E(vib)   ...       0.00 
freq.    1459.01  E(vib)   ...       0.00 
freq.    1485.06  E(vib)   ...       0.00 
freq.    1489.37  E(vib)   ...       0.00 
freq.    1499.78  E(vib)   ...       0.00 
freq.    1500.27  E(vib)   ...       0.00 
freq.    1506.20  E(vib)   ...       0.00 
freq.    1508.00  E(vib)   ...       0.00 
freq.    1511.89  E(vib)   ...       0.00 
freq.    1514.50  E(vib)   ...       0.00 
freq.    1519.31  E(vib)   ...       0.00 
freq.    1523.82  E(vib)   ...       0.00 
freq.    1526.86  E(vib)   ...       0.00 
freq.    1530.43  E(vib)   ...       0.00 
freq.    1538.83  E(vib)   ...       0.00 
freq.    1556.08  E(vib)   ...       0.00 
freq.    1685.06  E(vib)   ...       0.00 
freq.    1705.95  E(vib)   ...       0.00 
freq.    3038.00  E(vib)   ...       0.00 
freq.    3042.63  E(vib)   ...       0.00 
freq.    3044.92  E(vib)   ...       0.00 
freq.    3061.34  E(vib)   ...       0.00 
freq.    3064.26  E(vib)   ...       0.00 
freq.    3075.67  E(vib)   ...       0.00 
freq.    3078.56  E(vib)   ...       0.00 
freq.    3087.41  E(vib)   ...       0.00 
freq.    3094.90  E(vib)   ...       0.00 
freq.    3095.50  E(vib)   ...       0.00 
freq.    3098.68  E(vib)   ...       0.00 
freq.    3110.71  E(vib)   ...       0.00 
freq.    3118.75  E(vib)   ...       0.00 
freq.    3128.98  E(vib)   ...       0.00 
freq.    3146.00  E(vib)   ...       0.00 
freq.    3149.14  E(vib)   ...       0.00 
freq.    3166.44  E(vib)   ...       0.00 
freq.    3191.17  E(vib)   ...       0.00 
freq.    3193.82  E(vib)   ...       0.00 
freq.    3195.44  E(vib)   ...       0.00 

------------
INNER ENERGY
------------

The inner energy is: U= E(el) + E(ZPE) + E(vib) + E(rot) + E(trans)
    E(el)   - is the total energy from the electronic structure calculation
              = E(kin-el) + E(nuc-el) + E(el-el) + E(nuc-nuc)
    E(ZPE)  - the the zero temperature vibrational energy from the frequency calculation
    E(vib)  - the the finite temperature correction to E(ZPE) due to population
              of excited vibrational states
    E(rot)  - is the rotational thermal energy
    E(trans)- is the translational thermal energy

Summary of contributions to the inner energy U:
Electronic energy                ...   -652.73824997 Eh
Zero point energy                ...      0.30146372 Eh     189.17 kcal/mol
Thermal vibrational correction   ...      0.01418975 Eh       8.90 kcal/mol
Thermal rotational correction    ...      0.00141627 Eh       0.89 kcal/mol
Thermal translational correction ...      0.00141627 Eh       0.89 kcal/mol
-----------------------------------------------------------------------
Total thermal energy                   -652.41976395 Eh


Summary of corrections to the electronic energy:
(perhaps to be used in another calculation)
Total thermal correction                  0.01702229 Eh      10.68 kcal/mol
Non-thermal (ZPE) correction              0.30146372 Eh     189.17 kcal/mol
-----------------------------------------------------------------------
Total correction                          0.31848602 Eh     199.85 kcal/mol


--------
ENTHALPY
--------

The enthalpy is H = U + kB*T
                kB is Boltzmann's constant
Total free energy                 ...   -652.41976395 Eh 
Thermal Enthalpy correction       ...      0.00094421 Eh       0.59 kcal/mol
-----------------------------------------------------------------------
Total Enthalpy                    ...   -652.41881974 Eh


Note: Only C1 symmetry has been detected, increase convergence thresholds 
      if your molecule has a higher symmetry. Symmetry factor of 1.0 is   
      used for the rotational entropy correction. 
 

Note: Rotational entropy computed according to Herzberg 
Infrared and Raman Spectra, Chapter V,1, Van Nostrand Reinhold, 1945 
Point Group:  C1, Symmetry Number:   1  
Rotational constants in cm-1:     0.026065     0.018994     0.014465 

Vibrational entropy computed according to the QRRHO of S. Grimme
Chem.Eur.J. 2012 18 9955


-------
ENTROPY
-------

The entropy contributions are T*S = T*(S(el)+S(vib)+S(rot)+S(trans))
     S(el)   - electronic entropy
     S(vib)  - vibrational entropy
     S(rot)  - rotational entropy
     S(trans)- translational entropy
The entropies will be listed as multiplied by the temperature to get
units of energy

Electronic entropy                ...      0.00000000 Eh      0.00 kcal/mol
Vibrational entropy               ...      0.02525686 Eh     15.85 kcal/mol
Rotational entropy                ...      0.01510357 Eh      9.48 kcal/mol
Translational entropy             ...      0.01985492 Eh     12.46 kcal/mol
-----------------------------------------------------------------------
Final entropy term                ...      0.06021535 Eh     37.79 kcal/mol

In case the symmetry of your molecule has not been determined correctly
or in case you have a reason to use a different symmetry number we print 
out the resulting rotational entropy values for sn=1,12 :
 --------------------------------------------------------
|  sn= 1 | S(rot)=       0.01510357 Eh      9.48 kcal/mol|
|  sn= 2 | S(rot)=       0.01444912 Eh      9.07 kcal/mol|
|  sn= 3 | S(rot)=       0.01406628 Eh      8.83 kcal/mol|
|  sn= 4 | S(rot)=       0.01379466 Eh      8.66 kcal/mol|
|  sn= 5 | S(rot)=       0.01358397 Eh      8.52 kcal/mol|
|  sn= 6 | S(rot)=       0.01341183 Eh      8.42 kcal/mol|
|  sn= 7 | S(rot)=       0.01326628 Eh      8.32 kcal/mol|
|  sn= 8 | S(rot)=       0.01314020 Eh      8.25 kcal/mol|
|  sn= 9 | S(rot)=       0.01302900 Eh      8.18 kcal/mol|
|  sn=10 | S(rot)=       0.01292952 Eh      8.11 kcal/mol|
|  sn=11 | S(rot)=       0.01283953 Eh      8.06 kcal/mol|
|  sn=12 | S(rot)=       0.01275737 Eh      8.01 kcal/mol|
 --------------------------------------------------------


-------------------
GIBBS FREE ENERGY
-------------------

The Gibbs free energy is G = H - T*S

Total enthalpy                    ...   -652.41881974 Eh 
Total entropy correction          ...     -0.06021535 Eh    -37.79 kcal/mol
-----------------------------------------------------------------------
Final Gibbs free energy         ...   -652.47903510 Eh

For completeness - the Gibbs free energy minus the electronic energy
G-E(el)                           ...      0.25921487 Eh    162.66 kcal/mol


Timings for individual modules:

Sum of individual times         ...     1887.690 sec (=  31.461 min)
GTO integral calculation        ...       21.148 sec (=   0.352 min)   1.1 %
SCF iterations                  ...      933.506 sec (=  15.558 min)  49.5 %
SCF Gradient evaluation         ...      298.682 sec (=   4.978 min)  15.8 %
Geometry relaxation             ...        1.349 sec (=   0.022 min)   0.1 %
Analytical frequency calculation...      633.006 sec (=  10.550 min)  33.5 %
                             ****ORCA TERMINATED NORMALLY****
TOTAL RUN TIME: 0 days 0 hours 31 minutes 34 seconds 909 msec
