
                                 *****************
                                 * O   R   C   A *
                                 *****************

                                            #,                                       
                                            ###                                      
                                            ####                                     
                                            #####                                    
                                            ######                                   
                                           ########,                                 
                                     ,,################,,,,,                         
                               ,,#################################,,                 
                          ,,##########################################,,             
                       ,#########################################, ''#####,          
                    ,#############################################,,   '####,        
                  ,##################################################,,,,####,       
                ,###########''''           ''''###############################       
              ,#####''   ,,,,##########,,,,          '''####'''          '####       
            ,##' ,,,,###########################,,,                        '##       
           ' ,,###''''                  '''############,,,                           
         ,,##''                                '''############,,,,        ,,,,,,###''
      ,#''                                            '''#######################'''  
     '                                                          ''''####''''         
             ,#######,   #######,   ,#######,      ##                                
            ,#'     '#,  ##    ##  ,#'     '#,    #''#        ######   ,####,        
            ##       ##  ##   ,#'  ##            #'  '#       #        #'  '#        
            ##       ##  #######   ##           ,######,      #####,   #    #        
            '#,     ,#'  ##    ##  '#,     ,#' ,#      #,         ##   #,  ,#        
             '#######'   ##     ##  '#######'  #'      '#     #####' # '####'        



                  #######################################################
                  #                        -***-                        #
                  #          Department of theory and spectroscopy      #
                  #    Directorship and core code : Frank Neese         #
                  #        Max Planck Institute fuer Kohlenforschung    #
                  #                Kaiser Wilhelm Platz 1               #
                  #                 D-45470 Muelheim/Ruhr               #
                  #                      Germany                        #
                  #                                                     #
                  #                  All rights reserved                #
                  #                        -***-                        #
                  #######################################################


                         Program Version 5.0.4 -  RELEASE  -


 With contributions from (in alphabetic order):
   Daniel Aravena         : Magnetic Suceptibility
   Michael Atanasov       : Ab Initio Ligand Field Theory (pilot matlab implementation)
   Alexander A. Auer      : GIAO ZORA, VPT2 properties, NMR spectrum
   Ute Becker             : Parallelization
   Giovanni Bistoni       : ED, misc. LED, open-shell LED, HFLD
   Martin Brehm           : Molecular dynamics
   Dmytro Bykov           : SCF Hessian
   Vijay G. Chilkuri      : MRCI spin determinant printing, contributions to CSF-ICE
   Dipayan Datta          : RHF DLPNO-CCSD density
   Achintya Kumar Dutta   : EOM-CC, STEOM-CC
   Dmitry Ganyushin       : Spin-Orbit,Spin-Spin,Magnetic field MRCI
   Miquel Garcia          : C-PCM and meta-GGA Hessian, CC/C-PCM, Gaussian charge scheme
   Yang Guo               : DLPNO-NEVPT2, F12-NEVPT2, CIM, IAO-localization
   Andreas Hansen         : Spin unrestricted coupled pair/coupled cluster methods
   Benjamin Helmich-Paris : MC-RPA, TRAH-SCF, COSX integrals
   Lee Huntington         : MR-EOM, pCC
   Robert Izsak           : Overlap fitted RIJCOSX, COSX-SCS-MP3, EOM
   Marcus Kettner         : VPT2
   Christian Kollmar      : KDIIS, OOCD, Brueckner-CCSD(T), CCSD density, CASPT2, CASPT2-K
   Simone Kossmann        : Meta GGA functionals, TD-DFT gradient, OOMP2, MP2 Hessian
   Martin Krupicka        : Initial AUTO-CI
   Lucas Lang             : DCDCAS
   Marvin Lechner         : AUTO-CI (C++ implementation), FIC-MRCC
   Dagmar Lenk            : GEPOL surface, SMD
   Dimitrios Liakos       : Extrapolation schemes; Compound Job, initial MDCI parallelization
   Dimitrios Manganas     : Further ROCIS development; embedding schemes
   Dimitrios Pantazis     : SARC Basis sets
   Anastasios Papadopoulos: AUTO-CI, single reference methods and gradients
   Taras Petrenko         : DFT Hessian,TD-DFT gradient, ASA, ECA, R-Raman, ABS, FL, XAS/XES, NRVS
   Peter Pinski           : DLPNO-MP2, DLPNO-MP2 Gradient
   Christoph Reimann      : Effective Core Potentials
   Marius Retegan         : Local ZFS, SOC
   Christoph Riplinger    : Optimizer, TS searches, QM/MM, DLPNO-CCSD(T), (RO)-DLPNO pert. Triples
   Tobias Risthaus        : Range-separated hybrids, TD-DFT gradient, RPA, STAB
   Michael Roemelt        : Original ROCIS implementation
   Masaaki Saitow         : Open-shell DLPNO-CCSD energy and density
   Barbara Sandhoefer     : DKH picture change effects
   Avijit Sen             : IP-ROCIS
   Kantharuban Sivalingam : CASSCF convergence, NEVPT2, FIC-MRCI
   Bernardo de Souza      : ESD, SOC TD-DFT
   Georgi Stoychev        : AutoAux, RI-MP2 NMR, DLPNO-MP2 response
   Willem Van den Heuvel  : Paramagnetic NMR
   Boris Wezisla          : Elementary symmetry handling
   Frank Wennmohs         : Technical directorship


 We gratefully acknowledge several colleagues who have allowed us to
 interface, adapt or use parts of their codes:
   Stefan Grimme, W. Hujo, H. Kruse, P. Pracht,  : VdW corrections, initial TS optimization,
                  C. Bannwarth, S. Ehlert          DFT functionals, gCP, sTDA/sTD-DF
   Ed Valeev, F. Pavosevic, A. Kumar             : LibInt (2-el integral package), F12 methods
   Garnet Chan, S. Sharma, J. Yang, R. Olivares  : DMRG
   Ulf Ekstrom                                   : XCFun DFT Library
   Mihaly Kallay                                 : mrcc  (arbitrary order and MRCC methods)
   Jiri Pittner, Ondrej Demel                    : Mk-CCSD
   Frank Weinhold                                : gennbo (NPA and NBO analysis)
   Christopher J. Cramer and Donald G. Truhlar   : smd solvation model
   Lars Goerigk                                  : TD-DFT with DH, B97 family of functionals
   V. Asgeirsson, H. Jonsson                     : NEB implementation
   FAccTs GmbH                                   : IRC, NEB, NEB-TS, DLPNO-Multilevel, CI-OPT
                                                   MM, QMMM, 2- and 3-layer-ONIOM, Crystal-QMMM,
                                                   LR-CPCM, SF, NACMEs, symmetry and pop. for TD-DFT,
                                                   nearIR, NL-DFT gradient (VV10), updates on ESD,
                                                   ML-optimized integration grids
   S Lehtola, MJT Oliveira, MAL Marques          : LibXC Library
   Liviu Ungur et al                             : ANISO software


 Your calculation uses the libint2 library for the computation of 2-el integrals
 For citations please refer to: http://libint.valeyev.net

 Your ORCA version has been built with support for libXC version: 5.1.0
 For citations please refer to: https://tddft.org/programs/libxc/

 This ORCA versions uses:
   CBLAS   interface :  Fast vector & matrix operations
   LAPACKE interface :  Fast linear algebra routines
   SCALAPACK package :  Parallel linear algebra routines
   Shared memory     :  Shared parallel matrices
   BLAS/LAPACK       :  OpenBLAS 0.3.15  USE64BITINT DYNAMIC_ARCH NO_AFFINITY SkylakeX SINGLE_THREADED
        Core in use  :  SkylakeX
   Copyright (c) 2011-2014, The OpenBLAS Project




***************************************
The coordinates will be read from file: /users/fjb15167/WWenergy/structures/Nke.xyz
***************************************


Your calculation utilizes the atom-pairwise dispersion correction
based on tight binding partial charges (D4)
Cite in your paper:
E.Caldeweyher, C.Bannwarth, S.Grimme, J.Chem.Phys., (2017), 147, 034112.
E.Caldeweyher, S.Ehlert, A.Hansen, H.Neugebauer, S.Grimme, J.Chem.Phys., (2018), in progress.
   

================================================================================

----- Orbital basis set information -----
Your calculation utilizes the basis: 6-31+G(d)
   H-He, Li-Ne : W. J. Hehre, R. Ditchfield and J.A. Pople, J. Chem. Phys. 56, 2257 (1972).
                 Note: He and Ne are unpublished basis sets taken from the Gaussian program.
                 Note: Li and B from J. D. Dill and J. A. Pople, J. Chem. Phys. 62, 2921 (1975).
   Na - Ar     : M. M. Francl, W. J. Pietro, W. J. Hehre, J. S. Binkley, M. S. Gordon, 
                 D. J. DeFrees and J. A. Pople, J. Chem. Phys. 77, 3654 (1982).
   K - Zn      : V. A. Rassolov, J. A. Pople, M. A. Ratner, and T. L. Windus, J. Chem. Phys. 109, 1223 (1998).
   Additional Pol./Diff. from the 6-311G equivalent.

----- AuxJ basis set information -----
Your calculation utilizes the AutoAux generation procedure.
  G. L. Stoychev, A. A. Auer, F. Neese, J. Chem. Theory Comput. 13, 554 (2017)

----- AuxC basis set information -----
Your calculation utilizes the AutoAux generation procedure.
  G. L. Stoychev, A. A. Auer, F. Neese, J. Chem. Theory Comput. 13, 554 (2017)

----- AuxJK basis set information -----
Your calculation utilizes the AutoAux generation procedure.
  G. L. Stoychev, A. A. Auer, F. Neese, J. Chem. Theory Comput. 13, 554 (2017)

================================================================================
                                        WARNINGS
                       Please study these warnings very carefully!
================================================================================


WARNING: Geometry Optimization
  ===> : Switching off AutoStart
         For restart on a previous wavefunction, please use MOREAD

INFO   : the flag for use of the SHARK integral package has been found!

================================================================================
                                       INPUT FILE
================================================================================
NAME = Nke_gas.inp
|  1> ! OPT FREQ B3LYP 6-31+G(d) D4 AUTOAUX
|  2> 
|  3> %PAL NPROCS 4 END
|  4> 
|  5> %maxcore 3375
|  6> 
|  7> *xyzfile 1 1 /users/fjb15167/WWenergy/structures/Nke.xyz
|  8> 
|  9>                          ****END OF INPUT****
================================================================================

                       *****************************
                       * Geometry Optimization Run *
                       *****************************

Geometry optimization settings:
Update method            Update   .... BFGS
Choice of coordinates    CoordSys .... Z-matrix Internals
Initial Hessian          InHess   .... Almoef's Model

Convergence Tolerances:
Energy Change            TolE     ....  5.0000e-06 Eh
Max. Gradient            TolMAXG  ....  3.0000e-04 Eh/bohr
RMS Gradient             TolRMSG  ....  1.0000e-04 Eh/bohr
Max. Displacement        TolMAXD  ....  4.0000e-03 bohr
RMS Displacement         TolRMSD  ....  2.0000e-03 bohr
Strict Convergence                ....  False
------------------------------------------------------------------------------
                        ORCA OPTIMIZATION COORDINATE SETUP
------------------------------------------------------------------------------

The optimization will be done in new redundant internal coordinates
Making redundant internal coordinates   ...  (new redundants) done
Evaluating the initial hessian          ...  (Almloef) done
Evaluating the coordinates              ...  done
Calculating the B-matrix                .... done
Calculating the G-matrix                .... done
Diagonalizing the G-matrix              .... done
Small eigenvalue found = 6.688e-03
Small eigenvalue found = 8.741e-03
Small eigenvalue found = 1.530e-02
Small eigenvalue found = 1.863e-02
Small eigenvalue found = 2.358e-02
The first mode is                       ....   59
The number of degrees of freedom        ....   87

    -----------------------------------------------------------------
                    Redundant Internal Coordinates


    -----------------------------------------------------------------
         Definition                    Initial Value    Approx d2E/dq
    -----------------------------------------------------------------
      1. B(H   1,C   0)                  1.0939         0.354996   
      2. B(H   2,C   0)                  1.0939         0.355010   
      3. B(H   3,C   0)                  1.0900         0.360075   
      4. B(C   4,C   0)                  1.5301         0.373409   
      5. B(O   5,C   4)                  1.2115         1.078121   
      6. B(N   6,C   4)                  1.3907         0.558099   
      7. B(C   7,N   6)                  1.4598         0.432989   
      8. B(H   8,C   7)                  1.0965         0.351583   
      9. B(H   9,C   7)                  1.0903         0.359765   
     10. B(C  10,N   6)                  1.4504         0.448218   
     11. B(H  11,C  10)                  1.0912         0.358531   
     12. B(H  12,C  10)                  1.0990         0.348327   
     13. B(C  13,C  10)                  1.5303         0.373160   
     14. B(H  14,C  13)                  1.0916         0.357924   
     15. B(H  15,C  13)                  1.0922         0.357242   
     16. B(C  16,C   7)                  1.5252         0.380218   
     17. B(N  17,C  16)                  1.3315         0.693689   
     18. B(O  18,C  16)                  1.2645         0.887480   
     19. B(C  19,N  17)                  1.4664         0.422725   
     20. B(H  20,C  19)                  1.0911         0.358673   
     21. B(H  21,C  19)                  1.0933         0.355824   
     22. B(H  22,C  19)                  1.0871         0.363903   
     23. B(C  23,N  17)                  1.4703         0.416564   
     24. B(H  24,C  23)                  1.0919         0.357640   
     25. B(H  25,C  23)                  1.0916         0.357972   
     26. B(H  26,C  23)                  1.0892         0.361137   
     27. B(N  27,C  13)                  1.4949         0.380657   
     28. B(H  28,N  27)                  1.0247         0.409911   
     29. B(H  29,N  27)                  1.0276         0.405611   
     30. B(H  30,N  27)                  1.0732         0.343109   
     31. A(H   1,C   0,C   4)          112.8707         0.323536   
     32. A(H   3,C   0,C   4)          106.4887         0.324292   
     33. A(H   2,C   0,H   3)          108.8061         0.290187   
     34. A(H   1,C   0,H   3)          108.6047         0.290185   
     35. A(H   1,C   0,H   2)          108.2266         0.289541   
     36. A(H   2,C   0,C   4)          111.7310         0.323538   
     37. A(C   0,C   4,O   5)          122.3876         0.434825   
     38. A(O   5,C   4,N   6)          119.9818         0.464638   
     39. A(C   0,C   4,N   6)          117.6300         0.386943   
     40. A(C   4,N   6,C  10)          126.6361         0.396960   
     41. A(C   7,N   6,C  10)          119.8435         0.379767   
     42. A(C   4,N   6,C   7)          112.7115         0.394560   
     43. A(H   8,C   7,C  16)          107.8747         0.323983   
     44. A(N   6,C   7,H   9)          109.5010         0.330260   
     45. A(H   8,C   7,H   9)          108.1228         0.289707   
     46. A(H   9,C   7,C  16)          112.7719         0.325210   
     47. A(N   6,C   7,C  16)          109.5794         0.371462   
     48. A(N   6,C   7,H   8)          108.9018         0.329007   
     49. A(H  12,C  10,C  13)          108.2513         0.322496   
     50. A(H  11,C  10,C  13)          109.6205         0.324027   
     51. A(N   6,C  10,C  13)          111.9153         0.372476   
     52. A(H  11,C  10,H  12)          106.7526         0.289129   
     53. A(N   6,C  10,H  12)          111.4481         0.330383   
     54. A(N   6,C  10,H  11)          108.7138         0.331966   
     55. A(H  14,C  13,H  15)          108.6307         0.290200   
     56. A(H  15,C  13,N  27)          105.7593         0.322954   
     57. A(C  10,C  13,H  15)          111.7458         0.323836   
     58. A(C  10,C  13,H  14)          111.0949         0.323937   
     59. A(H  14,C  13,N  27)          110.1004         0.323055   
     60. A(C  10,C  13,N  27)          109.3721         0.362184   
     61. A(N  17,C  16,O  18)          121.9955         0.466590   
     62. A(C   7,C  16,O  18)          118.4401         0.421280   
     63. A(C   7,C  16,N  17)          119.4558         0.403259   
     64. A(C  16,N  17,C  19)          119.3923         0.408240   
     65. A(C  19,N  17,C  23)          116.8505         0.373438   
     66. A(C  16,N  17,C  23)          122.9503         0.407181   
     67. A(H  21,C  19,H  22)          109.6818         0.290774   
     68. A(H  20,C  19,H  22)          110.0862         0.291138   
     69. A(N  17,C  19,H  22)          108.8737         0.329575   
     70. A(H  20,C  19,H  21)          109.6474         0.290114   
     71. A(N  17,C  19,H  21)          109.7400         0.328356   
     72. A(N  17,C  19,H  20)          108.7930         0.328788   
     73. A(H  25,C  23,H  26)          109.0455         0.290700   
     74. A(H  24,C  23,H  26)          108.0813         0.290658   
     75. A(N  17,C  23,H  26)          107.5792         0.328363   
     76. A(H  24,C  23,H  25)          110.7188         0.290256   
     77. A(N  17,C  23,H  25)          109.9803         0.327887   
     78. A(N  17,C  23,H  24)          111.3374         0.327837   
     79. A(H  29,N  27,H  30)          100.0687         0.289342   
     80. A(H  28,N  27,H  30)          120.5222         0.289821   
     81. A(C  13,N  27,H  30)          104.4659         0.318125   
     82. A(H  28,N  27,H  29)          107.5194         0.297573   
     83. A(C  13,N  27,H  29)          111.4729         0.326970   
     84. A(C  13,N  27,H  28)          112.1650         0.327539   
     85. D(O   5,C   4,C   0,H   2)    116.2500         0.010428   
     86. D(O   5,C   4,C   0,H   1)   -121.5039         0.010428   
     87. D(N   6,C   4,C   0,H   1)     58.2148         0.010428   
     88. D(N   6,C   4,C   0,H   2)    -64.0314         0.010428   
     89. D(N   6,C   4,C   0,H   3)    177.2904         0.010428   
     90. D(O   5,C   4,C   0,H   3)     -2.4282         0.010428   
     91. D(C   7,N   6,C   4,C   0)    174.0695         0.024866   
     92. D(C  10,N   6,C   4,C   0)      4.4850         0.024866   
     93. D(C   7,N   6,C   4,O   5)     -6.2048         0.024866   
     94. D(C  10,N   6,C   4,O   5)   -175.7893         0.024866   
     95. D(C  16,C   7,N   6,C   4)     71.0892         0.015984   
     96. D(H   9,C   7,N   6,C  10)    117.2825         0.015984   
     97. D(H   8,C   7,N   6,C  10)     -0.7552         0.015984   
     98. D(H   9,C   7,N   6,C   4)    -53.0896         0.015984   
     99. D(H   8,C   7,N   6,C   4)   -171.1273         0.015984   
    100. D(C  16,C   7,N   6,C  10)   -118.5387         0.015984   
    101. D(C  13,C  10,N   6,C   7)     67.0484         0.017136   
    102. D(C  13,C  10,N   6,C   4)   -124.0365         0.017136   
    103. D(H  12,C  10,N   6,C   7)    -54.3341         0.017136   
    104. D(H  12,C  10,N   6,C   4)    114.5810         0.017136   
    105. D(H  11,C  10,N   6,C   7)   -171.7247         0.017136   
    106. D(H  11,C  10,N   6,C   4)     -2.8096         0.017136   
    107. D(N  27,C  13,C  10,H  12)    169.2468         0.011120   
    108. D(H  15,C  13,C  10,H  12)     52.4903         0.011120   
    109. D(N  27,C  13,C  10,H  11)    -74.6634         0.011120   
    110. D(H  15,C  13,C  10,H  11)    168.5800         0.011120   
    111. D(H  15,C  13,C  10,N   6)    -70.7184         0.011120   
    112. D(N  27,C  13,C  10,N   6)     46.0381         0.011120   
    113. D(H  14,C  13,C  10,H  12)    -69.0111         0.011120   
    114. D(H  14,C  13,C  10,H  11)     47.0786         0.011120   
    115. D(H  14,C  13,C  10,N   6)    167.7802         0.011120   
    116. D(O  18,C  16,C   7,H   9)    166.8500         0.010787   
    117. D(O  18,C  16,C   7,H   8)    -73.8198         0.010787   
    118. D(O  18,C  16,C   7,N   6)     44.6030         0.010787   
    119. D(N  17,C  16,C   7,H   9)    -16.8625         0.010787   
    120. D(N  17,C  16,C   7,H   8)    102.4676         0.010787   
    121. D(N  17,C  16,C   7,N   6)   -139.1096         0.010787   
    122. D(C  23,N  17,C  16,O  18)   -171.7122         0.039749   
    123. D(C  23,N  17,C  16,C   7)     12.1372         0.039749   
    124. D(C  19,N  17,C  16,O  18)     -2.3307         0.039749   
    125. D(C  19,N  17,C  16,C   7)   -178.4812         0.039749   
    126. D(H  22,C  19,N  17,C  16)     15.6509         0.015236   
    127. D(H  21,C  19,N  17,C  23)     65.6156         0.015236   
    128. D(H  21,C  19,N  17,C  16)   -104.4040         0.015236   
    129. D(H  20,C  19,N  17,C  23)    -54.3479         0.015236   
    130. D(H  22,C  19,N  17,C  23)   -174.3295         0.015236   
    131. D(H  20,C  19,N  17,C  16)    135.6325         0.015236   
    132. D(H  26,C  23,N  17,C  19)      5.8013         0.014798   
    133. D(H  26,C  23,N  17,C  16)    175.4345         0.014798   
    134. D(H  25,C  23,N  17,C  19)   -112.8460         0.014798   
    135. D(H  25,C  23,N  17,C  16)     56.7872         0.014798   
    136. D(H  24,C  23,N  17,C  19)    124.0494         0.014798   
    137. D(H  24,C  23,N  17,C  16)    -66.3174         0.014798   
    138. D(H  30,N  27,C  13,H  15)     42.7762         0.013268   
    139. D(H  30,N  27,C  13,H  14)    159.9537         0.013268   
    140. D(H  30,N  27,C  13,C  10)    -77.7071         0.013268   
    141. D(H  29,N  27,C  13,H  15)    -64.4113         0.013268   
    142. D(H  29,N  27,C  13,H  14)     52.7661         0.013268   
    143. D(H  29,N  27,C  13,C  10)    175.1054         0.013268   
    144. D(H  28,N  27,C  13,H  15)    174.9553         0.013268   
    145. D(H  28,N  27,C  13,H  14)    -67.8672         0.013268   
    146. D(H  28,N  27,C  13,C  10)     54.4721         0.013268   
    -----------------------------------------------------------------

Number of atoms                         .... 31
Number of degrees of freedom            .... 146

         *************************************************************
         *                GEOMETRY OPTIMIZATION CYCLE   1            *
         *************************************************************
---------------------------------
CARTESIAN COORDINATES (ANGSTROEM)
---------------------------------
  C      0.267000    3.124000   -1.208000
  H      1.216000    2.792000   -1.639000
  H      0.475000    3.941000   -0.511000
  H     -0.367000    3.500000   -2.011000
  C     -0.510000    1.990000   -0.536000
  O     -1.631000    1.681000   -0.876000
  N      0.118000    1.301000    0.496000
  C     -0.764000    0.339000    1.150000
  H     -0.264000   -0.050000    2.045000
  H     -1.680000    0.840000    1.464000
  C      1.414000    1.601000    1.074000
  H      1.854000    2.439000    0.531000
  H      1.323000    1.916000    2.123000
  C      2.358000    0.398000    1.015000
  H      3.383000    0.691000    1.250000
  H      2.053000   -0.390000    1.707000
  C     -1.025000   -0.835000    0.212000
  N     -2.250000   -1.351000    0.134000
  O     -0.047000   -1.333000   -0.416000
  C     -2.492000   -2.501000   -0.743000
  H     -3.107000   -3.227000   -0.209000
  H     -3.012000   -2.173000   -1.647000
  H     -1.537000   -2.946000   -1.011000
  C     -3.433000   -0.693000    0.708000
  H     -3.379000   -0.659000    1.798000
  H     -3.538000    0.312000    0.295000
  H     -4.305000   -1.284000    0.431000
  N      2.298000   -0.213000   -0.348000
  H      2.488000    0.471000   -1.087000
  H      2.980000   -0.975000   -0.449000
  H      1.385000   -0.777000   -0.349000

----------------------------
CARTESIAN COORDINATES (A.U.)
----------------------------
  NO LB      ZA    FRAG     MASS         X           Y           Z
   0 C     6.0000    0    12.011    0.504557    5.903504   -2.282789
   1 H     1.0000    0     1.008    2.297907    5.276115   -3.097261
   2 H     1.0000    0     1.008    0.897620    7.447411   -0.965650
   3 H     1.0000    0     1.008   -0.693529    6.614041   -3.800239
   4 C     6.0000    0    12.011   -0.963760    3.760555   -1.012893
   5 O     8.0000    0    15.999   -3.082143    3.176630   -1.655400
   6 N     7.0000    0    14.007    0.222988    2.458534    0.937304
   7 C     6.0000    0    12.011   -1.443751    0.640617    2.173185
   8 H     1.0000    0     1.008   -0.498888   -0.094486    3.864490
   9 H     1.0000    0     1.008   -3.174740    1.587370    2.766559
  10 C     6.0000    0    12.011    2.672073    3.025452    2.029566
  11 H     1.0000    0     1.008    3.503552    4.609042    1.003445
  12 H     1.0000    0     1.008    2.500108    3.620715    4.011889
  13 C     6.0000    0    12.011    4.455974    0.752111    1.918072
  14 H     1.0000    0     1.008    6.392944    1.305801    2.362158
  15 H     1.0000    0     1.008    3.879608   -0.736993    3.225763
  16 C     6.0000    0    12.011   -1.936969   -1.577921    0.400622
  17 N     7.0000    0    14.007   -4.251884   -2.553020    0.253223
  18 O     8.0000    0    15.999   -0.088817   -2.519005   -0.786126
  19 C     6.0000    0    12.011   -4.709198   -4.726205   -1.404067
  20 H     1.0000    0     1.008   -5.871379   -6.098146   -0.394953
  21 H     1.0000    0     1.008   -5.691855   -4.106375   -3.112379
  22 H     1.0000    0     1.008   -2.904509   -5.567133   -1.910513
  23 C     6.0000    0    12.011   -6.487430   -1.309580    1.337926
  24 H     1.0000    0     1.008   -6.385385   -1.245330    3.397728
  25 H     1.0000    0     1.008   -6.685851    0.589595    0.557469
  26 H     1.0000    0     1.008   -8.135271   -2.426408    0.814472
  27 N     7.0000    0    14.007    4.342591   -0.402512   -0.657625
  28 H     1.0000    0     1.008    4.701639    0.890061   -2.054132
  29 H     1.0000    0     1.008    5.631384   -1.842483   -0.848487
  30 H     1.0000    0     1.008    2.617271   -1.468317   -0.659514

--------------------------------
INTERNAL COORDINATES (ANGSTROEM)
--------------------------------
 C      0   0   0     0.000000000000     0.00000000     0.00000000
 H      1   0   0     1.093885734435     0.00000000     0.00000000
 H      1   2   0     1.093874764313   108.22657330     0.00000000
 H      1   2   3     1.090018807177   108.60466181   117.96672434
 C      1   2   3     1.530120583484   112.87065597   235.80788826
 O      5   1   2     1.211495769700   122.38763951   238.49610611
 N      5   1   2     1.390729664601   117.63000391    58.21479491
 C      7   5   1     1.459823276976   112.71150316   174.06947316
 H      8   7   5     1.096515389769   108.90179085   188.87268233
 H      8   7   5     1.090253640214   109.50101074   306.91042216
 C      7   5   1     1.450413734077   126.63605777     4.48499679
 H     11   7   5     1.091188801262   108.71375052   357.19037953
 H     11   7   5     1.099048224602   111.44807717   114.58095875
 C     11   7   5     1.530302584458   111.91526942   235.96350417
 H     14  11   7     1.091649669079   111.09491883   167.78020012
 H     14  11   7     1.092168942975   111.74576345   289.28158577
 C      8   7   5     1.525201953841   109.57942110    71.08921376
 N     17   8   7     1.331527318533   119.45578123   220.89044630
 O     17   8   7     1.264465104303   118.44006205    44.60298928
 C     18  17   8     1.466353640838   119.39229917   181.51877095
 H     20  18  17     1.091080656964   108.79303415   135.63251376
 H     20  18  17     1.093252029497   109.73996384   255.59604846
 H     20  18  17     1.087140285336   108.87374500    15.65094942
 C     18  17   8     1.470349958343   122.95027609    12.13721592
 H     24  18  17     1.091866292181   111.33743650   293.68256921
 H     24  18  17     1.091613026672   109.98034184    56.78719890
 H     24  18  17     1.089217150067   107.57918681   175.43449640
 N     14  11   7     1.494887955668   109.37206622    46.03813611
 H     28  14  11     1.024732648060   112.16500512    54.47205078
 H     28  14  11     1.027603522765   111.47287763   175.10539712
 H     28  14  11     1.073157024857   104.46587937   282.29291115

---------------------------
INTERNAL COORDINATES (A.U.)
---------------------------
 C      0   0   0     0.000000000000     0.00000000     0.00000000
 H      1   0   0     2.067144459885     0.00000000     0.00000000
 H      1   2   0     2.067123729359   108.22657330     0.00000000
 H      1   2   3     2.059837026388   108.60466181   117.96672434
 C      1   2   3     2.891508854660   112.87065597   235.80788826
 O      5   1   2     2.289395217136   122.38763951   238.49610611
 N      5   1   2     2.628098192415   117.63000391    58.21479491
 C      7   5   1     2.758666197407   112.71150316   174.06947316
 H      8   7   5     2.072113788293   108.90179085   188.87268233
 H      8   7   5     2.060280796515   109.50101074   306.91042216
 C      7   5   1     2.740884738284   126.63605777     4.48499679
 H     11   7   5     2.062047994787   108.71375052   357.19037953
 H     11   7   5     2.076900152469   111.44807717   114.58095875
 C     11   7   5     2.891852786658   111.91526942   235.96350417
 H     14  11   7     2.062918908745   111.09491883   167.78020012
 H     14  11   7     2.063900194198   111.74576345   289.28158577
 C      8   7   5     2.882213991681   109.57942110    71.08921376
 N     17   8   7     2.516221971862   119.45578123   220.89044630
 O     17   8   7     2.389492753033   118.44006205    44.60298928
 C     18  17   8     2.771006796663   119.39229917   181.51877095
 H     20  18  17     2.061843631680   108.79303415   135.63251376
 H     20  18  17     2.065946931104   109.73996384   255.59604846
 H     20  18  17     2.054397408438   108.87374500    15.65094942
 C     18  17   8     2.778558742291   122.95027609    12.13721592
 H     24  18  17     2.063328267081   111.33743650   293.68256921
 H     24  18  17     2.062849664631   109.98034184    56.78719890
 H     24  18  17     2.058322113997   107.57918681   175.43449640
 N     14  11   7     2.824928837109   109.37206622    46.03813611
 H     28  14  11     1.936464065321   112.16500512    54.47205078
 H     28  14  11     1.941889232279   111.47287763   175.10539712
 H     28  14  11     2.027972875674   104.46587937   282.29291115

---------------------
BASIS SET INFORMATION
---------------------
There are 4 groups of distinct atoms

 Group   1 Type C   : 11s5p1d contracted to 4s3p1d pattern {6311/311/1}
 Group   2 Type H   : 4s contracted to 2s pattern {31}
 Group   3 Type O   : 11s5p1d contracted to 4s3p1d pattern {6311/311/1}
 Group   4 Type N   : 11s5p1d contracted to 4s3p1d pattern {6311/311/1}

Atom   0C    basis set group =>   1
Atom   1H    basis set group =>   2
Atom   2H    basis set group =>   2
Atom   3H    basis set group =>   2
Atom   4C    basis set group =>   1
Atom   5O    basis set group =>   3
Atom   6N    basis set group =>   4
Atom   7C    basis set group =>   1
Atom   8H    basis set group =>   2
Atom   9H    basis set group =>   2
Atom  10C    basis set group =>   1
Atom  11H    basis set group =>   2
Atom  12H    basis set group =>   2
Atom  13C    basis set group =>   1
Atom  14H    basis set group =>   2
Atom  15H    basis set group =>   2
Atom  16C    basis set group =>   1
Atom  17N    basis set group =>   4
Atom  18O    basis set group =>   3
Atom  19C    basis set group =>   1
Atom  20H    basis set group =>   2
Atom  21H    basis set group =>   2
Atom  22H    basis set group =>   2
Atom  23C    basis set group =>   1
Atom  24H    basis set group =>   2
Atom  25H    basis set group =>   2
Atom  26H    basis set group =>   2
Atom  27N    basis set group =>   4
Atom  28H    basis set group =>   2
Atom  29H    basis set group =>   2
Atom  30H    basis set group =>   2
---------------------------------
AUXILIARY/J BASIS SET INFORMATION
---------------------------------
There are 4 groups of distinct atoms

 Group   1 Type C   : 16s13p12d2f contracted to 16s13p12d2f pattern {1111111111111111/1111111111111/111111111111/11}
 Group   2 Type H   : 9s2p contracted to 9s2p pattern {111111111/11}
 Group   3 Type O   : 16s13p12d3f contracted to 16s13p12d3f pattern {1111111111111111/1111111111111/111111111111/111}
 Group   4 Type N   : 16s13p12d3f contracted to 16s13p12d3f pattern {1111111111111111/1111111111111/111111111111/111}

Atom   0C    basis set group =>   1
Atom   1H    basis set group =>   2
Atom   2H    basis set group =>   2
Atom   3H    basis set group =>   2
Atom   4C    basis set group =>   1
Atom   5O    basis set group =>   3
Atom   6N    basis set group =>   4
Atom   7C    basis set group =>   1
Atom   8H    basis set group =>   2
Atom   9H    basis set group =>   2
Atom  10C    basis set group =>   1
Atom  11H    basis set group =>   2
Atom  12H    basis set group =>   2
Atom  13C    basis set group =>   1
Atom  14H    basis set group =>   2
Atom  15H    basis set group =>   2
Atom  16C    basis set group =>   1
Atom  17N    basis set group =>   4
Atom  18O    basis set group =>   3
Atom  19C    basis set group =>   1
Atom  20H    basis set group =>   2
Atom  21H    basis set group =>   2
Atom  22H    basis set group =>   2
Atom  23C    basis set group =>   1
Atom  24H    basis set group =>   2
Atom  25H    basis set group =>   2
Atom  26H    basis set group =>   2
Atom  27N    basis set group =>   4
Atom  28H    basis set group =>   2
Atom  29H    basis set group =>   2
Atom  30H    basis set group =>   2
---------------------------------
AUXILIARY/C BASIS SET INFORMATION
---------------------------------
There are 4 groups of distinct atoms

 Group   1 Type C   : 16s13p12d2f contracted to 16s13p12d2f pattern {1111111111111111/1111111111111/111111111111/11}
 Group   2 Type H   : 9s2p contracted to 9s2p pattern {111111111/11}
 Group   3 Type O   : 16s13p12d3f contracted to 16s13p12d3f pattern {1111111111111111/1111111111111/111111111111/111}
 Group   4 Type N   : 16s13p12d3f contracted to 16s13p12d3f pattern {1111111111111111/1111111111111/111111111111/111}

Atom   0C    basis set group =>   1
Atom   1H    basis set group =>   2
Atom   2H    basis set group =>   2
Atom   3H    basis set group =>   2
Atom   4C    basis set group =>   1
Atom   5O    basis set group =>   3
Atom   6N    basis set group =>   4
Atom   7C    basis set group =>   1
Atom   8H    basis set group =>   2
Atom   9H    basis set group =>   2
Atom  10C    basis set group =>   1
Atom  11H    basis set group =>   2
Atom  12H    basis set group =>   2
Atom  13C    basis set group =>   1
Atom  14H    basis set group =>   2
Atom  15H    basis set group =>   2
Atom  16C    basis set group =>   1
Atom  17N    basis set group =>   4
Atom  18O    basis set group =>   3
Atom  19C    basis set group =>   1
Atom  20H    basis set group =>   2
Atom  21H    basis set group =>   2
Atom  22H    basis set group =>   2
Atom  23C    basis set group =>   1
Atom  24H    basis set group =>   2
Atom  25H    basis set group =>   2
Atom  26H    basis set group =>   2
Atom  27N    basis set group =>   4
Atom  28H    basis set group =>   2
Atom  29H    basis set group =>   2
Atom  30H    basis set group =>   2
----------------------------------
AUXILIARY/JK BASIS SET INFORMATION
----------------------------------
There are 4 groups of distinct atoms

 Group   1 Type C   : 16s13p12d2f contracted to 16s13p12d2f pattern {1111111111111111/1111111111111/111111111111/11}
 Group   2 Type H   : 9s2p contracted to 9s2p pattern {111111111/11}
 Group   3 Type O   : 16s13p12d3f contracted to 16s13p12d3f pattern {1111111111111111/1111111111111/111111111111/111}
 Group   4 Type N   : 16s13p12d3f contracted to 16s13p12d3f pattern {1111111111111111/1111111111111/111111111111/111}

Atom   0C    basis set group =>   1
Atom   1H    basis set group =>   2
Atom   2H    basis set group =>   2
Atom   3H    basis set group =>   2
Atom   4C    basis set group =>   1
Atom   5O    basis set group =>   3
Atom   6N    basis set group =>   4
Atom   7C    basis set group =>   1
Atom   8H    basis set group =>   2
Atom   9H    basis set group =>   2
Atom  10C    basis set group =>   1
Atom  11H    basis set group =>   2
Atom  12H    basis set group =>   2
Atom  13C    basis set group =>   1
Atom  14H    basis set group =>   2
Atom  15H    basis set group =>   2
Atom  16C    basis set group =>   1
Atom  17N    basis set group =>   4
Atom  18O    basis set group =>   3
Atom  19C    basis set group =>   1
Atom  20H    basis set group =>   2
Atom  21H    basis set group =>   2
Atom  22H    basis set group =>   2
Atom  23C    basis set group =>   1
Atom  24H    basis set group =>   2
Atom  25H    basis set group =>   2
Atom  26H    basis set group =>   2
Atom  27N    basis set group =>   4
Atom  28H    basis set group =>   2
Atom  29H    basis set group =>   2
Atom  30H    basis set group =>   2


           ************************************************************
           *        Program running with 4 parallel MPI-processes     *
           *              working on a common directory               *
           ************************************************************
------------------------------------------------------------------------------
                           ORCA GTO INTEGRAL CALCULATION
                           -- RI-GTO INTEGRALS CHOSEN --
------------------------------------------------------------------------------
------------------------------------------------------------------------------
                   ___                                                        
                  /   \      - P O W E R E D   B Y -                         
                 /     \                                                     
                 |  |  |   _    _      __       _____    __    __             
                 |  |  |  | |  | |    /  \     |  _  \  |  |  /  |          
                  \  \/   | |  | |   /    \    | | | |  |  | /  /          
                 / \  \   | |__| |  /  /\  \   | |_| |  |  |/  /          
                |  |  |   |  __  | /  /__\  \  |    /   |      \           
                |  |  |   | |  | | |   __   |  |    \   |  |\   \          
                \     /   | |  | | |  |  |  |  | |\  \  |  | \   \       
                 \___/    |_|  |_| |__|  |__|  |_| \__\ |__|  \__/        
                                                                              
                      - O R C A' S   B I G   F R I E N D -                    
                                      &                                       
                       - I N T E G R A L  F E E D E R -                       
                                                                              
 v1 FN, 2020, v2 2021                                                         
------------------------------------------------------------------------------


Reading SHARK input file Nke_gas.SHARKINP.tmp ... ok
----------------------
SHARK INTEGRAL PACKAGE
----------------------

Number of atoms                             ...     31
Number of basis functions                   ...    270
Number of shells                            ...    140
Maximum angular momentum                    ...      2
Integral batch strategy                     ... SHARK/LIBINT Hybrid
RI-J (if used) integral strategy            ... SPLIT-RIJ (Revised 2003 algorithm where possible)
Printlevel                                  ...      1
Contraction scheme used                     ... SEGMENTED contraction
Coulomb Range Separation                    ... NOT USED
Exchange Range Separation                   ... NOT USED
Finite Nucleus Model                        ... NOT USED
Auxiliary Coulomb fitting basis             ... AVAILABLE
   # of basis functions in Aux-J            ...   1982
   # of shells in Aux-J                     ...    762
   Maximum angular momentum in Aux-J        ...      3
Auxiliary J/K fitting basis                 ... AVAILABLE
   # of basis functions in Aux-JK           ...   1982
   # of shells in Aux-JK                    ...    762
   Maximum angular momentum in Aux-JK       ...      3
Auxiliary Correlation fitting basis         ... AVAILABLE
   # of basis functions in Aux-C            ...   1982
   # of shells in Aux-C                     ...    762
   Maximum angular momentum in Aux-C        ...      3
Auxiliary 'external' fitting basis          ... NOT available
Integral threshold                          ...     2.500000e-11
Primitive cut-off                           ...     2.500000e-12
Primitive pair pre-selection threshold      ...     2.500000e-12

Calculating pre-screening integrals         ... done (  0.0 sec) Dimension = 140
Organizing shell pair data                  ... done (  1.7 sec)
Shell pair information
Total number of shell pairs                 ...      9870
Shell pairs after pre-screening             ...      9095
Total number of primitive shell pairs       ...     43398
Primitive shell pairs kept                  ...     26477
          la=0 lb=0:   3490 shell pairs
          la=1 lb=0:   3289 shell pairs
          la=1 lb=1:    770 shell pairs
          la=2 lb=0:    982 shell pairs
          la=2 lb=1:    484 shell pairs
          la=2 lb=2:     80 shell pairs

Calculating one electron integrals          ... done (  0.0 sec)
Calculating RI/J V-Matrix + Cholesky decomp.... done (  0.5 sec)
Calculating RI/JK V-Matrix + Cholesky decomp... done (  0.3 sec)
Calculating RI/C V-Matrix + Cholesky decomp.... done (  0.3 sec)
Calculating Nuclear repulsion               ... done (  0.0 sec) ENN=    917.657985224575 Eh

SHARK setup successfully completed in   3.2 seconds

Maximum memory used throughout the entire GTOINT-calculation: 36.2 MB


           ************************************************************
           *        Program running with 4 parallel MPI-processes     *
           *              working on a common directory               *
           ************************************************************
-------------------------------------------------------------------------------
                                 ORCA SCF
-------------------------------------------------------------------------------

------------
SCF SETTINGS
------------
Hamiltonian:
 Density Functional     Method          .... DFT(GTOs)
 Exchange Functional    Exchange        .... B88
   X-Alpha parameter    XAlpha          ....  0.666667
   Becke's b parameter  XBeta           ....  0.004200
 Correlation Functional Correlation     .... LYP
 LDA part of GGA corr.  LDAOpt          .... VWN-5
 Gradients option       PostSCFGGA      .... off
 Hybrid DFT is turned on
   Fraction HF Exchange ScalHFX         ....  0.200000
   Scaling of DF-GGA-X  ScalDFX         ....  0.720000
   Scaling of DF-GGA-C  ScalDFC         ....  0.810000
   Scaling of DF-LDA-C  ScalLDAC        ....  1.000000
   Perturbative correction              ....  0.000000
   Density functional embedding theory  .... OFF
   NL short-range parameter             ....  4.800000
 RI-approximation to the Coulomb term is turned on
   Number of AuxJ basis functions       .... 1982
   RIJ-COSX (HFX calculated with COS-X)).... on


General Settings:
 Integral files         IntName         .... Nke_gas
 Hartree-Fock type      HFTyp           .... RHF
 Total Charge           Charge          ....    1
 Multiplicity           Mult            ....    1
 Number of Electrons    NEL             ....  102
 Basis Dimension        Dim             ....  270
 Nuclear Repulsion      ENuc            ....    917.6579852246 Eh

Convergence Acceleration:
 DIIS                   CNVDIIS         .... on
   Start iteration      DIISMaxIt       ....    12
   Startup error        DIISStart       ....  0.200000
   # of expansion vecs  DIISMaxEq       ....     5
   Bias factor          DIISBfac        ....   1.050
   Max. coefficient     DIISMaxC        ....  10.000
 Trust-Rad. Augm. Hess. CNVTRAH         .... auto
   Auto Start mean grad. ratio tolernc. ....  1.125000
   Auto Start start iteration           ....    20
   Auto Start num. interpolation iter.  ....    10
   Max. Number of Micro iterations      ....    16
   Max. Number of Macro iterations      .... Maxiter - #DIIS iter
   Number of Davidson start vectors     ....     2
   Converg. threshold I  (grad. norm)   ....   1.000e-05
   Converg. threshold II (energy diff.) ....   1.000e-08
   Grad. Scal. Fac. for Micro threshold ....   0.100
   Minimum threshold for Micro iter.    ....   0.010
   NR start threshold (gradient norm)   ....   0.001
   Initial trust radius                 ....   0.400
   Minimum AH scaling param. (alpha)    ....   1.000
   Maximum AH scaling param. (alpha)    .... 1000.000
   Orbital update algorithm             .... Taylor
   White noise on init. David. guess    .... on
   Maximum white noise                  ....   0.010
   Quad. conv. algorithm                .... NR
 SOSCF                  CNVSOSCF        .... on
   Start iteration      SOSCFMaxIt      ....   150
   Startup grad/error   SOSCFStart      ....  0.003300
 Level Shifting         CNVShift        .... on
   Level shift para.    LevelShift      ....    0.2500
   Turn off err/grad.   ShiftErr        ....    0.0010
 Zerner damping         CNVZerner       .... off
 Static damping         CNVDamp         .... on
   Fraction old density DampFac         ....    0.7000
   Max. Damping (<1)    DampMax         ....    0.9800
   Min. Damping (>=0)   DampMin         ....    0.0000
   Turn off err/grad.   DampErr         ....    0.1000
 Fernandez-Rico         CNVRico         .... off

SCF Procedure:
 Maximum # iterations   MaxIter         ....   125
 SCF integral mode      SCFMode         .... Direct
   Integral package                     .... SHARK and LIBINT hybrid scheme
 Reset frequency        DirectResetFreq ....    20
 Integral Threshold     Thresh          ....  2.500e-11 Eh
 Primitive CutOff       TCut            ....  2.500e-12 Eh

Convergence Tolerance:
 Convergence Check Mode ConvCheckMode   .... Total+1el-Energy
 Convergence forced     ConvForced      .... 0
 Energy Change          TolE            ....  1.000e-08 Eh
 1-El. energy change                    ....  1.000e-05 Eh
 Orbital Gradient       TolG            ....  1.000e-05
 Orbital Rotation angle TolX            ....  1.000e-05
 DIIS Error             TolErr          ....  5.000e-07


Diagonalization of the overlap matrix:
Smallest eigenvalue                        ... 1.449e-05
Time for diagonalization                   ...    0.012 sec
Threshold for overlap eigenvalues          ... 1.000e-08
Number of eigenvalues below threshold      ... 0
Time for construction of square roots      ...    0.006 sec
Total time needed                          ...    0.019 sec

Time for model grid setup =    0.285 sec

------------------------------
INITIAL GUESS: MODEL POTENTIAL
------------------------------
Loading Hartree-Fock densities                     ... done
Calculating cut-offs                               ... done
Initializing the effective Hamiltonian             ... done
Setting up the integral package (SHARK)            ... done
Starting the Coulomb interaction                   ... done (   0.2 sec)
Reading the grid                                   ... done
Mapping shells                                     ... done
Starting the XC term evaluation                    ... done (   0.2 sec)
  promolecular density results
     # of electrons  =    102.997026150
     EX              =    -82.687092654
     EC              =     -3.475142167
     EX+EC           =    -86.162234821
Transforming the Hamiltonian                       ... done (   0.0 sec)
Diagonalizing the Hamiltonian                      ... done (   0.0 sec)
Back transforming the eigenvectors                 ... done (   0.0 sec)
Now organizing SCF variables                       ... done
                      ------------------
                      INITIAL GUESS DONE (   0.7 sec)
                      ------------------
-------------------
DFT GRID GENERATION
-------------------

General Integration Accuracy     IntAcc      ... 4.388
Radial Grid Type                 RadialGrid  ... OptM3 with GC (2021)
Angular Grid (max. ang.)         AngularGrid ... 4 (Lebedev-302)
Angular grid pruning method      GridPruning ... 4 (adaptive)
Weight generation scheme         WeightScheme... Becke
Basis function cutoff            BFCut       ... 1.0000e-11
Integration weight cutoff        WCut        ... 1.0000e-14
Angular grids for H and He will be reduced by one unit
Partially contracted basis set               ... off
Rotationally invariant grid construction     ... off

Total number of grid points                  ...   138254
Total number of batches                      ...     2175
Average number of points per batch           ...       63
Average number of grid points per atom       ...     4460
Time for grid setup =    1.048 sec

--------------------
COSX GRID GENERATION
--------------------

GRIDX 1
-------
General Integration Accuracy     IntAcc      ... 3.816
Radial Grid Type                 RadialGrid  ... OptM3 with GC (2021)
Angular Grid (max. ang.)         AngularGrid ... 1 (Lebedev-50)
Angular grid pruning method      GridPruning ... 4 (adaptive)
Weight generation scheme         WeightScheme... Becke
Basis function cutoff            BFCut       ... 1.0000e-11
Integration weight cutoff        WCut        ... 1.0000e-14
Angular grids for H and He will be reduced by one unit
Partially contracted basis set               ... on
Rotationally invariant grid construction     ... off

Total number of grid points                  ...    17671
Total number of batches                      ...      293
Average number of points per batch           ...       60
Average number of grid points per atom       ...      570
UseSFitting                                  ... on

GRIDX 2
-------
General Integration Accuracy     IntAcc      ... 4.020
Radial Grid Type                 RadialGrid  ... OptM3 with GC (2021)
Angular Grid (max. ang.)         AngularGrid ... 2 (Lebedev-110)
Angular grid pruning method      GridPruning ... 4 (adaptive)
Weight generation scheme         WeightScheme... Becke
Basis function cutoff            BFCut       ... 1.0000e-11
Integration weight cutoff        WCut        ... 1.0000e-14
Angular grids for H and He will be reduced by one unit
Partially contracted basis set               ... on
Rotationally invariant grid construction     ... off

Total number of grid points                  ...    39522
Total number of batches                      ...      634
Average number of points per batch           ...       62
Average number of grid points per atom       ...     1275
UseSFitting                                  ... on

GRIDX 3
-------
General Integration Accuracy     IntAcc      ... 4.338
Radial Grid Type                 RadialGrid  ... OptM3 with GC (2021)
Angular Grid (max. ang.)         AngularGrid ... 3 (Lebedev-194)
Angular grid pruning method      GridPruning ... 4 (adaptive)
Weight generation scheme         WeightScheme... Becke
Basis function cutoff            BFCut       ... 1.0000e-11
Integration weight cutoff        WCut        ... 1.0000e-14
Angular grids for H and He will be reduced by one unit
Partially contracted basis set               ... on
Rotationally invariant grid construction     ... off

Total number of grid points                  ...    85187
Total number of batches                      ...     1348
Average number of points per batch           ...       63
Average number of grid points per atom       ...     2748
UseSFitting                                  ... on

Time for X-Grid setup             =    1.339 sec

--------------
SCF ITERATIONS
--------------
ITER       Energy         Delta-E        Max-DP      RMS-DP      [F,P]     Damp
               ***  Starting incremental Fock matrix formation  ***
  0   -629.4660667132   0.000000000000 0.12410261  0.00277206  0.2621034 0.7000
  1   -629.6369011041  -0.170834390879 0.11045573  0.00200652  0.0965680 0.7000
                               ***Turning on DIIS***
  2   -629.6997734481  -0.062872344072 0.10108452  0.00334810  0.0348153 0.0000
  3   -629.8051186055  -0.105345157352 0.22338714  0.00172267  0.0479058 0.0000
  4   -629.8255783179  -0.020459712441 0.05157566  0.00059096  0.0161349 0.0000
  5   -629.8271490334  -0.001570715493 0.01719989  0.00025117  0.0041910 0.0000
                      *** Initiating the SOSCF procedure ***
                           *** Shutting down DIIS ***
                      *** Re-Reading the Fockian *** 
                      *** Removing any level shift *** 
ITER      Energy       Delta-E        Grad      Rot      Max-DP    RMS-DP
  6   -629.82723465  -0.0000856202  0.000231  0.000231  0.009245  0.000146
               *** Restarting incremental Fock matrix formation ***
  7   -629.82719409   0.0000405686  0.000230  0.000928  0.004133  0.000072
  8   -629.82718641   0.0000076756  0.000424  0.000612  0.001200  0.000029
  9   -629.82719806  -0.0000116472  0.000073  0.000153  0.000976  0.000013
 10   -629.82719755   0.0000005107  0.000134  0.000104  0.000477  0.000008
 11   -629.82719825  -0.0000007079  0.000007  0.000026  0.000980  0.000010
 12   -629.82719827  -0.0000000132  0.000013  0.000022  0.001102  0.000006
 13   -629.82719826   0.0000000073  0.000004  0.000011  0.001502  0.000014
 14   -629.82719825   0.0000000125  0.000005  0.000007  0.000847  0.000005
                  ***Gradient check signals convergence***
              ***Rediagonalizing the Fockian in SOSCF/NRSCF***

               *****************************************************
               *                     SUCCESS                       *
               *           SCF CONVERGED AFTER  15 CYCLES          *
               *****************************************************

Old exchange energy                            =    -16.789525859 Eh
New exchange energy                            =    -16.789528948 Eh
Exchange energy change after final integration =     -0.000003089 Eh
Total energy after final integration           =   -629.827201352 Eh
Final COS-X integration done in                =    13.171 sec

----------------
TOTAL SCF ENERGY
----------------

Total Energy       :         -629.82720135 Eh          -17138.46945 eV

Components:
Nuclear Repulsion  :          917.65798522 Eh           24970.74327 eV
Electronic Energy  :        -1547.48518658 Eh          -42109.21272 eV
One Electron Energy:        -2662.22731552 Eh          -72442.88818 eV
Two Electron Energy:         1114.74212895 Eh           30333.67546 eV
Max COSX asymmetry :            0.00001707 Eh               0.00046 eV

Virial components:
Potential Energy   :        -1255.97416377 Eh          -34176.79451 eV
Kinetic Energy     :          626.14696242 Eh           17038.32506 eV
Virial Ratio       :            2.00587760


DFT components:
N(Alpha)           :       51.000001297731 electrons
N(Beta)            :       51.000001297731 electrons
N(Total)           :      102.000002595461 electrons
E(X)               :      -66.689618404849 Eh       
E(C)               :       -4.057874033835 Eh       
E(XC)              :      -70.747492438684 Eh       
DFET-embed. en.    :        0.000000000000 Eh       

---------------
SCF CONVERGENCE
---------------

  Last Energy change         ...   -1.6364e-08  Tolerance :   1.0000e-08
  Last MAX-Density change    ...    2.6645e-15  Tolerance :   1.0000e-07
  Last RMS-Density change    ...    3.5716e-17  Tolerance :   5.0000e-09
  Last Orbital Gradient      ...    5.6676e-07  Tolerance :   1.0000e-05
  Last Orbital Rotation      ...    8.4793e-07  Tolerance :   1.0000e-05

             **** THE GBW FILE WAS UPDATED (Nke_gas.gbw) ****
             **** DENSITY Nke_gas.scfp WAS UPDATED ****
             **** ENERGY FILE WAS UPDATED (Nke_gas.en.tmp) ****
             **** THE GBW FILE WAS UPDATED (Nke_gas.gbw) ****
             **** DENSITY Nke_gas.scfp WAS UPDATED ****
----------------
ORBITAL ENERGIES
----------------

  NO   OCC          E(Eh)            E(eV) 
   0   2.0000     -19.264042      -524.2012 
   1   2.0000     -19.253188      -523.9059 
   2   2.0000     -14.585102      -396.8808 
   3   2.0000     -14.506357      -394.7380 
   4   2.0000     -14.502141      -394.6233 
   5   2.0000     -10.426818      -283.7281 
   6   2.0000     -10.422002      -283.5971 
   7   2.0000     -10.401762      -283.0463 
   8   2.0000     -10.385306      -282.5985 
   9   2.0000     -10.364036      -282.0197 
  10   2.0000     -10.327297      -281.0200 
  11   2.0000     -10.317803      -280.7617 
  12   2.0000     -10.308431      -280.5067 
  13   2.0000      -1.188990       -32.3541 
  14   2.0000      -1.174203       -31.9517 
  15   2.0000      -1.149313       -31.2744 
  16   2.0000      -1.081526       -29.4298 
  17   2.0000      -1.069526       -29.1033 
  18   2.0000      -0.930708       -25.3259 
  19   2.0000      -0.897353       -24.4182 
  20   2.0000      -0.855132       -23.2693 
  21   2.0000      -0.840966       -22.8838 
  22   2.0000      -0.819581       -22.3019 
  23   2.0000      -0.801004       -21.7964 
  24   2.0000      -0.756338       -20.5810 
  25   2.0000      -0.724133       -19.7047 
  26   2.0000      -0.701468       -19.0879 
  27   2.0000      -0.676096       -18.3975 
  28   2.0000      -0.650171       -17.6920 
  29   2.0000      -0.647573       -17.6214 
  30   2.0000      -0.643264       -17.5041 
  31   2.0000      -0.614667       -16.7259 
  32   2.0000      -0.597818       -16.2675 
  33   2.0000      -0.596552       -16.2330 
  34   2.0000      -0.590667       -16.0729 
  35   2.0000      -0.577093       -15.7035 
  36   2.0000      -0.563314       -15.3286 
  37   2.0000      -0.551354       -15.0031 
  38   2.0000      -0.541856       -14.7447 
  39   2.0000      -0.535506       -14.5719 
  40   2.0000      -0.530361       -14.4318 
  41   2.0000      -0.524890       -14.2830 
  42   2.0000      -0.523124       -14.2349 
  43   2.0000      -0.516832       -14.0637 
  44   2.0000      -0.505332       -13.7508 
  45   2.0000      -0.498241       -13.5578 
  46   2.0000      -0.483667       -13.1612 
  47   2.0000      -0.414877       -11.2894 
  48   2.0000      -0.394977       -10.7479 
  49   2.0000      -0.390607       -10.6289 
  50   2.0000      -0.378519       -10.3000 
  51   0.0000      -0.155991        -4.2447 
  52   0.0000      -0.130974        -3.5640 
  53   0.0000      -0.118148        -3.2150 
  54   0.0000      -0.114933        -3.1275 
  55   0.0000      -0.108562        -2.9541 
  56   0.0000      -0.100739        -2.7412 
  57   0.0000      -0.087503        -2.3811 
  58   0.0000      -0.078613        -2.1392 
  59   0.0000      -0.070417        -1.9161 
  60   0.0000      -0.065146        -1.7727 
  61   0.0000      -0.061855        -1.6832 
  62   0.0000      -0.050433        -1.3723 
  63   0.0000      -0.047525        -1.2932 
  64   0.0000      -0.043609        -1.1867 
  65   0.0000      -0.040570        -1.1040 
  66   0.0000      -0.036986        -1.0065 
  67   0.0000      -0.029333        -0.7982 
  68   0.0000      -0.023604        -0.6423 
  69   0.0000      -0.019817        -0.5392 
  70   0.0000      -0.018583        -0.5057 
  71   0.0000      -0.013604        -0.3702 
  72   0.0000      -0.010626        -0.2891 
  73   0.0000      -0.005824        -0.1585 
  74   0.0000      -0.001262        -0.0343 
  75   0.0000      -0.000578        -0.0157 
  76   0.0000       0.007339         0.1997 
  77   0.0000       0.014544         0.3958 
  78   0.0000       0.023354         0.6355 
  79   0.0000       0.027468         0.7474 
  80   0.0000       0.034806         0.9471 
  81   0.0000       0.036575         0.9953 
  82   0.0000       0.046133         1.2553 
  83   0.0000       0.047117         1.2821 
  84   0.0000       0.050152         1.3647 
  85   0.0000       0.055916         1.5215 
  86   0.0000       0.060287         1.6405 
  87   0.0000       0.065679         1.7872 
  88   0.0000       0.068108         1.8533 
  89   0.0000       0.073667         2.0046 
  90   0.0000       0.076910         2.0928 
  91   0.0000       0.079068         2.1515 
  92   0.0000       0.086642         2.3576 
  93   0.0000       0.090309         2.4574 
  94   0.0000       0.097036         2.6405 
  95   0.0000       0.103279         2.8104 
  96   0.0000       0.108679         2.9573 
  97   0.0000       0.114193         3.1074 
  98   0.0000       0.121415         3.3039 
  99   0.0000       0.128716         3.5025 
 100   0.0000       0.130631         3.5547 
 101   0.0000       0.137209         3.7336 
 102   0.0000       0.139586         3.7983 
 103   0.0000       0.143973         3.9177 
 104   0.0000       0.151518         4.1230 
 105   0.0000       0.161285         4.3888 
 106   0.0000       0.163434         4.4473 
 107   0.0000       0.168441         4.5835 
 108   0.0000       0.170683         4.6445 
 109   0.0000       0.178764         4.8644 
 110   0.0000       0.181411         4.9364 
 111   0.0000       0.185780         5.0553 
 112   0.0000       0.192761         5.2453 
 113   0.0000       0.199068         5.4169 
 114   0.0000       0.206532         5.6200 
 115   0.0000       0.209342         5.6965 
 116   0.0000       0.218648         5.9497 
 117   0.0000       0.227572         6.1926 
 118   0.0000       0.232580         6.3288 
 119   0.0000       0.237642         6.4666 
 120   0.0000       0.244096         6.6422 
 121   0.0000       0.262548         7.1443 
 122   0.0000       0.264027         7.1845 
 123   0.0000       0.269959         7.3460 
 124   0.0000       0.283193         7.7061 
 125   0.0000       0.290183         7.8963 
 126   0.0000       0.297446         8.0939 
 127   0.0000       0.305587         8.3155 
 128   0.0000       0.320775         8.7287 
 129   0.0000       0.338441         9.2095 
 130   0.0000       0.350064         9.5257 
 131   0.0000       0.361418         9.8347 
 132   0.0000       0.374696        10.1960 
 133   0.0000       0.392926        10.6921 
 134   0.0000       0.415582        11.3086 
 135   0.0000       0.491396        13.3716 
 136   0.0000       0.510186        13.8829 
 137   0.0000       0.514964        14.0129 
 138   0.0000       0.545446        14.8423 
 139   0.0000       0.551669        15.0117 
 140   0.0000       0.558311        15.1924 
 141   0.0000       0.566799        15.4234 
 142   0.0000       0.586865        15.9694 
 143   0.0000       0.592698        16.1281 
 144   0.0000       0.597396        16.2560 
 145   0.0000       0.604156        16.4399 
 146   0.0000       0.613043        16.6817 
 147   0.0000       0.631453        17.1827 
 148   0.0000       0.648446        17.6451 
 149   0.0000       0.660255        17.9665 
 150   0.0000       0.672094        18.2886 
 151   0.0000       0.684084        18.6149 
 152   0.0000       0.694153        18.8889 
 153   0.0000       0.705907        19.2087 
 154   0.0000       0.715603        19.4725 
 155   0.0000       0.735622        20.0173 
 156   0.0000       0.749205        20.3869 
 157   0.0000       0.769682        20.9441 
 158   0.0000       0.779987        21.2245 
 159   0.0000       0.789863        21.4933 
 160   0.0000       0.813534        22.1374 
 161   0.0000       0.820386        22.3238 
 162   0.0000       0.843233        22.9455 
 163   0.0000       0.845335        23.0027 
 164   0.0000       0.852875        23.2079 
 165   0.0000       0.857502        23.3338 
 166   0.0000       0.876570        23.8527 
 167   0.0000       0.881084        23.9755 
 168   0.0000       0.885457        24.0945 
 169   0.0000       0.902147        24.5487 
 170   0.0000       0.909540        24.7498 
 171   0.0000       0.920312        25.0430 
 172   0.0000       0.921033        25.0626 
 173   0.0000       0.942389        25.6437 
 174   0.0000       0.951155        25.8822 
 175   0.0000       0.959045        26.0969 
 176   0.0000       0.989775        26.9331 
 177   0.0000       0.990672        26.9576 
 178   0.0000       1.001013        27.2389 
 179   0.0000       1.028068        27.9751 
 180   0.0000       1.039489        28.2859 
 181   0.0000       1.052481        28.6395 
 182   0.0000       1.067836        29.0573 
 183   0.0000       1.084501        29.5108 
 184   0.0000       1.101133        29.9633 
 185   0.0000       1.122126        30.5346 
 186   0.0000       1.143113        31.1057 
 187   0.0000       1.173840        31.9418 
 188   0.0000       1.185495        32.2590 
 189   0.0000       1.194905        32.5150 
 190   0.0000       1.222565        33.2677 
 191   0.0000       1.229417        33.4541 
 192   0.0000       1.259731        34.2790 
 193   0.0000       1.275267        34.7018 
 194   0.0000       1.286861        35.0173 
 195   0.0000       1.291292        35.1378 
 196   0.0000       1.302749        35.4496 
 197   0.0000       1.317763        35.8581 
 198   0.0000       1.335483        36.3403 
 199   0.0000       1.350379        36.7457 
 200   0.0000       1.366517        37.1848 
 201   0.0000       1.399960        38.0949 
 202   0.0000       1.416085        38.5336 
 203   0.0000       1.430335        38.9214 
 204   0.0000       1.443174        39.2708 
 205   0.0000       1.472710        40.0745 
 206   0.0000       1.515491        41.2386 
 207   0.0000       1.537661        41.8419 
 208   0.0000       1.553258        42.2663 
 209   0.0000       1.601327        43.5743 
 210   0.0000       1.635086        44.4929 
 211   0.0000       1.673285        45.5324 
 212   0.0000       1.680789        45.7366 
 213   0.0000       1.686972        45.9048 
 214   0.0000       1.697887        46.2018 
 215   0.0000       1.716498        46.7083 
 216   0.0000       1.742169        47.4068 
 217   0.0000       1.751865        47.6707 
 218   0.0000       1.780981        48.4630 
 219   0.0000       1.783549        48.5328 
 220   0.0000       1.804305        49.0976 
 221   0.0000       1.808522        49.2124 
 222   0.0000       1.829417        49.7810 
 223   0.0000       1.836750        49.9805 
 224   0.0000       1.853703        50.4418 
 225   0.0000       1.864960        50.7482 
 226   0.0000       1.887639        51.3653 
 227   0.0000       1.904785        51.8318 
 228   0.0000       1.911294        52.0090 
 229   0.0000       1.927071        52.4383 
 230   0.0000       1.947404        52.9916 
 231   0.0000       1.955596        53.2145 
 232   0.0000       1.987155        54.0732 
 233   0.0000       1.995317        54.2953 
 234   0.0000       2.027704        55.1766 
 235   0.0000       2.043765        55.6137 
 236   0.0000       2.062193        56.1151 
 237   0.0000       2.090051        56.8732 
 238   0.0000       2.113843        57.5206 
 239   0.0000       2.135042        58.0975 
 240   0.0000       2.151272        58.5391 
 241   0.0000       2.166563        58.9552 
 242   0.0000       2.204512        59.9878 
 243   0.0000       2.207023        60.0562 
 244   0.0000       2.215703        60.2923 
 245   0.0000       2.243672        61.0534 
 246   0.0000       2.251120        61.2561 
 247   0.0000       2.280539        62.0566 
 248   0.0000       2.299901        62.5835 
 249   0.0000       2.321181        63.1625 
 250   0.0000       2.336108        63.5687 
 251   0.0000       2.356281        64.1177 
 252   0.0000       2.369017        64.4642 
 253   0.0000       2.399062        65.2818 
 254   0.0000       2.467752        67.1509 
 255   0.0000       2.479814        67.4792 
 256   0.0000       2.500513        68.0424 
 257   0.0000       2.509308        68.2817 
 258   0.0000       2.515936        68.4621 
 259   0.0000       2.550734        69.4090 
 260   0.0000       2.576491        70.1099 
 261   0.0000       2.588375        70.4333 
 262   0.0000       2.667444        72.5848 
 263   0.0000       2.703692        73.5712 
 264   0.0000       2.827519        76.9407 
 265   0.0000       2.851598        77.5959 
 266   0.0000       2.984478        81.2118 
 267   0.0000       3.045014        82.8590 
 268   0.0000       3.087879        84.0255 
 269   0.0000       3.114407        84.7473 

                    ********************************
                    * MULLIKEN POPULATION ANALYSIS *
                    ********************************

-----------------------
MULLIKEN ATOMIC CHARGES
-----------------------
   0 C :   -0.997646
   1 H :    0.208952
   2 H :    0.252212
   3 H :    0.272942
   4 C :    0.874857
   5 O :   -0.449004
   6 N :   -0.202840
   7 C :   -0.823820
   8 H :    0.242333
   9 H :    0.260211
  10 C :   -0.434580
  11 H :    0.241495
  12 H :    0.253496
  13 C :   -0.076002
  14 H :    0.255257
  15 H :    0.253982
  16 C :    0.569489
  17 N :   -0.008756
  18 O :   -0.578296
  19 C :   -0.529482
  20 H :    0.231778
  21 H :    0.243125
  22 H :    0.256120
  23 C :   -0.531198
  24 H :    0.228360
  25 H :    0.271566
  26 H :    0.231240
  27 N :   -1.066404
  28 H :    0.471294
  29 H :    0.497083
  30 H :    0.582235
Sum of atomic charges:    1.0000000

--------------------------------
MULLIKEN REDUCED ORBITAL CHARGES
--------------------------------
  0 C s       :     3.771405  s :     3.771405
      pz      :     1.112063  p :     3.194904
      px      :     1.086022
      py      :     0.996819
      dz2     :     0.002646  d :     0.031337
      dxz     :     0.007907
      dyz     :     0.009209
      dx2y2   :     0.005490
      dxy     :     0.006084
  1 H s       :     0.791048  s :     0.791048
  2 H s       :     0.747788  s :     0.747788
  3 H s       :     0.727058  s :     0.727058
  4 C s       :     2.856758  s :     2.856758
      pz      :     0.723510  p :     2.155388
      px      :     0.742173
      py      :     0.689705
      dz2     :     0.020644  d :     0.112997
      dxz     :     0.029446
      dyz     :     0.011696
      dx2y2   :     0.019494
      dxy     :     0.031716
  5 O s       :     3.943879  s :     3.943879
      pz      :     1.605057  p :     4.478268
      px      :     1.276651
      py      :     1.596560
      dz2     :     0.003392  d :     0.026857
      dxz     :     0.007484
      dyz     :     0.001678
      dx2y2   :     0.007125
      dxy     :     0.007178
  6 N s       :     3.226481  s :     3.226481
      pz      :     1.334993  p :     3.940724
      px      :     1.184530
      py      :     1.421200
      dz2     :     0.006408  d :     0.035635
      dxz     :     0.008489
      dyz     :     0.005931
      dx2y2   :     0.006676
      dxy     :     0.008131
  7 C s       :     3.926374  s :     3.926374
      pz      :     0.942052  p :     2.844826
      px      :     1.055022
      py      :     0.847751
      dz2     :     0.006713  d :     0.052621
      dxz     :     0.011357
      dyz     :     0.012099
      dx2y2   :     0.009955
      dxy     :     0.012496
  8 H s       :     0.757667  s :     0.757667
  9 H s       :     0.739789  s :     0.739789
 10 C s       :     3.480405  s :     3.480405
      pz      :     1.152256  p :     2.899481
      px      :     0.810470
      py      :     0.936755
      dz2     :     0.012494  d :     0.054693
      dxz     :     0.009002
      dyz     :     0.008441
      dx2y2   :     0.011334
      dxy     :     0.013422
 11 H s       :     0.758505  s :     0.758505
 12 H s       :     0.746504  s :     0.746504
 13 C s       :     3.233142  s :     3.233142
      pz      :     0.727179  p :     2.794011
      px      :     1.095219
      py      :     0.971613
      dz2     :     0.011803  d :     0.048849
      dxz     :     0.005643
      dyz     :     0.014744
      dx2y2   :     0.008804
      dxy     :     0.007855
 14 H s       :     0.744743  s :     0.744743
 15 H s       :     0.746018  s :     0.746018
 16 C s       :     3.278686  s :     3.278686
      pz      :     0.699745  p :     2.044611
      px      :     0.753282
      py      :     0.591584
      dz2     :     0.014172  d :     0.107213
      dxz     :     0.025949
      dyz     :     0.012938
      dx2y2   :     0.027700
      dxy     :     0.026454
 17 N s       :     3.227422  s :     3.227422
      pz      :     1.399199  p :     3.742560
      px      :     1.111180
      py      :     1.232182
      dz2     :     0.005594  d :     0.038773
      dxz     :     0.007829
      dyz     :     0.005234
      dx2y2   :     0.009481
      dxy     :     0.010635
 18 O s       :     3.849959  s :     3.849959
      pz      :     1.582557  p :     4.706689
      px      :     1.472135
      py      :     1.651997
      dz2     :     0.004620  d :     0.021648
      dxz     :     0.005160
      dyz     :     0.002915
      dx2y2   :     0.003648
      dxy     :     0.005305
 19 C s       :     3.441852  s :     3.441852
      pz      :     0.992632  p :     3.041013
      px      :     1.167011
      py      :     0.881371
      dz2     :     0.008083  d :     0.046617
      dxz     :     0.008436
      dyz     :     0.013348
      dx2y2   :     0.007541
      dxy     :     0.009209
 20 H s       :     0.768222  s :     0.768222
 21 H s       :     0.756875  s :     0.756875
 22 H s       :     0.743880  s :     0.743880
 23 C s       :     3.416485  s :     3.416485
      pz      :     1.076246  p :     3.068209
      px      :     0.891301
      py      :     1.100662
      dz2     :     0.013356  d :     0.046504
      dxz     :     0.007412
      dyz     :     0.005251
      dx2y2   :     0.008839
      dxy     :     0.011646
 24 H s       :     0.771640  s :     0.771640
 25 H s       :     0.728434  s :     0.728434
 26 H s       :     0.768760  s :     0.768760
 27 N s       :     3.856887  s :     3.856887
      pz      :     1.272419  p :     4.175839
      px      :     1.497584
      py      :     1.405835
      dz2     :     0.008442  d :     0.033678
      dxz     :     0.003602
      dyz     :     0.008829
      dx2y2   :     0.001938
      dxy     :     0.010867
 28 H s       :     0.528706  s :     0.528706
 29 H s       :     0.502917  s :     0.502917
 30 H s       :     0.417765  s :     0.417765


                     *******************************
                     * LOEWDIN POPULATION ANALYSIS *
                     *******************************

----------------------
LOEWDIN ATOMIC CHARGES
----------------------
   0 C :   -0.458584
   1 H :    0.203149
   2 H :    0.220556
   3 H :    0.233263
   4 C :    0.117916
   5 O :   -0.336319
   6 N :   -0.344782
   7 C :   -0.208574
   8 H :    0.239378
   9 H :    0.249652
  10 C :   -0.248358
  11 H :    0.234881
  12 H :    0.231158
  13 C :   -0.255855
  14 H :    0.223821
  15 H :    0.230502
  16 C :    0.123512
  17 N :   -0.282716
  18 O :   -0.482727
  19 C :   -0.335779
  20 H :    0.211488
  21 H :    0.218674
  22 H :    0.237845
  23 C :   -0.353255
  24 H :    0.212764
  25 H :    0.235544
  26 H :    0.220852
  27 N :   -0.444055
  28 H :    0.353928
  29 H :    0.344241
  30 H :    0.407880

-------------------------------
LOEWDIN REDUCED ORBITAL CHARGES
-------------------------------
  0 C s       :     2.988159  s :     2.988159
      pz      :     1.160896  p :     3.408699
      px      :     1.141879
      py      :     1.105924
      dz2     :     0.004805  d :     0.061726
      dxz     :     0.014990
      dyz     :     0.018232
      dx2y2   :     0.010844
      dxy     :     0.012855
  1 H s       :     0.796851  s :     0.796851
  2 H s       :     0.779444  s :     0.779444
  3 H s       :     0.766737  s :     0.766737
  4 C s       :     2.793303  s :     2.793303
      pz      :     0.895528  p :     2.827746
      px      :     1.003317
      py      :     0.928901
      dz2     :     0.046215  d :     0.261036
      dxz     :     0.071200
      dyz     :     0.025801
      dx2y2   :     0.043441
      dxy     :     0.074378
  5 O s       :     3.542816  s :     3.542816
      pz      :     1.628998  p :     4.735647
      px      :     1.479538
      py      :     1.627112
      dz2     :     0.007590  d :     0.057856
      dxz     :     0.015412
      dyz     :     0.002611
      dx2y2   :     0.017719
      dxy     :     0.014523
  6 N s       :     3.106356  s :     3.106356
      pz      :     1.407749  p :     4.144226
      px      :     1.299555
      py      :     1.436922
      dz2     :     0.015745  d :     0.094200
      dxz     :     0.023752
      dyz     :     0.016847
      dx2y2   :     0.017377
      dxy     :     0.020481
  7 C s       :     2.890918  s :     2.890918
      pz      :     1.078912  p :     3.207074
      px      :     1.112937
      py      :     1.015225
      dz2     :     0.013162  d :     0.110581
      dxz     :     0.023353
      dyz     :     0.026557
      dx2y2   :     0.021023
      dxy     :     0.026486
  8 H s       :     0.760622  s :     0.760622
  9 H s       :     0.750348  s :     0.750348
 10 C s       :     2.905214  s :     2.905214
      pz      :     1.149200  p :     3.225834
      px      :     0.976120
      py      :     1.100514
      dz2     :     0.025942  d :     0.117310
      dxz     :     0.019225
      dyz     :     0.015719
      dx2y2   :     0.024431
      dxy     :     0.031993
 11 H s       :     0.765119  s :     0.765119
 12 H s       :     0.768842  s :     0.768842
 13 C s       :     2.945172  s :     2.945172
      pz      :     0.936929  p :     3.206585
      px      :     1.159327
      py      :     1.110330
      dz2     :     0.026794  d :     0.104098
      dxz     :     0.011972
      dyz     :     0.031792
      dx2y2   :     0.016384
      dxy     :     0.017156
 14 H s       :     0.776179  s :     0.776179
 15 H s       :     0.769498  s :     0.769498
 16 C s       :     2.790844  s :     2.790844
      pz      :     0.892475  p :     2.837114
      px      :     0.996191
      py      :     0.948448
      dz2     :     0.031644  d :     0.248530
      dxz     :     0.058203
      dyz     :     0.030436
      dx2y2   :     0.068339
      dxy     :     0.059907
 17 N s       :     3.108449  s :     3.108449
      pz      :     1.450830  p :     4.075703
      px      :     1.255891
      py      :     1.368981
      dz2     :     0.013098  d :     0.098565
      dxz     :     0.018862
      dyz     :     0.012041
      dx2y2   :     0.025675
      dxy     :     0.028888
 18 O s       :     3.545775  s :     3.545775
      pz      :     1.621737  p :     4.888028
      px      :     1.573742
      py      :     1.692549
      dz2     :     0.007455  d :     0.048924
      dxz     :     0.013568
      dyz     :     0.006412
      dx2y2   :     0.008908
      dxy     :     0.012582
 19 C s       :     2.962211  s :     2.962211
[...]
     24       0.000581  -0.000145   0.000096
     25      -0.000311   0.000241  -0.000063
     26       0.000943  -0.000391   0.000016
     27      -0.002611  -0.000351  -0.000051
     28       0.001192   0.000333   0.000072
     29       0.000775   0.000203  -0.000071
     30      -0.000014  -0.000057   0.000100
     31      -0.000007  -0.000062   0.000540
     32       0.000008   0.000226   0.000014
     33       0.000139   0.001214  -0.001765
     34       0.000179   0.000148  -0.001086
     35      -0.000121  -0.000789   0.001146
     36      -0.000002  -0.000793   0.000006
     37      -0.000016   0.001122   0.000286
     38      -0.000026   0.001582   0.000870
     39       0.000017   0.001206  -0.000340
     40       0.000019   0.001210  -0.000724
     41      -0.000013  -0.000664   0.000910
     42      -0.000078  -0.007676  -0.000510
     43      -0.000021  -0.001287   0.000688
     44       0.000010  -0.000268  -0.000406
     45      -0.000041  -0.004573   0.004069
     46      -0.000151  -0.009414   0.009294
     47       0.000178   0.012079  -0.012672
     48      -0.000461   0.000476  -0.000040
     49       0.000534  -0.000218   0.000046
     50       0.000668  -0.000281   0.000018
     51      -0.000069  -0.000190   0.000001
     52      -0.000128  -0.000034  -0.000012
     53      -0.000078   0.000027  -0.000001
     54      -0.000311  -0.000673   0.000059
     55      -0.000657  -0.000068  -0.000001
     56      -0.000395   0.000192  -0.000006
     57      -0.086519   0.000021   0.000000
     58       0.021609   0.000049   0.000012
     59       0.020677   0.000028  -0.000001
     60       0.135427  -0.000275  -0.000052
     61       0.179522  -0.000264  -0.000055
     62      -0.139151   0.000167   0.000034
     63       0.073253  -0.000139   0.000030
     64      -0.053056   0.000002  -0.000023
     65       0.146621  -0.000277   0.000002
     66       0.829791   0.000198  -0.000042
     67      -0.374538   0.000112   0.000027
     68      -0.248678   0.000009  -0.000020
     69      -0.002178   0.000041   0.000002
     70      -0.002347  -0.000021   0.000002
     71      -0.001603  -0.000044  -0.000000
     72       0.001240  -0.000028   0.000008
     73      -0.000204   0.000068   0.000004
     74       0.007946   0.000334   0.000003
     75      -0.000491  -0.000101   0.000045
     76       0.005846   0.000138   0.000008
     77      -0.002304   0.000041  -0.000013
     78       0.028221  -0.000263  -0.000033
     79       0.018469  -0.000098  -0.000031
     80       0.008283  -0.000035  -0.000013
     81      -0.000068   0.041985   0.024143
     82      -0.000036  -0.005545  -0.069848
     83       0.000003  -0.040120   0.033902
     84      -0.000050  -0.109370   0.129323
     85      -0.000005  -0.458761   0.461133
     86       0.000015   0.513817  -0.528236
     87      -0.000133  -0.469839  -0.469095
     88       0.000001   0.535983   0.511558
     89      -0.000019   0.041984   0.053382
     90       0.001226   0.002742   0.005214
     91       0.000369  -0.001659  -0.008590
     92      -0.000258  -0.006153   0.004723


-----------
IR SPECTRUM
-----------

 Mode   freq       eps      Int      T**2         TX        TY        TZ
       cm**-1   L/(mol*cm) km/mol    a.u.
----------------------------------------------------------------------------
  6:     50.05   0.000699    3.53  0.004361  (-0.020123 -0.023457  0.058358)
  7:     61.97   0.000398    2.01  0.002007  ( 0.011669  0.041119 -0.013410)
  8:     70.03   0.001734    8.76  0.007726  ( 0.024423 -0.062422  0.056858)
  9:     98.81   0.001377    6.96  0.004348  ( 0.029912 -0.057710 -0.011072)
 10:    108.77   0.000870    4.40  0.002497  (-0.009743 -0.000637 -0.049002)
 11:    124.40   0.000364    1.84  0.000912  (-0.004116  0.017269  0.024439)
 12:    153.44   0.000479    2.42  0.000974  ( 0.002688  0.025114  0.018332)
 13:    159.95   0.000333    1.68  0.000650  (-0.024095 -0.008284 -0.000847)
 14:    176.35   0.000377    1.91  0.000667  (-0.004732 -0.022944 -0.010889)
 15:    201.81   0.001086    5.49  0.001679  ( 0.021685  0.034758 -0.000646)
 16:    255.41   0.015693   79.31  0.019174  (-0.135903 -0.025930  0.005694)
 17:    277.68   0.000464    2.35  0.000522  (-0.008113  0.021173 -0.002750)
 18:    288.60   0.002672   13.50  0.002889  ( 0.008136  0.051401 -0.013444)
 19:    321.07   0.002909   14.70  0.002828  ( 0.053140  0.000183  0.001944)
 20:    335.42   0.001406    7.11  0.001308  ( 0.019526  0.001806 -0.030395)
 21:    382.48   0.003635   18.37  0.002965  ( 0.052971  0.003041  0.012258)
 22:    430.05   0.000236    1.19  0.000171  ( 0.010109  0.006666  0.004934)
 23:    440.04   0.009586   48.44  0.006798  (-0.061318 -0.054961  0.004189)
 24:    450.68   0.005819   29.41  0.004030  (-0.061865 -0.012609  0.006577)
 25:    501.14   0.003096   15.65  0.001928  (-0.029019 -0.016457  0.028548)
 26:    523.44   0.001448    7.32  0.000863  ( 0.025429  0.013586 -0.005674)
 27:    581.23   0.006188   31.27  0.003323  (-0.054174  0.001894 -0.019600)
 28:    600.82   0.001243    6.28  0.000646  (-0.008704  0.011750  0.020781)
 29:    613.90   0.001768    8.94  0.000899  (-0.008383 -0.022871  0.017479)
 30:    672.08   0.013607   68.77  0.006318  ( 0.070491  0.036494 -0.004164)
 31:    755.47   0.000221    1.12  0.000091  (-0.000653  0.009472 -0.001019)
 32:    831.85   0.004675   23.62  0.001754  ( 0.036097 -0.021156 -0.001761)
 33:    851.47   0.002549   12.88  0.000934  ( 0.023786  0.019123 -0.001661)
 34:    894.89   0.003188   16.11  0.001112  ( 0.032487  0.001595 -0.007333)
 35:    953.57   0.001525    7.71  0.000499  ( 0.009273 -0.011770 -0.016570)
 36:    974.54   0.003885   19.63  0.001244  (-0.032131 -0.010294 -0.010272)
 37:    995.39   0.000136    0.69  0.000043  ( 0.006344 -0.000386 -0.001496)
 38:   1004.15   0.003720   18.80  0.001156  ( 0.020569 -0.015810  0.021975)
 39:   1047.21   0.002633   13.31  0.000785  ( 0.001713 -0.003111  0.027785)
 40:   1061.58   0.000546    2.76  0.000160  (-0.003118  0.010168  0.006878)
 41:   1081.54   0.003892   19.67  0.001123  ( 0.014955 -0.026180  0.014627)
 42:   1085.38   0.004134   20.89  0.001188  (-0.027907  0.011905  0.016370)
 43:   1126.08   0.000609    3.08  0.000169  (-0.007985 -0.010172  0.001196)
 44:   1144.41   0.009253   46.76  0.002523  ( 0.046909  0.011060  0.014153)
 45:   1174.24   0.001819    9.19  0.000483  ( 0.014153  0.013806 -0.009619)
 46:   1184.83   0.009855   49.80  0.002596  (-0.000613  0.045481 -0.022951)
 47:   1205.29   0.004029   20.36  0.001043  (-0.027704 -0.006701 -0.015188)
 48:   1230.75   0.006828   34.51  0.001731  ( 0.037369 -0.009829  0.015438)
 49:   1274.98   0.010214   51.62  0.002500  (-0.036518 -0.033788 -0.004971)
 50:   1301.57   0.012565   63.50  0.003013  ( 0.003183 -0.039766  0.037697)
 51:   1321.06   0.012902   65.20  0.003048  (-0.050252 -0.007363  0.021638)
 52:   1344.80   0.002171   10.97  0.000504  (-0.016497  0.013838  0.006339)
 53:   1379.13   0.006146   31.06  0.001391  (-0.008864  0.026267 -0.024944)
 54:   1407.35   0.009265   46.82  0.002054  (-0.037870 -0.016077  0.019018)
 55:   1418.85   0.004603   23.26  0.001012  ( 0.030616  0.008605  0.000968)
 56:   1424.17   0.011028   55.73  0.002417  ( 0.017728  0.036700 -0.027483)
 57:   1451.97   0.020158  101.87  0.004333  ( 0.027248 -0.033087  0.049953)
 58:   1457.89   0.009668   48.86  0.002069  ( 0.044877 -0.006525 -0.003589)
 59:   1473.65   0.005338   26.98  0.001130  ( 0.022647  0.024814 -0.001364)
 60:   1486.49   0.021740  109.86  0.004564  (-0.054506  0.018680  0.035271)
 61:   1488.11   0.009205   46.52  0.001930  (-0.043610 -0.005269  0.000930)
 62:   1496.41   0.008393   42.42  0.001750  (-0.029401  0.018071 -0.023651)
 63:   1507.20   0.002616   13.22  0.000542  (-0.011346  0.013666  0.015039)
 64:   1516.53   0.009497   47.99  0.001954  ( 0.028358  0.023275 -0.024665)
 65:   1521.13   0.004090   20.67  0.000839  ( 0.028710  0.003583 -0.001397)
 66:   1522.64   0.002056   10.39  0.000421  ( 0.019335 -0.003662  0.005846)
 67:   1526.76   0.001382    6.99  0.000283  (-0.004197  0.008735 -0.013735)
 68:   1530.38   0.002520   12.74  0.000514  ( 0.021131 -0.007570 -0.003182)
 69:   1544.75   0.016711   84.45  0.003376  (-0.054786  0.014348  0.012980)
 70:   1598.73   0.132037  667.26  0.025773  ( 0.153874  0.026502 -0.037329)
 71:   1655.49   0.032188  162.66  0.006068  ( 0.061193  0.038581  0.028887)
 72:   1694.84   0.047113  238.09  0.008675  (-0.092489  0.010423  0.003448)
 73:   1717.95   0.010707   54.11  0.001945  ( 0.020299  0.035632 -0.016225)
 74:   1747.03   0.056211  284.07  0.010041  (-0.091243 -0.019294 -0.036648)
 75:   2098.75   0.383763  1939.38  0.057062  ( 0.223550  0.083006  0.014037)
 76:   3050.51   0.002409   12.17  0.000246  ( 0.003902  0.008930  0.012305)
 77:   3051.92   0.003630   18.34  0.000371  ( 0.017972  0.001824  0.006698)
 78:   3064.16   0.003670   18.55  0.000374  (-0.004680 -0.012804 -0.013709)
 79:   3069.41   0.003198   16.16  0.000325  (-0.016574 -0.001728  0.006889)
 80:   3084.53   0.001366    6.90  0.000138  (-0.001558  0.005522 -0.010260)
 81:   3100.38   0.001405    7.10  0.000141  (-0.004270  0.003802 -0.010429)
 82:   3110.44   0.001528    7.72  0.000153  (-0.008024  0.006866  0.006466)
 83:   3131.64   0.002122   10.72  0.000211  (-0.002013 -0.010428  0.009930)
 84:   3141.74   0.000749    3.78  0.000074  (-0.003202 -0.000033 -0.008008)
 85:   3143.29   0.000068    0.34  0.000007  (-0.001258  0.000061 -0.002265)
 86:   3159.52   0.001864    9.42  0.000184  ( 0.010534  0.007555 -0.004008)
 87:   3164.63   0.000705    3.56  0.000069  ( 0.006937 -0.001795 -0.004258)
 88:   3173.52   0.000703    3.55  0.000069  ( 0.004998  0.005557  0.003638)
 89:   3177.16   0.000120    0.61  0.000012  ( 0.003059 -0.001376  0.000759)
 90:   3204.91   0.000192    0.97  0.000019  (-0.000663  0.003834  0.001883)
 91:   3453.76   0.009454   47.78  0.000854  (-0.024551  0.005514  0.014867)
 92:   3523.30   0.011172   56.46  0.000990  (-0.012129  0.027136 -0.010299)

* The epsilon (eps) is given for a Dirac delta lineshape.
** The dipole moment derivative (T) already includes vibrational overlap.

The first frequency considered to be a vibration is 6
The total number of vibrations considered is 87


--------------------------
THERMOCHEMISTRY AT 298.15K
--------------------------

Temperature         ... 298.15 K
Pressure            ... 1.00 atm
Total Mass          ... 188.25 AMU

Throughout the following assumptions are being made:
  (1) The electronic state is orbitally nondegenerate
  (2) There are no thermally accessible electronically excited states
  (3) Hindered rotations indicated by low frequency modes are not
      treated as such but are treated as vibrations and this may
      cause some error
  (4) All equations used are the standard statistical mechanics
      equations for an ideal gas
  (5) All vibrations are strictly harmonic

freq.      50.05  E(vib)   ...       0.52 
freq.      61.97  E(vib)   ...       0.51 
freq.      70.03  E(vib)   ...       0.50 
freq.      98.81  E(vib)   ...       0.46 
freq.     108.77  E(vib)   ...       0.45 
freq.     124.40  E(vib)   ...       0.43 
freq.     153.44  E(vib)   ...       0.40 
freq.     159.95  E(vib)   ...       0.39 
freq.     176.35  E(vib)   ...       0.38 
freq.     201.81  E(vib)   ...       0.35 
freq.     255.41  E(vib)   ...       0.30 
freq.     277.68  E(vib)   ...       0.28 
freq.     288.60  E(vib)   ...       0.27 
freq.     321.07  E(vib)   ...       0.25 
freq.     335.42  E(vib)   ...       0.24 
freq.     382.48  E(vib)   ...       0.21 
freq.     430.05  E(vib)   ...       0.18 
freq.     440.04  E(vib)   ...       0.17 
freq.     450.68  E(vib)   ...       0.17 
freq.     501.14  E(vib)   ...       0.14 
freq.     523.44  E(vib)   ...       0.13 
freq.     581.23  E(vib)   ...       0.11 
freq.     600.82  E(vib)   ...       0.10 
freq.     613.90  E(vib)   ...       0.10 
freq.     672.08  E(vib)   ...       0.08 
freq.     755.47  E(vib)   ...       0.06 
freq.     831.85  E(vib)   ...       0.04 
freq.     851.47  E(vib)   ...       0.04 
freq.     894.89  E(vib)   ...       0.03 
freq.     953.57  E(vib)   ...       0.03 
freq.     974.54  E(vib)   ...       0.03 
freq.     995.39  E(vib)   ...       0.02 
freq.    1004.15  E(vib)   ...       0.02 
freq.    1047.21  E(vib)   ...       0.02 
freq.    1061.58  E(vib)   ...       0.02 
freq.    1081.54  E(vib)   ...       0.02 
freq.    1085.38  E(vib)   ...       0.02 
freq.    1126.08  E(vib)   ...       0.01 
freq.    1144.41  E(vib)   ...       0.01 
freq.    1174.24  E(vib)   ...       0.01 
freq.    1184.83  E(vib)   ...       0.01 
freq.    1205.29  E(vib)   ...       0.01 
freq.    1230.75  E(vib)   ...       0.01 
freq.    1274.98  E(vib)   ...       0.01 
freq.    1301.57  E(vib)   ...       0.01 
freq.    1321.06  E(vib)   ...       0.01 
freq.    1344.80  E(vib)   ...       0.01 
freq.    1379.13  E(vib)   ...       0.01 
freq.    1407.35  E(vib)   ...       0.00 
freq.    1418.85  E(vib)   ...       0.00 
freq.    1424.17  E(vib)   ...       0.00 
freq.    1451.97  E(vib)   ...       0.00 
freq.    1457.89  E(vib)   ...       0.00 
freq.    1473.65  E(vib)   ...       0.00 
freq.    1486.49  E(vib)   ...       0.00 
freq.    1488.11  E(vib)   ...       0.00 
freq.    1496.41  E(vib)   ...       0.00 
freq.    1507.20  E(vib)   ...       0.00 
freq.    1516.53  E(vib)   ...       0.00 
freq.    1521.13  E(vib)   ...       0.00 
freq.    1522.64  E(vib)   ...       0.00 
freq.    1526.76  E(vib)   ...       0.00 
freq.    1530.38  E(vib)   ...       0.00 
freq.    1544.75  E(vib)   ...       0.00 
freq.    1598.73  E(vib)   ...       0.00 
freq.    1655.49  E(vib)   ...       0.00 
freq.    1694.84  E(vib)   ...       0.00 
freq.    1717.95  E(vib)   ...       0.00 
freq.    1747.03  E(vib)   ...       0.00 
freq.    2098.75  E(vib)   ...       0.00 
freq.    3050.51  E(vib)   ...       0.00 
freq.    3051.92  E(vib)   ...       0.00 
freq.    3064.16  E(vib)   ...       0.00 
freq.    3069.41  E(vib)   ...       0.00 
freq.    3084.53  E(vib)   ...       0.00 
freq.    3100.38  E(vib)   ...       0.00 
freq.    3110.44  E(vib)   ...       0.00 
freq.    3131.64  E(vib)   ...       0.00 
freq.    3141.74  E(vib)   ...       0.00 
freq.    3143.29  E(vib)   ...       0.00 
freq.    3159.52  E(vib)   ...       0.00 
freq.    3164.63  E(vib)   ...       0.00 
freq.    3173.52  E(vib)   ...       0.00 
freq.    3177.16  E(vib)   ...       0.00 
freq.    3204.91  E(vib)   ...       0.00 
freq.    3453.76  E(vib)   ...       0.00 
freq.    3523.30  E(vib)   ...       0.00 

------------
INNER ENERGY
------------

The inner energy is: U= E(el) + E(ZPE) + E(vib) + E(rot) + E(trans)
    E(el)   - is the total energy from the electronic structure calculation
              = E(kin-el) + E(nuc-el) + E(el-el) + E(nuc-nuc)
    E(ZPE)  - the the zero temperature vibrational energy from the frequency calculation
    E(vib)  - the the finite temperature correction to E(ZPE) due to population
              of excited vibrational states
    E(rot)  - is the rotational thermal energy
    E(trans)- is the translational thermal energy

Summary of contributions to the inner energy U:
Electronic energy                ...   -629.88388556 Eh
Zero point energy                ...      0.27610401 Eh     173.26 kcal/mol
Thermal vibrational correction   ...      0.01213090 Eh       7.61 kcal/mol
Thermal rotational correction    ...      0.00141627 Eh       0.89 kcal/mol
Thermal translational correction ...      0.00141627 Eh       0.89 kcal/mol
-----------------------------------------------------------------------
Total thermal energy                   -629.59281810 Eh


Summary of corrections to the electronic energy:
(perhaps to be used in another calculation)
Total thermal correction                  0.01496344 Eh       9.39 kcal/mol
Non-thermal (ZPE) correction              0.27610401 Eh     173.26 kcal/mol
-----------------------------------------------------------------------
Total correction                          0.29106746 Eh     182.65 kcal/mol


--------
ENTHALPY
--------

The enthalpy is H = U + kB*T
                kB is Boltzmann's constant
Total free energy                 ...   -629.59281810 Eh 
Thermal Enthalpy correction       ...      0.00094421 Eh       0.59 kcal/mol
-----------------------------------------------------------------------
Total Enthalpy                    ...   -629.59187389 Eh


Note: Only C1 symmetry has been detected, increase convergence thresholds 
      if your molecule has a higher symmetry. Symmetry factor of 1.0 is   
      used for the rotational entropy correction. 
 

Note: Rotational entropy computed according to Herzberg 
Infrared and Raman Spectra, Chapter V,1, Van Nostrand Reinhold, 1945 
Point Group:  C1, Symmetry Number:   1  
Rotational constants in cm-1:     0.036729     0.019472     0.015545 

Vibrational entropy computed according to the QRRHO of S. Grimme
Chem.Eur.J. 2012 18 9955


-------
ENTROPY
-------

The entropy contributions are T*S = T*(S(el)+S(vib)+S(rot)+S(trans))
     S(el)   - electronic entropy
     S(vib)  - vibrational entropy
     S(rot)  - rotational entropy
     S(trans)- translational entropy
The entropies will be listed as multiplied by the temperature to get
units of energy

Electronic entropy                ...      0.00000000 Eh      0.00 kcal/mol
Vibrational entropy               ...      0.02140827 Eh     13.43 kcal/mol
Rotational entropy                ...      0.01489594 Eh      9.35 kcal/mol
Translational entropy             ...      0.01976718 Eh     12.40 kcal/mol
-----------------------------------------------------------------------
Final entropy term                ...      0.05607139 Eh     35.19 kcal/mol

In case the symmetry of your molecule has not been determined correctly
or in case you have a reason to use a different symmetry number we print 
out the resulting rotational entropy values for sn=1,12 :
 --------------------------------------------------------
|  sn= 1 | S(rot)=       0.01489594 Eh      9.35 kcal/mol|
|  sn= 2 | S(rot)=       0.01424148 Eh      8.94 kcal/mol|
|  sn= 3 | S(rot)=       0.01385865 Eh      8.70 kcal/mol|
|  sn= 4 | S(rot)=       0.01358702 Eh      8.53 kcal/mol|
|  sn= 5 | S(rot)=       0.01337634 Eh      8.39 kcal/mol|
|  sn= 6 | S(rot)=       0.01320419 Eh      8.29 kcal/mol|
|  sn= 7 | S(rot)=       0.01305864 Eh      8.19 kcal/mol|
|  sn= 8 | S(rot)=       0.01293257 Eh      8.12 kcal/mol|
|  sn= 9 | S(rot)=       0.01282136 Eh      8.05 kcal/mol|
|  sn=10 | S(rot)=       0.01272188 Eh      7.98 kcal/mol|
|  sn=11 | S(rot)=       0.01263189 Eh      7.93 kcal/mol|
|  sn=12 | S(rot)=       0.01254973 Eh      7.88 kcal/mol|
 --------------------------------------------------------


-------------------
GIBBS FREE ENERGY
-------------------

The Gibbs free energy is G = H - T*S

Total enthalpy                    ...   -629.59187389 Eh 
Total entropy correction          ...     -0.05607139 Eh    -35.19 kcal/mol
-----------------------------------------------------------------------
Final Gibbs free energy         ...   -629.64794528 Eh

For completeness - the Gibbs free energy minus the electronic energy
G-E(el)                           ...      0.23594028 Eh    148.05 kcal/mol


Timings for individual modules:

Sum of individual times         ...     2304.105 sec (=  38.402 min)
GTO integral calculation        ...       19.734 sec (=   0.329 min)   0.9 %
SCF iterations                  ...     1127.424 sec (=  18.790 min)  48.9 %
SCF Gradient evaluation         ...      287.576 sec (=   4.793 min)  12.5 %
Geometry relaxation             ...        1.157 sec (=   0.019 min)   0.1 %
Analytical frequency calculation...      868.214 sec (=  14.470 min)  37.7 %
                             ****ORCA TERMINATED NORMALLY****
TOTAL RUN TIME: 0 days 0 hours 38 minutes 29 seconds 724 msec
