
                                 *****************
                                 * O   R   C   A *
                                 *****************

                                            #,                                       
                                            ###                                      
                                            ####                                     
                                            #####                                    
                                            ######                                   
                                           ########,                                 
                                     ,,################,,,,,                         
                               ,,#################################,,                 
                          ,,##########################################,,             
                       ,#########################################, ''#####,          
                    ,#############################################,,   '####,        
                  ,##################################################,,,,####,       
                ,###########''''           ''''###############################       
              ,#####''   ,,,,##########,,,,          '''####'''          '####       
            ,##' ,,,,###########################,,,                        '##       
           ' ,,###''''                  '''############,,,                           
         ,,##''                                '''############,,,,        ,,,,,,###''
      ,#''                                            '''#######################'''  
     '                                                          ''''####''''         
             ,#######,   #######,   ,#######,      ##                                
            ,#'     '#,  ##    ##  ,#'     '#,    #''#        ######   ,####,        
            ##       ##  ##   ,#'  ##            #'  '#       #        #'  '#        
            ##       ##  #######   ##           ,######,      #####,   #    #        
            '#,     ,#'  ##    ##  '#,     ,#' ,#      #,         ##   #,  ,#        
             '#######'   ##     ##  '#######'  #'      '#     #####' # '####'        



                  #######################################################
                  #                        -***-                        #
                  #          Department of theory and spectroscopy      #
                  #    Directorship and core code : Frank Neese         #
                  #        Max Planck Institute fuer Kohlenforschung    #
                  #                Kaiser Wilhelm Platz 1               #
                  #                 D-45470 Muelheim/Ruhr               #
                  #                      Germany                        #
                  #                                                     #
                  #                  All rights reserved                #
                  #                        -***-                        #
                  #######################################################


                         Program Version 5.0.4 -  RELEASE  -


 With contributions from (in alphabetic order):
   Daniel Aravena         : Magnetic Suceptibility
   Michael Atanasov       : Ab Initio Ligand Field Theory (pilot matlab implementation)
   Alexander A. Auer      : GIAO ZORA, VPT2 properties, NMR spectrum
   Ute Becker             : Parallelization
   Giovanni Bistoni       : ED, misc. LED, open-shell LED, HFLD
   Martin Brehm           : Molecular dynamics
   Dmytro Bykov           : SCF Hessian
   Vijay G. Chilkuri      : MRCI spin determinant printing, contributions to CSF-ICE
   Dipayan Datta          : RHF DLPNO-CCSD density
   Achintya Kumar Dutta   : EOM-CC, STEOM-CC
   Dmitry Ganyushin       : Spin-Orbit,Spin-Spin,Magnetic field MRCI
   Miquel Garcia          : C-PCM and meta-GGA Hessian, CC/C-PCM, Gaussian charge scheme
   Yang Guo               : DLPNO-NEVPT2, F12-NEVPT2, CIM, IAO-localization
   Andreas Hansen         : Spin unrestricted coupled pair/coupled cluster methods
   Benjamin Helmich-Paris : MC-RPA, TRAH-SCF, COSX integrals
   Lee Huntington         : MR-EOM, pCC
   Robert Izsak           : Overlap fitted RIJCOSX, COSX-SCS-MP3, EOM
   Marcus Kettner         : VPT2
   Christian Kollmar      : KDIIS, OOCD, Brueckner-CCSD(T), CCSD density, CASPT2, CASPT2-K
   Simone Kossmann        : Meta GGA functionals, TD-DFT gradient, OOMP2, MP2 Hessian
   Martin Krupicka        : Initial AUTO-CI
   Lucas Lang             : DCDCAS
   Marvin Lechner         : AUTO-CI (C++ implementation), FIC-MRCC
   Dagmar Lenk            : GEPOL surface, SMD
   Dimitrios Liakos       : Extrapolation schemes; Compound Job, initial MDCI parallelization
   Dimitrios Manganas     : Further ROCIS development; embedding schemes
   Dimitrios Pantazis     : SARC Basis sets
   Anastasios Papadopoulos: AUTO-CI, single reference methods and gradients
   Taras Petrenko         : DFT Hessian,TD-DFT gradient, ASA, ECA, R-Raman, ABS, FL, XAS/XES, NRVS
   Peter Pinski           : DLPNO-MP2, DLPNO-MP2 Gradient
   Christoph Reimann      : Effective Core Potentials
   Marius Retegan         : Local ZFS, SOC
   Christoph Riplinger    : Optimizer, TS searches, QM/MM, DLPNO-CCSD(T), (RO)-DLPNO pert. Triples
   Tobias Risthaus        : Range-separated hybrids, TD-DFT gradient, RPA, STAB
   Michael Roemelt        : Original ROCIS implementation
   Masaaki Saitow         : Open-shell DLPNO-CCSD energy and density
   Barbara Sandhoefer     : DKH picture change effects
   Avijit Sen             : IP-ROCIS
   Kantharuban Sivalingam : CASSCF convergence, NEVPT2, FIC-MRCI
   Bernardo de Souza      : ESD, SOC TD-DFT
   Georgi Stoychev        : AutoAux, RI-MP2 NMR, DLPNO-MP2 response
   Willem Van den Heuvel  : Paramagnetic NMR
   Boris Wezisla          : Elementary symmetry handling
   Frank Wennmohs         : Technical directorship


 We gratefully acknowledge several colleagues who have allowed us to
 interface, adapt or use parts of their codes:
   Stefan Grimme, W. Hujo, H. Kruse, P. Pracht,  : VdW corrections, initial TS optimization,
                  C. Bannwarth, S. Ehlert          DFT functionals, gCP, sTDA/sTD-DF
   Ed Valeev, F. Pavosevic, A. Kumar             : LibInt (2-el integral package), F12 methods
   Garnet Chan, S. Sharma, J. Yang, R. Olivares  : DMRG
   Ulf Ekstrom                                   : XCFun DFT Library
   Mihaly Kallay                                 : mrcc  (arbitrary order and MRCC methods)
   Jiri Pittner, Ondrej Demel                    : Mk-CCSD
   Frank Weinhold                                : gennbo (NPA and NBO analysis)
   Christopher J. Cramer and Donald G. Truhlar   : smd solvation model
   Lars Goerigk                                  : TD-DFT with DH, B97 family of functionals
   V. Asgeirsson, H. Jonsson                     : NEB implementation
   FAccTs GmbH                                   : IRC, NEB, NEB-TS, DLPNO-Multilevel, CI-OPT
                                                   MM, QMMM, 2- and 3-layer-ONIOM, Crystal-QMMM,
                                                   LR-CPCM, SF, NACMEs, symmetry and pop. for TD-DFT,
                                                   nearIR, NL-DFT gradient (VV10), updates on ESD,
                                                   ML-optimized integration grids
   S Lehtola, MJT Oliveira, MAL Marques          : LibXC Library
   Liviu Ungur et al                             : ANISO software


 Your calculation uses the libint2 library for the computation of 2-el integrals
 For citations please refer to: http://libint.valeyev.net

 Your ORCA version has been built with support for libXC version: 5.1.0
 For citations please refer to: https://tddft.org/programs/libxc/

 This ORCA versions uses:
   CBLAS   interface :  Fast vector & matrix operations
   LAPACKE interface :  Fast linear algebra routines
   SCALAPACK package :  Parallel linear algebra routines
   Shared memory     :  Shared parallel matrices
   BLAS/LAPACK       :  OpenBLAS 0.3.15  USE64BITINT DYNAMIC_ARCH NO_AFFINITY SkylakeX SINGLE_THREADED
        Core in use  :  SkylakeX
   Copyright (c) 2011-2014, The OpenBLAS Project




***************************************
The coordinates will be read from file: /users/fjb15167/WWenergy/structures/Nfnap.xyz
***************************************


Your calculation utilizes the atom-pairwise dispersion correction
based on tight binding partial charges (D4)
Cite in your paper:
E.Caldeweyher, C.Bannwarth, S.Grimme, J.Chem.Phys., (2017), 147, 034112.
E.Caldeweyher, S.Ehlert, A.Hansen, H.Neugebauer, S.Grimme, J.Chem.Phys., (2018), in progress.
   

================================================================================

----- Orbital basis set information -----
Your calculation utilizes the basis: 6-31G(d)
   H-He, Li-Ne : W. J. Hehre, R. Ditchfield and J.A. Pople, J. Chem. Phys. 56, 2257 (1972).
                 Note: He and Ne are unpublished basis sets taken from the Gaussian program.
                 Note: Li and B from J. D. Dill and J. A. Pople, J. Chem. Phys. 62, 2921 (1975).
   Na - Ar     : M. M. Francl, W. J. Pietro, W. J. Hehre, J. S. Binkley, M. S. Gordon, 
                 D. J. DeFrees and J. A. Pople, J. Chem. Phys. 77, 3654 (1982).
   K - Zn      : V. A. Rassolov, J. A. Pople, M. A. Ratner, and T. L. Windus, J. Chem. Phys. 109, 1223 (1998).

----- AuxJ basis set information -----
Your calculation utilizes the AutoAux generation procedure.
  G. L. Stoychev, A. A. Auer, F. Neese, J. Chem. Theory Comput. 13, 554 (2017)

----- AuxC basis set information -----
Your calculation utilizes the AutoAux generation procedure.
  G. L. Stoychev, A. A. Auer, F. Neese, J. Chem. Theory Comput. 13, 554 (2017)

----- AuxJK basis set information -----
Your calculation utilizes the AutoAux generation procedure.
  G. L. Stoychev, A. A. Auer, F. Neese, J. Chem. Theory Comput. 13, 554 (2017)

================================================================================
                                        WARNINGS
                       Please study these warnings very carefully!
================================================================================


WARNING: Geometry Optimization
  ===> : Switching off AutoStart
         For restart on a previous wavefunction, please use MOREAD

INFO   : the flag for use of the SHARK integral package has been found!

================================================================================
                                       INPUT FILE
================================================================================
NAME = Nfnap_octanol.inp
|  1> ! OPT FREQ B3LYP 6-31G(d) D4 AUTOAUX
|  2> ! CPCM
|  3> 
|  4> %cpcm
|  5> epsilon 9.8629 
|  6> refrac  1.4295 
|  7> end
|  8> 
|  9> %PAL NPROCS 4 END
| 10> 
| 11> %maxcore 3375
| 12> 
| 13> *xyzfile 0 1 /users/fjb15167/WWenergy/structures/Nfnap.xyz
| 14> 
| 15>                          ****END OF INPUT****
================================================================================

                       *****************************
                       * Geometry Optimization Run *
                       *****************************

Geometry optimization settings:
Update method            Update   .... BFGS
Choice of coordinates    CoordSys .... Z-matrix Internals
Initial Hessian          InHess   .... Almoef's Model

Convergence Tolerances:
Energy Change            TolE     ....  5.0000e-06 Eh
Max. Gradient            TolMAXG  ....  3.0000e-04 Eh/bohr
RMS Gradient             TolRMSG  ....  1.0000e-04 Eh/bohr
Max. Displacement        TolMAXD  ....  4.0000e-03 bohr
RMS Displacement         TolRMSD  ....  2.0000e-03 bohr
Strict Convergence                ....  False
------------------------------------------------------------------------------
                        ORCA OPTIMIZATION COORDINATE SETUP
------------------------------------------------------------------------------

The optimization will be done in new redundant internal coordinates
Making redundant internal coordinates   ...  (new redundants) done
Evaluating the initial hessian          ...  (Almloef) done
Evaluating the coordinates              ...  done
Calculating the B-matrix                .... done
Calculating the G-matrix                .... done
Diagonalizing the G-matrix              .... done
Small eigenvalue found = 2.592e-03
Small eigenvalue found = 8.142e-03
Small eigenvalue found = 1.080e-02
Small eigenvalue found = 1.326e-02
Small eigenvalue found = 2.064e-02
Small eigenvalue found = 2.828e-02
The first mode is                       ....   92
The number of degrees of freedom        ....  117

    -----------------------------------------------------------------
                    Redundant Internal Coordinates


    -----------------------------------------------------------------
         Definition                    Initial Value    Approx d2E/dq
    -----------------------------------------------------------------
      1. B(H   1,C   0)                  1.0940         0.354789   
      2. B(H   2,C   0)                  1.0947         0.353953   
      3. B(H   3,C   0)                  1.0895         0.360814   
      4. B(C   4,C   0)                  1.5169         0.391988   
      5. B(O   5,C   4)                  1.2386         0.975798   
      6. B(N   6,C   4)                  1.3763         0.588583   
      7. B(C   7,N   6)                  1.4598         0.433043   
      8. B(H   8,C   7)                  1.0973         0.350556   
      9. B(H   9,C   7)                  1.0917         0.357815   
     10. B(C  10,C   7)                  1.5306         0.372756   
     11. B(N  11,C  10)                  1.3605         0.623703   
     12. B(O  12,C  10)                  1.2400         0.970770   
     13. B(C  13,N  11)                  1.4535         0.443144   
     14. B(H  14,C  13)                  1.0949         0.353707   
     15. B(H  15,C  13)                  1.0963         0.351861   
     16. B(H  16,C  13)                  1.0869         0.364243   
     17. B(C  17,N  11)                  1.4566         0.438151   
     18. B(H  18,C  17)                  1.0949         0.353707   
     19. B(H  19,C  17)                  1.0876         0.363303   
     20. B(H  20,C  17)                  1.0958         0.352497   
     21. B(C  21,N   6)                  1.4730         0.412576   
     22. B(H  22,C  21)                  1.0927         0.356503   
     23. B(H  23,C  21)                  1.0922         0.357193   
     24. B(C  24,C  21)                  1.5153         0.394361   
     25. B(C  25,C  24)                  1.4307         0.537930   
     26. B(C  26,C  24)                  1.3886         0.628118   
     27. B(C  27,C  25)                  1.4225         0.554431   
     28. B(C  28,C  25)                  1.4403         0.519478   
     29. B(C  29,C  26)                  1.4094         0.581914   
     30. B(H  30,C  26)                  1.0875         0.363420   
     31. B(C  31,C  27)                  1.3814         0.644848   
     32. B(H  32,C  27)                  1.0837         0.368540   
     33. B(C  33,C  28)                  1.4198         0.560050   
     34. B(C  34,C  29)                  1.3790         0.650499   
     35. B(C  34,C  28)                  1.4175         0.564676   
     36. B(H  35,C  29)                  1.0878         0.363058   
     37. B(C  36,H  18)                  3.1178         0.000209   
     38. B(C  36,C  33)                  1.3779         0.653272   
     39. B(C  36,C  31)                  1.4112         0.578069   
     40. B(H  37,C  31)                  1.0879         0.362867   
     41. B(H  38,C  33)                  1.0893         0.360971   
     42. B(H  39,C  34)                  1.0891         0.361274   
     43. B(H  40,C  36)                  1.0888         0.361662   
     44. A(H   2,C   0,H   3)          108.8125         0.290144   
     45. A(H   2,C   0,C   4)          111.7353         0.325970   
     46. A(H   1,C   0,H   2)          108.0521         0.289379   
     47. A(H   1,C   0,H   3)          109.3015         0.290252   
     48. A(H   3,C   0,C   4)          106.9324         0.327002   
     49. A(H   1,C   0,C   4)          111.9482         0.326097   
     50. A(C   0,C   4,O   5)          120.8133         0.430843   
     51. A(C   0,C   4,N   6)          117.5049         0.393884   
     52. A(O   5,C   4,N   6)          121.6708         0.460702   
     53. A(C   4,N   6,C  21)          117.8073         0.394899   
     54. A(C   7,N   6,C  21)          117.0997         0.374372   
     55. A(C   4,N   6,C   7)          122.6305         0.398269   
     56. A(H   8,C   7,C  10)          104.4905         0.322776   
     57. A(N   6,C   7,C  10)          112.9417         0.370205   
     58. A(H   8,C   7,H   9)          108.3384         0.289327   
     59. A(N   6,C   7,H   9)          109.7380         0.329970   
     60. A(N   6,C   7,H   8)          111.3040         0.328855   
     61. A(H   9,C   7,C  10)          109.8356         0.323863   
     62. A(N  11,C  10,O  12)          123.2225         0.465170   
     63. A(C   7,C  10,O  12)          118.4957         0.426578   
     64. A(C   7,C  10,N  11)          118.2626         0.394412   
     65. A(C  13,N  11,C  17)          115.1150         0.379797   
     66. A(C  10,N  11,C  17)          118.9948         0.403186   
     67. A(C  10,N  11,C  13)          125.6816         0.403993   
     68. A(H  15,C  13,H  16)          109.7208         0.290305   
     69. A(H  14,C  13,H  16)          107.8073         0.290544   
     70. A(N  11,C  13,H  16)          110.8825         0.332209   
     71. A(H  14,C  13,H  15)          109.1383         0.288972   
     72. A(N  11,C  13,H  15)          109.8743         0.330313   
     73. A(N  11,C  13,H  14)          109.3737         0.330599   
     74. A(H  18,C  17,H  19)          109.5770         0.290426   
     75. A(N  11,C  17,H  19)          108.4141         0.331444   
     76. A(N  11,C  17,H  18)          110.1821         0.329980   
     77. A(H  19,C  17,H  20)          110.0954         0.290270   
     78. A(H  18,C  17,H  20)          109.3342         0.289054   
     79. A(N  11,C  17,H  20)          109.2250         0.329793   
     80. A(H  23,C  21,C  24)          112.4859         0.326784   
     81. A(H  22,C  21,C  24)          109.5825         0.326680   
     82. A(N   6,C  21,C  24)          111.9399         0.370710   
     83. A(H  22,C  21,H  23)          108.2465         0.290012   
     84. A(N   6,C  21,H  23)          107.5706         0.327250   
     85. A(N   6,C  21,H  22)          106.7860         0.327146   
     86. A(C  25,C  24,C  26)          119.6260         0.424138   
     87. A(C  21,C  24,C  26)          116.9766         0.401396   
     88. A(C  21,C  24,C  25)          123.3735         0.390627   
     89. A(C  27,C  25,C  28)          117.7776         0.412241   
     90. A(C  24,C  25,C  28)          118.4286         0.410038   
     91. A(C  24,C  25,C  27)          123.6650         0.414805   
     92. A(C  29,C  26,H  30)          119.9648         0.349690   
     93. A(C  24,C  26,H  30)          118.4843         0.354237   
     94. A(C  24,C  26,C  29)          121.5289         0.430153   
     95. A(C  31,C  27,H  32)          118.2308         0.356666   
     96. A(C  25,C  27,H  32)          120.6074         0.347669   
     97. A(C  25,C  27,C  31)          121.0491         0.428451   
     98. A(C  33,C  28,C  34)          120.6360         0.419156   
     99. A(C  25,C  28,C  34)          119.8512         0.413583   
    100. A(C  25,C  28,C  33)          119.4525         0.412980   
    101. A(C  34,C  29,H  35)          120.2606         0.356287   
    102. A(C  26,C  29,H  35)          119.6124         0.349631   
    103. A(C  26,C  29,C  34)          120.1133         0.432867   
    104. A(C  27,C  31,C  36)          120.8419         0.431674   
    105. A(C  36,C  31,H  37)          119.8207         0.349210   
    106. A(C  27,C  31,H  37)          119.3220         0.355728   
    107. A(C  28,C  33,C  36)          120.9592         0.430228   
    108. A(C  36,C  33,H  38)          120.4609         0.356196   
    109. A(C  28,C  33,H  38)          118.5144         0.347045   
    110. A(C  28,C  34,C  29)          120.3611         0.430535   
    111. A(C  29,C  34,H  39)          120.6924         0.355990   
    112. A(C  28,C  34,H  39)          118.8665         0.347575   
    113. A(C  33,C  36,H  40)          120.2298         0.356312   
    114. A(C  31,C  36,H  40)          120.0052         0.349014   
    115. A(C  31,C  36,C  33)          119.7493         0.432682   
    116. D(O   5,C   4,C   0,H   1)   -122.2229         0.011426   
    117. D(O   5,C   4,C   0,H   3)     -2.5401         0.011426   
    118. D(N   6,C   4,C   0,H   1)     58.9621         0.011426   
    119. D(N   6,C   4,C   0,H   3)    178.6449         0.011426   
    120. D(N   6,C   4,C   0,H   2)    -62.3916         0.011426   
    121. D(O   5,C   4,C   0,H   2)    116.4235         0.011426   
    122. D(C  21,N   6,C   4,C   0)   -171.3420         0.027840   
    123. D(C   7,N   6,C   4,O   5)    171.5161         0.027840   
    124. D(C   7,N   6,C   4,C   0)     -9.6796         0.027840   
    125. D(C  21,N   6,C   4,O   5)      9.8538         0.027840   
    126. D(C  10,C   7,N   6,C   4)    156.6678         0.015988   
    127. D(H   9,C   7,N   6,C  21)   -164.4596         0.015988   
    128. D(H   8,C   7,N   6,C  21)     75.6260         0.015988   
    129. D(H   8,C   7,N   6,C   4)    -86.1578         0.015988   
    130. D(C  10,C   7,N   6,C  21)    -41.5485         0.015988   
    131. D(H   9,C   7,N   6,C   4)     33.7566         0.015988   
    132. D(O  12,C  10,C   7,N   6)    110.6856         0.010394   
    133. D(O  12,C  10,C   7,H   9)   -126.4574         0.010394   
    134. D(O  12,C  10,C   7,H   8)    -10.4373         0.010394   
    135. D(N  11,C  10,C   7,H   8)    168.0232         0.010394   
    136. D(N  11,C  10,C   7,N   6)    -70.8538         0.010394   
    137. D(N  11,C  10,C   7,H   9)     52.0031         0.010394   
    138. D(C  17,N  11,C  10,O  12)     -1.8076         0.031529   
    139. D(C  17,N  11,C  10,C   7)    179.8097         0.031529   
    140. D(C  13,N  11,C  10,O  12)   -176.2877         0.031529   
    141. D(C  13,N  11,C  10,C   7)      5.3297         0.031529   
    142. D(H  15,C  13,N  11,C  17)     64.3709         0.016747   
    143. D(H  15,C  13,N  11,C  10)   -120.9608         0.016747   
    144. D(H  14,C  13,N  11,C  17)    -55.4078         0.016747   
    145. D(H  16,C  13,N  11,C  10)      0.5021         0.016747   
    146. D(H  14,C  13,N  11,C  10)    119.2606         0.016747   
    147. D(H  16,C  13,N  11,C  17)   -174.1663         0.016747   
    148. D(H  20,C  17,N  11,C  13)    -56.1727         0.016369   
    149. D(H  20,C  17,N  11,C  10)    128.7777         0.016369   
    150. D(H  19,C  17,N  11,C  13)   -176.1472         0.016369   
    151. D(H  19,C  17,N  11,C  10)      8.8031         0.016369   
    152. D(H  18,C  17,N  11,C  13)     63.9432         0.016369   
    153. D(H  18,C  17,N  11,C  10)   -111.1065         0.016369   
    154. D(C  24,C  21,N   6,C   7)     96.9895         0.014519   
    155. D(H  23,C  21,N   6,C   7)    -27.0695         0.014519   
    156. D(C  24,C  21,N   6,C   4)   -100.3261         0.014519   
    157. D(H  22,C  21,N   6,C   7)   -143.0818         0.014519   
    158. D(H  23,C  21,N   6,C   4)    135.6149         0.014519   
    159. D(H  22,C  21,N   6,C   4)     19.6026         0.014519   
    160. D(C  26,C  24,C  21,H  23)   -177.2627         0.011557   
    161. D(C  26,C  24,C  21,H  22)    -56.8036         0.011557   
    162. D(C  26,C  24,C  21,N   6)     61.4746         0.011557   
    163. D(C  25,C  24,C  21,H  22)    124.9835         0.011557   
    164. D(C  25,C  24,C  21,N   6)   -116.7383         0.011557   
    165. D(C  25,C  24,C  21,H  23)      4.5244         0.011557   
    166. D(C  28,C  25,C  24,C  26)      0.2661         0.019768   
    167. D(C  28,C  25,C  24,C  21)    178.4339         0.019768   
    168. D(C  27,C  25,C  24,C  26)    176.0425         0.019768   
    169. D(C  27,C  25,C  24,C  21)     -5.7897         0.019768   
    170. D(H  30,C  26,C  24,C  25)   -178.1116         0.027345   
    171. D(H  30,C  26,C  24,C  21)      3.6052         0.027345   
    172. D(C  29,C  26,C  24,C  25)      0.1789         0.027345   
    173. D(C  29,C  26,C  24,C  21)   -178.1043         0.027345   
    174. D(H  32,C  27,C  25,C  28)   -179.8652         0.021040   
    175. D(H  32,C  27,C  25,C  24)      4.3329         0.021040   
    176. D(C  31,C  27,C  25,C  28)     -3.7929         0.021040   
    177. D(C  31,C  27,C  25,C  24)   -179.5949         0.021040   
    178. D(C  33,C  28,C  25,C  24)   -179.3424         0.018403   
    179. D(C  34,C  28,C  25,C  27)   -178.1759         0.018403   
    180. D(C  34,C  28,C  25,C  24)     -2.1486         0.018403   
    181. D(C  33,C  28,C  25,C  27)      4.6304         0.018403   
    182. D(H  35,C  29,C  26,H  30)     -1.7763         0.023272   
    183. D(H  35,C  29,C  26,C  24)    179.9581         0.023272   
    184. D(C  34,C  29,C  26,H  30)    179.5661         0.023272   
    185. D(C  34,C  29,C  26,C  24)      1.3005         0.023272   
    186. D(H  37,C  31,C  27,H  32)     -3.1216         0.028921   
    187. D(H  37,C  31,C  27,C  25)   -179.2848         0.028921   
    188. D(C  36,C  31,C  27,H  32)    178.3071         0.028921   
    189. D(C  36,C  31,C  27,C  25)      2.1439         0.028921   
    190. D(H  38,C  33,C  28,C  34)      1.8141         0.021485   
    191. D(H  38,C  33,C  28,C  25)    178.9853         0.021485   
    192. D(C  36,C  33,C  28,C  34)    178.8828         0.021485   
    193. D(C  36,C  33,C  28,C  25)     -3.9460         0.021485   
    194. D(H  39,C  34,C  29,H  35)      1.4212         0.029466   
    195. D(H  39,C  34,C  29,C  26)   -179.9300         0.029466   
    196. D(C  28,C  34,C  29,H  35)    178.1339         0.029466   
    197. D(C  28,C  34,C  29,C  26)     -3.2173         0.029466   
    198. D(H  39,C  34,C  28,C  33)     -2.4114         0.021856   
    199. D(H  39,C  34,C  28,C  25)   -179.5714         0.021856   
    200. D(C  29,C  34,C  28,C  33)   -179.1836         0.021856   
    201. D(C  29,C  34,C  28,C  25)      3.6564         0.021856   
    202. D(H  40,C  36,C  33,H  38)     -2.2209         0.032329   
    203. D(H  40,C  36,C  33,C  28)   -179.2326         0.032329   
    204. D(C  31,C  36,C  33,H  38)    179.2196         0.032329   
    205. D(C  31,C  36,C  33,C  28)      2.2078         0.032329   
    206. D(H  40,C  36,C  31,H  37)      1.5948         0.024921   
    207. D(H  40,C  36,C  31,C  27)   -179.8410         0.024921   
    208. D(C  33,C  36,C  31,H  37)   -179.8423         0.024921   
    209. D(C  33,C  36,C  31,C  27)     -1.2781         0.024921   
    -----------------------------------------------------------------

Number of atoms                         .... 41
Number of degrees of freedom            .... 209

         *************************************************************
         *                GEOMETRY OPTIMIZATION CYCLE   1            *
         *************************************************************
---------------------------------
CARTESIAN COORDINATES (ANGSTROEM)
---------------------------------
  C      4.454000    0.044000    0.346000
  H      4.801000   -0.881000   -0.124000
  H      4.196000   -0.180000    1.386000
  H      5.259000    0.778000    0.334000
  C      3.286000    0.657000   -0.403000
  O      3.353000    1.811000   -0.848000
  N      2.150000   -0.107000   -0.544000
  C      2.105000   -1.523000   -0.192000
  H      2.441000   -2.152000   -1.026000
  H      2.756000   -1.711000    0.664000
  C      0.689000   -2.017000    0.114000
  N      0.095000   -1.598000    1.264000
  O      0.151000   -2.801000   -0.682000
  C      0.642000   -0.625000    2.195000
  H     -0.038000    0.230000    2.268000
  H      0.755000   -1.080000    3.186000
  H      1.604000   -0.256000    1.849000
  C     -1.254000   -2.055000    1.569000
  H     -1.960000   -1.221000    1.500000
  H     -1.527000   -2.824000    0.850000
  H     -1.275000   -2.465000    2.585000
  C      1.088000    0.398000   -1.431000
  H      1.552000    1.135000   -2.091000
  H      0.743000   -0.439000   -2.042000
  C     -0.037000    1.050000   -0.653000
  C     -1.379000    0.554000   -0.645000
  C      0.288000    2.163000    0.111000
  C     -1.825000   -0.527000   -1.455000
  C     -2.358000    1.238000    0.160000
  C     -0.675000    2.820000    0.903000
  H      1.306000    2.543000    0.067000
  C     -3.137000   -0.957000   -1.410000
  H     -1.127000   -1.075000   -2.077000
  C     -3.693000    0.756000    0.195000
  C     -1.969000    2.346000    0.954000
  H     -0.386000    3.689000    1.490000
  C     -4.084000   -0.306000   -0.591000
  H     -3.445000   -1.794000   -2.033000
  H     -4.417000    1.275000    0.822000
  H     -2.721000    2.847000    1.562000
  H     -5.114000   -0.658000   -0.564000

----------------------------
CARTESIAN COORDINATES (A.U.)
----------------------------
  NO LB      ZA    FRAG     MASS         X           Y           Z
   0 C     6.0000    0    12.011    8.416840    0.083148    0.653845
   1 H     1.0000    0     1.008    9.072575   -1.664849   -0.234326
   2 H     1.0000    0     1.008    7.929291   -0.340151    2.619160
   3 H     1.0000    0     1.008    9.938070    1.470207    0.631169
   4 C     6.0000    0    12.011    6.209640    1.241550   -0.761560
   5 O     8.0000    0    15.999    6.336252    3.422294   -1.602488
   6 N     7.0000    0    14.007    4.062911   -0.202201   -1.028011
   7 C     6.0000    0    12.011    3.977874   -2.878053   -0.362827
   8 H     1.0000    0     1.008    4.612821   -4.066691   -1.938859
   9 H     1.0000    0     1.008    5.208085   -3.233321    1.254778
  10 C     6.0000    0    12.011    1.302021   -3.811578    0.215429
  11 N     7.0000    0    14.007    0.179524   -3.019782    2.388614
  12 O     8.0000    0    15.999    0.285349   -5.293123   -1.288793
  13 C     6.0000    0    12.011    1.213204   -1.181079    4.147949
  14 H     1.0000    0     1.008   -0.071810    0.434637    4.285899
  15 H     1.0000    0     1.008    1.426743   -2.040904    6.020667
  16 H     1.0000    0     1.008    3.031121   -0.483770    3.494104
  17 C     6.0000    0    12.011   -2.369717   -3.883387    2.964980
  18 H     1.0000    0     1.008   -3.703863   -2.307356    2.834589
  19 H     1.0000    0     1.008   -2.885612   -5.336587    1.606267
  20 H     1.0000    0     1.008   -2.409401   -4.658175    4.884942
  21 C     6.0000    0    12.011    2.056022    0.752111   -2.704198
  22 H     1.0000    0     1.008    2.932855    2.144839   -3.951417
  23 H     1.0000    0     1.008    1.404067   -0.829590   -3.858821
  24 C     6.0000    0    12.011   -0.069920    1.984212   -1.233991
  25 C     6.0000    0    12.011   -2.605932    1.046908   -1.218873
  26 C     6.0000    0    12.011    0.544241    4.087478    0.209760
  27 C     6.0000    0    12.011   -3.448750   -0.995886   -2.749552
  28 C     6.0000    0    12.011   -4.455974    2.339481    0.302356
  29 C     6.0000    0    12.011   -1.275565    5.329028    1.706423
  30 H     1.0000    0     1.008    2.467982    4.805574    0.126612
  31 C     6.0000    0    12.011   -5.928071   -1.808468   -2.664514
  32 H     1.0000    0     1.008   -2.129721   -2.031456   -3.924961
  33 C     6.0000    0    12.011   -6.978759    1.428633    0.368497
  34 C     6.0000    0    12.011   -3.720871    4.433298    1.802799
  35 H     1.0000    0     1.008   -0.729434    6.971200    2.815692
  36 C     6.0000    0    12.011   -7.717642   -0.578256   -1.116828
  37 H     1.0000    0     1.008   -6.510107   -3.390169   -3.841813
  38 H     1.0000    0     1.008   -8.346920    2.409401    1.553355
  39 H     1.0000    0     1.008   -5.141945    5.380050    2.951752
  40 H     1.0000    0     1.008   -9.664059   -1.243440   -1.065806

--------------------------------
INTERNAL COORDINATES (ANGSTROEM)
--------------------------------
 C      0   0   0     0.000000000000     0.00000000     0.00000000
 H      1   0   0     1.094044788846     0.00000000     0.00000000
 H      1   2   0     1.094687169926   108.05211514     0.00000000
 H      1   2   3     1.089460875846   109.30145757   118.26259166
 C      1   2   3     1.516902765506   111.94821572   236.54597979
 O      5   1   2     1.238640383647   120.81332057   237.77708787
 N      5   1   2     1.376253247044   117.50492091    58.96205740
 C      7   5   1     1.459789368368   122.63047292   350.32037015
 H      8   7   5     1.097311715056   111.30400059   273.84224909
 H      8   7   5     1.091733025973   109.73804577    33.75659758
 C      8   7   5     1.530597269042   112.94167997   156.66776293
 N     11   8   7     1.360476754671   118.26263786   289.14615750
 O     11   8   7     1.240046773311   118.49570118   110.68564997
 C     12  11   8     1.453512641844   125.68157989     5.32967964
 H     14  12  11     1.094876248715   109.37371447   119.26055680
 H     14  12  11     1.096300597464   109.87425489   239.03921318
 H     14  12  11     1.086885918577   110.88250955     0.50206859
 C     12  11   8     1.456597061647   118.99477847   179.80974370
 H     18  12  11     1.094875792042   110.18208142   248.89353119
 H     18  12  11     1.087589536544   108.41411101     8.80314449
 H     18  12  11     1.095808833693   109.22500778   128.77767739
 C      7   5   1     1.472969110335   117.80734977   188.65801541
 H     22   7   5     1.092732812722   106.78596333    19.60258086
 H     22   7   5     1.092206482310   107.57061355   135.61492555
 C     22   7   5     1.515260043689   111.93987219   259.67392780
 C     25  22   7     1.430749453958   123.37351257   243.26173647
 C     25  22   7     1.388556804744   116.97664646    61.47462186
 C     26  25  22     1.422524867972   123.66502162   354.21029927
 C     26  25  22     1.440250672626   118.42860204   178.43392961
 C     27  25  22     1.409355171701   121.52885280   181.89573231
 H     27  25  22     1.087501724137   118.48431296     3.60523474
 C     28  26  25     1.381401100333   121.04907358   180.40514087
 H     28  26  25     1.083693683658   120.60739773     4.33285319
 C     29  26  25     1.419779560354   119.45253752   180.65762298
 C     30  27  25     1.379026105627   120.11332559     1.30050267
 H     30  27  25     1.087773413906   119.61237699   179.95806436
 C     34  29  26     1.377868281078   120.95920671   356.05397299
 H     32  28  26     1.087916357079   119.32199861   180.71515937
 H     34  29  26     1.089342003229   118.51437925   178.98532657
 H     35  30  27     1.089113859980   120.69242235   180.06995175
 H     37  34  29     1.088821840339   120.22982170   180.76740426

---------------------------
INTERNAL COORDINATES (A.U.)
---------------------------
 C      0   0   0     0.000000000000     0.00000000     0.00000000
 H      1   0   0     2.067445029162     0.00000000     0.00000000
 H      1   2   0     2.068658953477   108.05211514     0.00000000
 H      1   2   3     2.058782688972   109.30145757   118.26259166
 C      1   2   3     2.866530798594   111.94821572   236.54597979
 O      5   1   2     2.340691103507   120.81332057   237.77708787
 N      5   1   2     2.600741727834   117.50492091    58.96205740
 C      7   5   1     2.758602119425   122.63047292   350.32037015
 H      8   7   5     2.073618625000   111.30400059   273.84224909
 H      8   7   5     2.063076430446   109.73804577    33.75659758
 C      8   7   5     2.892409659818   112.94167997   156.66776293
 N     11   8   7     2.570928477894   118.26263786   289.14615750
 O     11   8   7     2.343348794811   118.49570118   110.68564997
 C     12  11   8     2.746740825277   125.68157989     5.32967964
 H     14  12  11     2.069016260606   109.37371447   119.26055680
 H     14  12  11     2.071707889661   109.87425489   239.03921318
 H     14  12  11     2.053916724925   110.88250955     0.50206859
 C     12  11   8     2.752569533988   118.99477847   179.80974370
 H     18  12  11     2.069015397620   110.18208142   248.89353119
 H     18  12  11     2.055246370187   108.41411101     8.80314449
 H     18  12  11     2.070778590812   109.22500778   128.77767739
 C      7   5   1     2.783508222258   117.80734977   188.65801541
 H     22   7   5     2.064965753595   106.78596333    19.60258086
 H     22   7   5     2.063971133259   107.57061355   135.61492555
 C     22   7   5     2.863426504246   111.93987219   259.67392780
 C     25  22   7     2.703724634237   123.37351257   243.26173647
 C     25  22   7     2.623992082358   116.97664646    61.47462186
 C     26  25  22     2.688182419160   123.66502162   354.21029927
 C     26  25  22     2.721679335459   118.42860204   178.43392961
 C     27  25  22     2.663295299940   121.52885280   181.89573231
 H     27  25  22     2.055080428785   118.48431296     3.60523474
 C     28  26  25     2.610469760726   121.04907358   180.40514087
 H     28  26  25     2.047884275174   120.60739773     4.33285319
 C     29  26  25     2.682994539609   119.45253752   180.65762298
 C     30  27  25     2.605981671162   120.11332559     1.30050267
 H     30  27  25     2.055593848042   119.61237699   179.95806436
 C     34  29  26     2.603793699854   120.95920671   356.05397299
 H     32  28  26     2.055863971493   119.32199861   180.71515937
 H     34  29  26     2.058558052281   118.51437925   178.98532657
 H     35  30  27     2.058126924020   120.69242235   180.06995175
 H     37  34  29     2.057575086874   120.22982170   180.76740426

---------------------
BASIS SET INFORMATION
---------------------
There are 4 groups of distinct atoms

 Group   1 Type C   : 10s4p1d contracted to 3s2p1d pattern {631/31/1}
 Group   2 Type H   : 4s contracted to 2s pattern {31}
 Group   3 Type O   : 10s4p1d contracted to 3s2p1d pattern {631/31/1}
 Group   4 Type N   : 10s4p1d contracted to 3s2p1d pattern {631/31/1}

Atom   0C    basis set group =>   1
Atom   1H    basis set group =>   2
Atom   2H    basis set group =>   2
Atom   3H    basis set group =>   2
Atom   4C    basis set group =>   1
Atom   5O    basis set group =>   3
Atom   6N    basis set group =>   4
Atom   7C    basis set group =>   1
Atom   8H    basis set group =>   2
Atom   9H    basis set group =>   2
Atom  10C    basis set group =>   1
Atom  11N    basis set group =>   4
Atom  12O    basis set group =>   3
Atom  13C    basis set group =>   1
Atom  14H    basis set group =>   2
Atom  15H    basis set group =>   2
Atom  16H    basis set group =>   2
Atom  17C    basis set group =>   1
Atom  18H    basis set group =>   2
Atom  19H    basis set group =>   2
Atom  20H    basis set group =>   2
Atom  21C    basis set group =>   1
Atom  22H    basis set group =>   2
Atom  23H    basis set group =>   2
Atom  24C    basis set group =>   1
Atom  25C    basis set group =>   1
Atom  26C    basis set group =>   1
Atom  27C    basis set group =>   1
Atom  28C    basis set group =>   1
Atom  29C    basis set group =>   1
Atom  30H    basis set group =>   2
Atom  31C    basis set group =>   1
Atom  32H    basis set group =>   2
Atom  33C    basis set group =>   1
Atom  34C    basis set group =>   1
Atom  35H    basis set group =>   2
Atom  36C    basis set group =>   1
Atom  37H    basis set group =>   2
Atom  38H    basis set group =>   2
Atom  39H    basis set group =>   2
Atom  40H    basis set group =>   2
---------------------------------
AUXILIARY/J BASIS SET INFORMATION
---------------------------------
There are 4 groups of distinct atoms

 Group   1 Type C   : 13s11p10d2f contracted to 13s11p10d2f pattern {1111111111111/11111111111/1111111111/11}
 Group   2 Type H   : 9s2p contracted to 9s2p pattern {111111111/11}
 Group   3 Type O   : 14s11p10d2f contracted to 14s11p10d2f pattern {11111111111111/11111111111/1111111111/11}
 Group   4 Type N   : 14s11p10d2f contracted to 14s11p10d2f pattern {11111111111111/11111111111/1111111111/11}

Atom   0C    basis set group =>   1
Atom   1H    basis set group =>   2
Atom   2H    basis set group =>   2
Atom   3H    basis set group =>   2
Atom   4C    basis set group =>   1
Atom   5O    basis set group =>   3
Atom   6N    basis set group =>   4
Atom   7C    basis set group =>   1
Atom   8H    basis set group =>   2
Atom   9H    basis set group =>   2
Atom  10C    basis set group =>   1
Atom  11N    basis set group =>   4
Atom  12O    basis set group =>   3
Atom  13C    basis set group =>   1
Atom  14H    basis set group =>   2
Atom  15H    basis set group =>   2
Atom  16H    basis set group =>   2
Atom  17C    basis set group =>   1
Atom  18H    basis set group =>   2
Atom  19H    basis set group =>   2
Atom  20H    basis set group =>   2
Atom  21C    basis set group =>   1
Atom  22H    basis set group =>   2
Atom  23H    basis set group =>   2
Atom  24C    basis set group =>   1
Atom  25C    basis set group =>   1
Atom  26C    basis set group =>   1
Atom  27C    basis set group =>   1
Atom  28C    basis set group =>   1
Atom  29C    basis set group =>   1
Atom  30H    basis set group =>   2
Atom  31C    basis set group =>   1
Atom  32H    basis set group =>   2
Atom  33C    basis set group =>   1
Atom  34C    basis set group =>   1
Atom  35H    basis set group =>   2
Atom  36C    basis set group =>   1
Atom  37H    basis set group =>   2
Atom  38H    basis set group =>   2
Atom  39H    basis set group =>   2
Atom  40H    basis set group =>   2
---------------------------------
AUXILIARY/C BASIS SET INFORMATION
---------------------------------
There are 4 groups of distinct atoms

 Group   1 Type C   : 13s11p10d2f contracted to 13s11p10d2f pattern {1111111111111/11111111111/1111111111/11}
 Group   2 Type H   : 9s2p contracted to 9s2p pattern {111111111/11}
 Group   3 Type O   : 14s11p10d2f contracted to 14s11p10d2f pattern {11111111111111/11111111111/1111111111/11}
 Group   4 Type N   : 14s11p10d2f contracted to 14s11p10d2f pattern {11111111111111/11111111111/1111111111/11}

Atom   0C    basis set group =>   1
Atom   1H    basis set group =>   2
Atom   2H    basis set group =>   2
Atom   3H    basis set group =>   2
Atom   4C    basis set group =>   1
Atom   5O    basis set group =>   3
Atom   6N    basis set group =>   4
Atom   7C    basis set group =>   1
Atom   8H    basis set group =>   2
Atom   9H    basis set group =>   2
Atom  10C    basis set group =>   1
Atom  11N    basis set group =>   4
Atom  12O    basis set group =>   3
Atom  13C    basis set group =>   1
Atom  14H    basis set group =>   2
Atom  15H    basis set group =>   2
Atom  16H    basis set group =>   2
Atom  17C    basis set group =>   1
Atom  18H    basis set group =>   2
Atom  19H    basis set group =>   2
Atom  20H    basis set group =>   2
Atom  21C    basis set group =>   1
Atom  22H    basis set group =>   2
Atom  23H    basis set group =>   2
Atom  24C    basis set group =>   1
Atom  25C    basis set group =>   1
Atom  26C    basis set group =>   1
Atom  27C    basis set group =>   1
Atom  28C    basis set group =>   1
Atom  29C    basis set group =>   1
Atom  30H    basis set group =>   2
Atom  31C    basis set group =>   1
Atom  32H    basis set group =>   2
Atom  33C    basis set group =>   1
Atom  34C    basis set group =>   1
Atom  35H    basis set group =>   2
Atom  36C    basis set group =>   1
Atom  37H    basis set group =>   2
Atom  38H    basis set group =>   2
Atom  39H    basis set group =>   2
Atom  40H    basis set group =>   2
----------------------------------
AUXILIARY/JK BASIS SET INFORMATION
----------------------------------
There are 4 groups of distinct atoms

 Group   1 Type C   : 13s11p10d2f contracted to 13s11p10d2f pattern {1111111111111/11111111111/1111111111/11}
 Group   2 Type H   : 9s2p contracted to 9s2p pattern {111111111/11}
 Group   3 Type O   : 14s11p10d2f contracted to 14s11p10d2f pattern {11111111111111/11111111111/1111111111/11}
 Group   4 Type N   : 14s11p10d2f contracted to 14s11p10d2f pattern {11111111111111/11111111111/1111111111/11}

Atom   0C    basis set group =>   1
Atom   1H    basis set group =>   2
Atom   2H    basis set group =>   2
Atom   3H    basis set group =>   2
Atom   4C    basis set group =>   1
Atom   5O    basis set group =>   3
Atom   6N    basis set group =>   4
Atom   7C    basis set group =>   1
Atom   8H    basis set group =>   2
Atom   9H    basis set group =>   2
Atom  10C    basis set group =>   1
Atom  11N    basis set group =>   4
Atom  12O    basis set group =>   3
Atom  13C    basis set group =>   1
Atom  14H    basis set group =>   2
Atom  15H    basis set group =>   2
Atom  16H    basis set group =>   2
Atom  17C    basis set group =>   1
Atom  18H    basis set group =>   2
Atom  19H    basis set group =>   2
Atom  20H    basis set group =>   2
Atom  21C    basis set group =>   1
Atom  22H    basis set group =>   2
Atom  23H    basis set group =>   2
Atom  24C    basis set group =>   1
Atom  25C    basis set group =>   1
Atom  26C    basis set group =>   1
Atom  27C    basis set group =>   1
Atom  28C    basis set group =>   1
Atom  29C    basis set group =>   1
Atom  30H    basis set group =>   2
Atom  31C    basis set group =>   1
Atom  32H    basis set group =>   2
Atom  33C    basis set group =>   1
Atom  34C    basis set group =>   1
Atom  35H    basis set group =>   2
Atom  36C    basis set group =>   1
Atom  37H    basis set group =>   2
Atom  38H    basis set group =>   2
Atom  39H    basis set group =>   2
Atom  40H    basis set group =>   2


           ************************************************************
           *        Program running with 4 parallel MPI-processes     *
           *              working on a common directory               *
           ************************************************************
------------------------------------------------------------------------------
                           ORCA GTO INTEGRAL CALCULATION
                           -- RI-GTO INTEGRALS CHOSEN --
------------------------------------------------------------------------------
------------------------------------------------------------------------------
                   ___                                                        
                  /   \      - P O W E R E D   B Y -                         
                 /     \                                                     
                 |  |  |   _    _      __       _____    __    __             
                 |  |  |  | |  | |    /  \     |  _  \  |  |  /  |          
                  \  \/   | |  | |   /    \    | | | |  |  | /  /          
                 / \  \   | |__| |  /  /\  \   | |_| |  |  |/  /          
                |  |  |   |  __  | /  /__\  \  |    /   |      \           
                |  |  |   | |  | | |   __   |  |    \   |  |\   \          
                \     /   | |  | | |  |  |  |  | |\  \  |  | \   \       
                 \___/    |_|  |_| |__|  |__|  |_| \__\ |__|  \__/        
                                                                              
                      - O R C A' S   B I G   F R I E N D -                    
                                      &                                       
                       - I N T E G R A L  F E E D E R -                       
                                                                              
 v1 FN, 2020, v2 2021                                                         
------------------------------------------------------------------------------


Reading SHARK input file Nfnap_octanol.SHARKINP.tmp ... ok
----------------------
SHARK INTEGRAL PACKAGE
----------------------

Number of atoms                             ...     41
Number of basis functions                   ...    334
Number of shells                            ...    166
Maximum angular momentum                    ...      2
Integral batch strategy                     ... SHARK/LIBINT Hybrid
RI-J (if used) integral strategy            ... SPLIT-RIJ (Revised 2003 algorithm where possible)
Printlevel                                  ...      1
Contraction scheme used                     ... SEGMENTED contraction
Coulomb Range Separation                    ... NOT USED
Exchange Range Separation                   ... NOT USED
Finite Nucleus Model                        ... NOT USED
Auxiliary Coulomb fitting basis             ... AVAILABLE
   # of basis functions in Aux-J            ...   2614
   # of shells in Aux-J                     ...    980
   Maximum angular momentum in Aux-J        ...      3
Auxiliary J/K fitting basis                 ... AVAILABLE
   # of basis functions in Aux-JK           ...   2614
   # of shells in Aux-JK                    ...    980
   Maximum angular momentum in Aux-JK       ...      3
Auxiliary Correlation fitting basis         ... AVAILABLE
   # of basis functions in Aux-C            ...   2614
   # of shells in Aux-C                     ...    980
   Maximum angular momentum in Aux-C        ...      3
Auxiliary 'external' fitting basis          ... NOT available
Integral threshold                          ...     2.500000e-11
Primitive cut-off                           ...     2.500000e-12
Primitive pair pre-selection threshold      ...     2.500000e-12

Calculating pre-screening integrals         ... done (  0.1 sec) Dimension = 166
Organizing shell pair data                  ... done (  0.3 sec)
Shell pair information
Total number of shell pairs                 ...     13861
Shell pairs after pre-screening             ...     11436
Total number of primitive shell pairs       ...     78711
Primitive shell pairs kept                  ...     36077
          la=0 lb=0:   4196 shell pairs
          la=1 lb=0:   3809 shell pairs
          la=1 lb=1:    858 shell pairs
          la=2 lb=0:   1617 shell pairs
          la=2 lb=1:    781 shell pairs
          la=2 lb=2:    175 shell pairs

Calculating one electron integrals          ... done (  0.0 sec)
Calculating RI/J V-Matrix + Cholesky decomp.... done (  1.2 sec)
Calculating RI/JK V-Matrix + Cholesky decomp... done (  3.6 sec)
Calculating RI/C V-Matrix + Cholesky decomp.... done (  0.4 sec)
Calculating Nuclear repulsion               ... done (  0.0 sec) ENN=   1765.257284335167 Eh

SHARK setup successfully completed in   6.2 seconds

Maximum memory used throughout the entire GTOINT-calculation: 56.9 MB


           ************************************************************
           *        Program running with 4 parallel MPI-processes     *
           *              working on a common directory               *
           ************************************************************
-------------------------------------------------------------------------------
                                 ORCA SCF
-------------------------------------------------------------------------------

------------
SCF SETTINGS
------------
Hamiltonian:
 Density Functional     Method          .... DFT(GTOs)
 Exchange Functional    Exchange        .... B88
   X-Alpha parameter    XAlpha          ....  0.666667
   Becke's b parameter  XBeta           ....  0.004200
 Correlation Functional Correlation     .... LYP
 LDA part of GGA corr.  LDAOpt          .... VWN-5
 Gradients option       PostSCFGGA      .... off
 Hybrid DFT is turned on
   Fraction HF Exchange ScalHFX         ....  0.200000
   Scaling of DF-GGA-X  ScalDFX         ....  0.720000
   Scaling of DF-GGA-C  ScalDFC         ....  0.810000
   Scaling of DF-LDA-C  ScalLDAC        ....  1.000000
   Perturbative correction              ....  0.000000
   Density functional embedding theory  .... OFF
   NL short-range parameter             ....  4.800000
 RI-approximation to the Coulomb term is turned on
   Number of AuxJ basis functions       .... 2614
   RIJ-COSX (HFX calculated with COS-X)).... on


General Settings:
 Integral files         IntName         .... Nfnap_octanol
 Hartree-Fock type      HFTyp           .... RHF
 Total Charge           Charge          ....    0
 Multiplicity           Mult            ....    1
 Number of Electrons    NEL             ....  152
 Basis Dimension        Dim             ....  334
 Nuclear Repulsion      ENuc            ....   1765.2572843352 Eh

Convergence Acceleration:
 DIIS                   CNVDIIS         .... on
   Start iteration      DIISMaxIt       ....    12
   Startup error        DIISStart       ....  0.200000
   # of expansion vecs  DIISMaxEq       ....     5
   Bias factor          DIISBfac        ....   1.050
   Max. coefficient     DIISMaxC        ....  10.000
 Trust-Rad. Augm. Hess. CNVTRAH         .... auto
   Auto Start mean grad. ratio tolernc. ....  1.125000
   Auto Start start iteration           ....    20
   Auto Start num. interpolation iter.  ....    10
   Max. Number of Micro iterations      ....    16
   Max. Number of Macro iterations      .... Maxiter - #DIIS iter
   Number of Davidson start vectors     ....     2
   Converg. threshold I  (grad. norm)   ....   1.000e-05
   Converg. threshold II (energy diff.) ....   1.000e-08
   Grad. Scal. Fac. for Micro threshold ....   0.100
   Minimum threshold for Micro iter.    ....   0.010
   NR start threshold (gradient norm)   ....   0.001
   Initial trust radius                 ....   0.400
   Minimum AH scaling param. (alpha)    ....   1.000
   Maximum AH scaling param. (alpha)    .... 1000.000
   Orbital update algorithm             .... Taylor
   White noise on init. David. guess    .... on
   Maximum white noise                  ....   0.010
   Quad. conv. algorithm                .... NR
 SOSCF                  CNVSOSCF        .... on
   Start iteration      SOSCFMaxIt      ....   150
   Startup grad/error   SOSCFStart      ....  0.003300
 Level Shifting         CNVShift        .... on
   Level shift para.    LevelShift      ....    0.2500
   Turn off err/grad.   ShiftErr        ....    0.0010
 Zerner damping         CNVZerner       .... off
 Static damping         CNVDamp         .... on
   Fraction old density DampFac         ....    0.7000
   Max. Damping (<1)    DampMax         ....    0.9800
   Min. Damping (>=0)   DampMin         ....    0.0000
   Turn off err/grad.   DampErr         ....    0.1000
 Fernandez-Rico         CNVRico         .... off

SCF Procedure:
 Maximum # iterations   MaxIter         ....   125
 SCF integral mode      SCFMode         .... Direct
   Integral package                     .... SHARK and LIBINT hybrid scheme
 Reset frequency        DirectResetFreq ....    20
 Integral Threshold     Thresh          ....  2.500e-11 Eh
 Primitive CutOff       TCut            ....  2.500e-12 Eh

Convergence Tolerance:
 Convergence Check Mode ConvCheckMode   .... Total+1el-Energy
 Convergence forced     ConvForced      .... 0
 Energy Change          TolE            ....  1.000e-08 Eh
 1-El. energy change                    ....  1.000e-05 Eh
 Orbital Gradient       TolG            ....  1.000e-05
 Orbital Rotation angle TolX            ....  1.000e-05
 DIIS Error             TolErr          ....  5.000e-07


Diagonalization of the overlap matrix:
Smallest eigenvalue                        ... 3.028e-04
Time for diagonalization                   ...    0.018 sec
Threshold for overlap eigenvalues          ... 1.000e-08
Number of eigenvalues below threshold      ... 0
Time for construction of square roots      ...    0.009 sec
Total time needed                          ...    0.029 sec

Time for model grid setup =    0.512 sec

------------------------------
INITIAL GUESS: MODEL POTENTIAL
------------------------------
Loading Hartree-Fock densities                     ... done
Calculating cut-offs                               ... done
Initializing the effective Hamiltonian             ... done
Setting up the integral package (SHARK)            ... done
Starting the Coulomb interaction                   ... done (   0.4 sec)
Reading the grid                                   ... done
Mapping shells                                     ... done
Starting the XC term evaluation                    ... done (   0.3 sec)
  promolecular density results
     # of electrons  =    151.987843090
     EX              =   -122.917339639
     EC              =     -5.147292868
     EX+EC           =   -128.064632506
Transforming the Hamiltonian                       ... done (   0.0 sec)
Diagonalizing the Hamiltonian                      ... done (   0.0 sec)
Back transforming the eigenvectors                 ... done (   0.0 sec)
Now organizing SCF variables                       ... done
                      ------------------
                      INITIAL GUESS DONE (   1.3 sec)
                      ------------------
-------------------
DFT GRID GENERATION
-------------------

General Integration Accuracy     IntAcc      ... 4.388
Radial Grid Type                 RadialGrid  ... OptM3 with GC (2021)
Angular Grid (max. ang.)         AngularGrid ... 4 (Lebedev-302)
Angular grid pruning method      GridPruning ... 4 (adaptive)
Weight generation scheme         WeightScheme... Becke
Basis function cutoff            BFCut       ... 1.0000e-11
Integration weight cutoff        WCut        ... 1.0000e-14
Angular grids for H and He will be reduced by one unit
Partially contracted basis set               ... off
Rotationally invariant grid construction     ... off

Total number of grid points                  ...   188115
Total number of batches                      ...     2956
Average number of points per batch           ...       63
Average number of grid points per atom       ...     4588
Time for grid setup =    3.439 sec

--------------------
COSX GRID GENERATION
--------------------

GRIDX 1
-------
General Integration Accuracy     IntAcc      ... 3.816
Radial Grid Type                 RadialGrid  ... OptM3 with GC (2021)
Angular Grid (max. ang.)         AngularGrid ... 1 (Lebedev-50)
Angular grid pruning method      GridPruning ... 4 (adaptive)
Weight generation scheme         WeightScheme... Becke
Basis function cutoff            BFCut       ... 1.0000e-11
Integration weight cutoff        WCut        ... 1.0000e-14
Angular grids for H and He will be reduced by one unit
Partially contracted basis set               ... on
Rotationally invariant grid construction     ... off

Total number of grid points                  ...    23901
Total number of batches                      ...      393
Average number of points per batch           ...       60
Average number of grid points per atom       ...      583
UseSFitting                                  ... on

GRIDX 2
-------
General Integration Accuracy     IntAcc      ... 4.020
Radial Grid Type                 RadialGrid  ... OptM3 with GC (2021)
Angular Grid (max. ang.)         AngularGrid ... 2 (Lebedev-110)
Angular grid pruning method      GridPruning ... 4 (adaptive)
Weight generation scheme         WeightScheme... Becke
Basis function cutoff            BFCut       ... 1.0000e-11
Integration weight cutoff        WCut        ... 1.0000e-14
Angular grids for H and He will be reduced by one unit
Partially contracted basis set               ... on
Rotationally invariant grid construction     ... off

Total number of grid points                  ...    51055
Total number of batches                      ...      820
Average number of points per batch           ...       62
Average number of grid points per atom       ...     1245
UseSFitting                                  ... on

GRIDX 3
-------
General Integration Accuracy     IntAcc      ... 4.338
Radial Grid Type                 RadialGrid  ... OptM3 with GC (2021)
Angular Grid (max. ang.)         AngularGrid ... 3 (Lebedev-194)
Angular grid pruning method      GridPruning ... 4 (adaptive)
Weight generation scheme         WeightScheme... Becke
Basis function cutoff            BFCut       ... 1.0000e-11
Integration weight cutoff        WCut        ... 1.0000e-14
Angular grids for H and He will be reduced by one unit
Partially contracted basis set               ... on
Rotationally invariant grid construction     ... off

Total number of grid points                  ...   111187
Total number of batches                      ...     1756
Average number of points per batch           ...       63
Average number of grid points per atom       ...     2712
UseSFitting                                  ... on

Time for X-Grid setup             =    2.682 sec


--------------------
CPCM SOLVATION MODEL
--------------------
CPCM parameters:
  Epsilon                                         ...       9.8629
  Refrac                                          ...       1.4295
  Rsolv                                           ...       1.3000
  Surface type                                    ... GAUSSIAN VDW
  Epsilon function type                           ...         CPCM
Radii:
 Radius for C  used is    3.8550 Bohr (=   2.0400 Ang.)
 Radius for H  used is    2.4944 Bohr (=   1.3200 Ang.)
 Radius for O  used is    3.4469 Bohr (=   1.8240 Ang.)
 Radius for N  used is    3.5149 Bohr (=   1.8600 Ang.)
Calculating surface                               ...        done! (  0.0s)
GEPOL surface points                              ...         2029
GEPOL Volume                                      ...    2328.7083
GEPOL Surface-area                                ...    1097.8961
Calculating surface distance matrix               ...        done! (  0.0s)
Performing Cholesky decomposition & store         ...        done! (  0.2s)
Overall time for CPCM initialization              ...                 0.2s
--------------
SCF ITERATIONS
--------------
ITER       Energy         Delta-E        Max-DP      RMS-DP      [F,P]     Damp
               ***  Starting incremental Fock matrix formation  ***
  0   -918.7562164247   0.000000000000 0.09567236  0.00173223  0.2701654 0.7000
  1   -918.9878257840  -0.231609359270 0.05451851  0.00117540  0.1079958 0.7000
                               ***Turning on DIIS***
  2   -919.0824250944  -0.094599310377 0.06251146  0.00196058  0.0371013 0.0000
  3   -919.2330298854  -0.150604791026 0.03793845  0.00079010  0.0542821 0.0000
  4   -919.2623575951  -0.029327709653 0.01017443  0.00025375  0.0132293 0.0000
  5   -919.2644236692  -0.002066074142 0.00378133  0.00008135  0.0061642 0.0000
                      *** Initiating the SOSCF procedure ***
                           *** Shutting down DIIS ***
                      *** Re-Reading the Fockian *** 
                      *** Removing any level shift *** 
ITER      Energy       Delta-E        Grad      Rot      Max-DP    RMS-DP
  6   -919.26456471  -0.0001410455  0.000281  0.000281  0.001134  0.000025
               *** Restarting incremental Fock matrix formation ***
  7   -919.26456228   0.0000024305  0.000121  0.000487  0.000917  0.000016
  8   -919.26456168   0.0000006086  0.000251  0.000389  0.000618  0.000007
  9   -919.26456402  -0.0000023478  0.000041  0.000102  0.000257  0.000004
 10   -919.26456386   0.0000001683  0.000087  0.000080  0.000173  0.000002
 11   -919.26456411  -0.0000002502  0.000004  0.000014  0.000020  0.000001
 12   -919.26456410   0.0000000055  0.000004  0.000007  0.000012  0.000000
                  ***Gradient check signals convergence***
              ***Rediagonalizing the Fockian in SOSCF/NRSCF***

               *****************************************************
               *                     SUCCESS                       *
               *           SCF CONVERGED AFTER  13 CYCLES          *
               *****************************************************

Old exchange energy                            =    -25.017131933 Eh
New exchange energy                            =    -25.017177614 Eh
Exchange energy change after final integration =     -0.000045680 Eh
Total energy after final integration           =   -919.264609773 Eh
Final COS-X integration done in                =    21.356 sec

----------------
TOTAL SCF ENERGY
----------------

Total Energy       :         -919.26460977 Eh          -25014.46174 eV

Components:
Nuclear Repulsion  :         1765.25728434 Eh           48035.09276 eV
Electronic Energy  :        -2684.52189411 Eh          -73049.55451 eV
One Electron Energy:        -4756.91441630 Eh         -129442.22198 eV
Two Electron Energy:         2072.39252219 Eh           56392.66748 eV
Max COSX asymmetry :            0.00000361 Eh               0.00010 eV
CPCM Dielectric    :           -0.01952540 Eh              -0.53131 eV

Virial components:
Potential Energy   :        -1833.15608209 Eh          -49882.71298 eV
Kinetic Energy     :          913.89147232 Eh           24868.25124 eV
Virial Ratio       :            2.00587940


DFT components:
N(Alpha)           :       76.000079628264 electrons
N(Beta)            :       76.000079628264 electrons
N(Total)           :      152.000159256528 electrons
E(X)               :      -99.328154399905 Eh       
E(C)               :       -6.059846290558 Eh       
E(XC)              :     -105.388000690463 Eh       
DFET-embed. en.    :        0.000000000000 Eh       
CPCM Solvation Model Properties:
Surface-charge          :           -0.02241283
Charge-correction       :           -0.00014616 Eh              -0.00398 eV
Free-energy (cav+disp)  :  This term is not implemented in the current solvation scheme

---------------
SCF CONVERGENCE
---------------

  Last Energy change         ...    7.3037e-09  Tolerance :   1.0000e-08
  Last MAX-Density change    ...    4.8850e-15  Tolerance :   1.0000e-07
  Last RMS-Density change    ...    5.1658e-17  Tolerance :   5.0000e-09
  Last Orbital Gradient      ...    1.4039e-06  Tolerance :   1.0000e-05
  Last Orbital Rotation      ...    4.7013e-06  Tolerance :   1.0000e-05

             **** THE GBW FILE WAS UPDATED (Nfnap_octanol.gbw) ****
             **** DENSITY Nfnap_octanol.scfp WAS UPDATED ****
             **** ENERGY FILE WAS UPDATED (Nfnap_octanol.en.tmp) ****
             **** THE GBW FILE WAS UPDATED (Nfnap_octanol.gbw) ****
             **** DENSITY Nfnap_octanol.scfp WAS UPDATED ****
----------------
ORBITAL ENERGIES
----------------

  NO   OCC          E(Eh)            E(eV) 
   0   2.0000     -19.111394      -520.0475 
   1   2.0000     -19.108198      -519.9605 
   2   2.0000     -14.361533      -390.7972 
   3   2.0000     -14.359855      -390.7515 
   4   2.0000     -10.284946      -279.8676 
   5   2.0000     -10.281551      -279.7752 
   6   2.0000     -10.219033      -278.0740 
   7   2.0000     -10.209119      -277.8042 
   8   2.0000     -10.200555      -277.5712 
   9   2.0000     -10.191806      -277.3331 
  10   2.0000     -10.190569      -277.2995 
  11   2.0000     -10.188396      -277.2404 
  12   2.0000     -10.188161      -277.2339 
  13   2.0000     -10.178907      -276.9821 
  14   2.0000     -10.178515      -276.9715 
  15   2.0000     -10.178381      -276.9678 
  16   2.0000     -10.177991      -276.9572 
  17   2.0000     -10.177458      -276.9427 
  18   2.0000     -10.176538      -276.9177 
  19   2.0000     -10.174752      -276.8691 
  20   2.0000     -10.173466      -276.8341 
  21   2.0000      -1.032173       -28.0868 
  22   2.0000      -1.026292       -27.9268 
  23   2.0000      -0.936828       -25.4924 
  24   2.0000      -0.927238       -25.2314 
  25   2.0000      -0.867527       -23.6066 
  26   2.0000      -0.815498       -22.1908 
  27   2.0000      -0.782168       -21.2839 
  28   2.0000      -0.744897       -20.2697 
  29   2.0000      -0.744806       -20.2672 
  30   2.0000      -0.733564       -19.9613 
  31   2.0000      -0.717139       -19.5144 
  32   2.0000      -0.709746       -19.3132 
  33   2.0000      -0.681082       -18.5332 
  34   2.0000      -0.668084       -18.1795 
  35   2.0000      -0.615259       -16.7421 
  36   2.0000      -0.605799       -16.4846 
  37   2.0000      -0.579286       -15.7632 
  38   2.0000      -0.550906       -14.9909 
  39   2.0000      -0.539371       -14.6770 
  40   2.0000      -0.510138       -13.8816 
  41   2.0000      -0.507318       -13.8048 
  42   2.0000      -0.500927       -13.6309 
  43   2.0000      -0.491239       -13.3673 
  44   2.0000      -0.483157       -13.1474 
  45   2.0000      -0.475685       -12.9441 
  46   2.0000      -0.467500       -12.7213 
  47   2.0000      -0.452913       -12.3244 
  48   2.0000      -0.447058       -12.1651 
  49   2.0000      -0.436605       -11.8806 
  50   2.0000      -0.429696       -11.6926 
  51   2.0000      -0.420511       -11.4427 
  52   2.0000      -0.410119       -11.1599 
  53   2.0000      -0.405612       -11.0373 
  54   2.0000      -0.401763       -10.9325 
  55   2.0000      -0.398093       -10.8327 
  56   2.0000      -0.396981       -10.8024 
  57   2.0000      -0.395863       -10.7720 
  58   2.0000      -0.392435       -10.6787 
  59   2.0000      -0.390330       -10.6214 
  60   2.0000      -0.376873       -10.2552 
  61   2.0000      -0.373023       -10.1505 
  62   2.0000      -0.370417       -10.0796 
  63   2.0000      -0.363370        -9.8878 
  64   2.0000      -0.360591        -9.8122 
  65   2.0000      -0.350522        -9.5382 
  66   2.0000      -0.328696        -8.9443 
  67   2.0000      -0.322666        -8.7802 
  68   2.0000      -0.317657        -8.6439 
  69   2.0000      -0.277681        -7.5561 
  70   2.0000      -0.258912        -7.0454 
  71   2.0000      -0.248054        -6.7499 
  72   2.0000      -0.243345        -6.6217 
  73   2.0000      -0.242684        -6.6038 
  74   2.0000      -0.232776        -6.3342 
  75   2.0000      -0.205998        -5.6055 
  76   0.0000      -0.036146        -0.9836 
  77   0.0000      -0.004715        -0.1283 
  78   0.0000       0.016132         0.4390 
  79   0.0000       0.021048         0.5727 
  80   0.0000       0.034220         0.9312 
  81   0.0000       0.092120         2.5067 
  82   0.0000       0.100961         2.7473 
  83   0.0000       0.109392         2.9767 
  84   0.0000       0.117831         3.2064 
  85   0.0000       0.119112         3.2412 
  86   0.0000       0.138136         3.7589 
  87   0.0000       0.142632         3.8812 
  88   0.0000       0.147490         4.0134 
  89   0.0000       0.153586         4.1793 
  90   0.0000       0.156385         4.2555 
  91   0.0000       0.161901         4.4055 
  92   0.0000       0.163553         4.4505 
  93   0.0000       0.170782         4.6472 
  94   0.0000       0.173665         4.7257 
  95   0.0000       0.181946         4.9510 
  96   0.0000       0.183588         4.9957 
  97   0.0000       0.185745         5.0544 
  98   0.0000       0.191689         5.2161 
  99   0.0000       0.196721         5.3530 
 100   0.0000       0.204116         5.5543 
 101   0.0000       0.206532         5.6200 
 102   0.0000       0.221655         6.0315 
 103   0.0000       0.225203         6.1281 
 104   0.0000       0.227139         6.1808 
 105   0.0000       0.238532         6.4908 
 106   0.0000       0.253177         6.8893 
 107   0.0000       0.256953         6.9920 
 108   0.0000       0.260954         7.1009 
 109   0.0000       0.269654         7.3377 
 110   0.0000       0.286259         7.7895 
 111   0.0000       0.290604         7.9077 
 112   0.0000       0.313663         8.5352 
 113   0.0000       0.322965         8.7883 
 114   0.0000       0.329912         8.9774 
 115   0.0000       0.333901         9.0859 
 116   0.0000       0.358652         9.7594 
 117   0.0000       0.364880         9.9289 
 118   0.0000       0.383791        10.4435 
 119   0.0000       0.402313        10.9475 
 120   0.0000       0.415233        11.2991 
 121   0.0000       0.444138        12.0856 
 122   0.0000       0.470922        12.8144 
 123   0.0000       0.486915        13.2496 
 124   0.0000       0.488359        13.2889 
 125   0.0000       0.494555        13.4575 
 126   0.0000       0.508325        13.8322 
 127   0.0000       0.514069        13.9885 
 128   0.0000       0.519842        14.1456 
 129   0.0000       0.529476        14.4078 
 130   0.0000       0.536235        14.5917 
 131   0.0000       0.545247        14.8369 
 132   0.0000       0.554196        15.0804 
 133   0.0000       0.558455        15.1963 
 134   0.0000       0.569848        15.5064 
 135   0.0000       0.578965        15.7544 
 136   0.0000       0.584464        15.9041 
 137   0.0000       0.597744        16.2654 
 138   0.0000       0.602791        16.4028 
 139   0.0000       0.605521        16.4771 
 140   0.0000       0.615289        16.7429 
 141   0.0000       0.621506        16.9120 
 142   0.0000       0.622131        16.9290 
 143   0.0000       0.625491        17.0205 
 144   0.0000       0.628693        17.1076 
 145   0.0000       0.634940        17.2776 
 146   0.0000       0.638928        17.3861 
 147   0.0000       0.645489        17.5646 
 148   0.0000       0.654632        17.8134 
 149   0.0000       0.661981        18.0134 
 150   0.0000       0.669368        18.2144 
 151   0.0000       0.672546        18.3009 
 152   0.0000       0.682549        18.5731 
 153   0.0000       0.690554        18.7909 
 154   0.0000       0.701457        19.0876 
 155   0.0000       0.717226        19.5167 
 156   0.0000       0.723025        19.6745 
 157   0.0000       0.731317        19.9001 
 158   0.0000       0.754522        20.5316 
 159   0.0000       0.762422        20.7465 
 160   0.0000       0.777848        21.1663 
 161   0.0000       0.786979        21.4148 
 162   0.0000       0.806664        21.9504 
 163   0.0000       0.819893        22.3104 
 164   0.0000       0.829776        22.5794 
 165   0.0000       0.833030        22.6679 
 166   0.0000       0.841944        22.9105 
 167   0.0000       0.842640        22.9294 
 168   0.0000       0.849597        23.1187 
 169   0.0000       0.852257        23.1911 
 170   0.0000       0.860172        23.4065 
 171   0.0000       0.866579        23.5808 
 172   0.0000       0.875001        23.8100 
 173   0.0000       0.880527        23.9604 
 174   0.0000       0.883215        24.0335 
 175   0.0000       0.890985        24.2449 
 176   0.0000       0.897733        24.4285 
 177   0.0000       0.901417        24.5288 
 178   0.0000       0.909093        24.7377 
 179   0.0000       0.912569        24.8323 
 180   0.0000       0.925273        25.1779 
 181   0.0000       0.933351        25.3978 
 182   0.0000       0.941026        25.6066 
 183   0.0000       0.949586        25.8396 
 184   0.0000       0.956244        26.0207 
 185   0.0000       0.965618        26.2758 
 186   0.0000       0.971680        26.4408 
 187   0.0000       0.981918        26.7193 
 188   0.0000       0.988388        26.8954 
 189   0.0000       0.997208        27.1354 
 190   0.0000       1.014214        27.5982 
 191   0.0000       1.019832        27.7511 
 192   0.0000       1.039262        28.2798 
 193   0.0000       1.047317        28.4989 
 194   0.0000       1.054444        28.6929 
 195   0.0000       1.073471        29.2106 
 196   0.0000       1.075325        29.2611 
 197   0.0000       1.085402        29.5353 
 198   0.0000       1.091853        29.7108 
 199   0.0000       1.096604        29.8401 
 200   0.0000       1.109950        30.2033 
 201   0.0000       1.125317        30.6214 
 202   0.0000       1.137949        30.9652 
 203   0.0000       1.151725        31.3400 
 204   0.0000       1.176723        32.0203 
 205   0.0000       1.195224        32.5237 
 206   0.0000       1.201050        32.6822 
 207   0.0000       1.210411        32.9370 
 208   0.0000       1.219858        33.1940 
 209   0.0000       1.244530        33.8654 
 210   0.0000       1.251569        34.0569 
 211   0.0000       1.262663        34.3588 
 212   0.0000       1.287190        35.0262 
 213   0.0000       1.294764        35.2323 
 214   0.0000       1.305217        35.5168 
 215   0.0000       1.327381        36.1199 
 216   0.0000       1.356338        36.9078 
 217   0.0000       1.373685        37.3799 
 218   0.0000       1.388463        37.7820 
 219   0.0000       1.411089        38.3977 
 220   0.0000       1.420400        38.6510 
 221   0.0000       1.423187        38.7269 
 222   0.0000       1.441599        39.2279 
 223   0.0000       1.447339        39.3841 
 224   0.0000       1.459600        39.7177 
 225   0.0000       1.466791        39.9134 
 226   0.0000       1.475914        40.1617 
 227   0.0000       1.487953        40.4893 
 228   0.0000       1.496172        40.7129 
 229   0.0000       1.505303        40.9614 
 230   0.0000       1.516841        41.2753 
 231   0.0000       1.533022        41.7157 
 232   0.0000       1.534202        41.7477 
 233   0.0000       1.541230        41.9390 
 234   0.0000       1.585287        43.1379 
 235   0.0000       1.591177        43.2981 
 236   0.0000       1.628883        44.3242 
 237   0.0000       1.633373        44.4463 
 238   0.0000       1.678674        45.6790 
 239   0.0000       1.681646        45.7599 
 240   0.0000       1.738130        47.2969 
 241   0.0000       1.749590        47.6088 
 242   0.0000       1.760781        47.9133 
 243   0.0000       1.781203        48.4690 
 244   0.0000       1.784939        48.5707 
 245   0.0000       1.806621        49.1606 
 246   0.0000       1.814890        49.3857 
 247   0.0000       1.823227        49.6125 
 248   0.0000       1.832783        49.8725 
 249   0.0000       1.851174        50.3730 
 250   0.0000       1.857801        50.5533 
 251   0.0000       1.868012        50.8312 
 252   0.0000       1.893269        51.5185 
 253   0.0000       1.904707        51.8297 
 254   0.0000       1.915469        52.1226 
 255   0.0000       1.925531        52.3964 
 256   0.0000       1.928563        52.4789 
 257   0.0000       1.933468        52.6123 
 258   0.0000       1.939511        52.7768 
 259   0.0000       1.948293        53.0158 
 260   0.0000       1.957416        53.2640 
 261   0.0000       1.961510        53.3754 
 262   0.0000       1.975778        53.7637 
 263   0.0000       1.981672        53.9240 
 264   0.0000       2.000139        54.4265 
 265   0.0000       2.002008        54.4774 
 266   0.0000       2.024780        55.0971 
 267   0.0000       2.028157        55.1890 
 268   0.0000       2.044348        55.6295 
 269   0.0000       2.060332        56.0645 
 270   0.0000       2.071101        56.3575 
 271   0.0000       2.072327        56.3909 
 272   0.0000       2.095702        57.0270 
 273   0.0000       2.107445        57.3465 
 274   0.0000       2.113899        57.5221 
 275   0.0000       2.125481        57.8373 
 276   0.0000       2.137930        58.1760 
 277   0.0000       2.156841        58.6906 
 278   0.0000       2.191045        59.6214 
 279   0.0000       2.198040        59.8117 
 280   0.0000       2.201076        59.8943 
 281   0.0000       2.212157        60.1959 
 282   0.0000       2.215260        60.2803 
 283   0.0000       2.222160        60.4680 
 284   0.0000       2.252987        61.3069 
 285   0.0000       2.266670        61.6792 
 286   0.0000       2.277849        61.9834 
 287   0.0000       2.286872        62.2289 
 288   0.0000       2.297393        62.5152 
 289   0.0000       2.311357        62.8952 
 290   0.0000       2.324325        63.2481 
 291   0.0000       2.329716        63.3948 
 292   0.0000       2.333597        63.5004 
[...]
 10:     78.08   0.000256    1.29  0.001023  (-0.024128  0.010484 -0.018184)
 11:    100.56   0.001204    6.09  0.003738  ( 0.002888 -0.044573  0.041745)
 12:    111.73   0.000468    2.37  0.001308  (-0.009561  0.021096 -0.027773)
 13:    120.18   0.001816    9.18  0.004715  ( 0.046150 -0.040556 -0.030668)
 14:    133.64   0.000127    0.64  0.000297  (-0.008853  0.014154 -0.004280)
 15:    156.65   0.000163    0.82  0.000324  (-0.009857 -0.009086  0.012021)
 16:    165.32   0.000298    1.51  0.000563  ( 0.022100 -0.008161  0.002778)
 17:    187.15   0.000162    0.82  0.000269  ( 0.007395  0.007974 -0.012289)
 18:    195.56   0.000502    2.54  0.000802  (-0.023998  0.003408 -0.014630)
 19:    204.97   0.000353    1.79  0.000538  ( 0.019625 -0.010264 -0.006876)
 20:    252.11   0.000148    0.75  0.000184  (-0.002083 -0.013181  0.002383)
 21:    259.09   0.003687   18.63  0.004441  (-0.044238  0.038577 -0.031560)
 22:    279.21   0.001712    8.65  0.001914  (-0.007925 -0.037344  0.021365)
 23:    311.85   0.000230    1.16  0.000231  ( 0.002732  0.002426  0.014741)
 24:    345.43   0.005374   27.16  0.004855  ( 0.056808 -0.008024 -0.039537)
 25:    386.96   0.001701    8.60  0.001372  ( 0.019840  0.010930  0.029301)
 26:    411.56   0.000371    1.87  0.000281  ( 0.003577 -0.006743 -0.014925)
 27:    420.47   0.001206    6.10  0.000895  ( 0.029106 -0.003361  0.006066)
 28:    433.77   0.002120   10.72  0.001525  (-0.025891 -0.025696  0.013956)
 29:    457.15   0.000664    3.35  0.000453  (-0.020029 -0.002724  0.006672)
 30:    479.61   0.000261    1.32  0.000170  ( 0.001014 -0.009703  0.008647)
 31:    495.01   0.004413   22.30  0.002782  ( 0.048043 -0.020561  0.007134)
 32:    504.31   0.002652   13.40  0.001641  ( 0.010571 -0.030232  0.024802)
 33:    517.97   0.000614    3.10  0.000370  (-0.013045  0.011827 -0.007738)
 34:    556.62   0.000881    4.45  0.000494  ( 0.016658  0.000059 -0.014719)
 35:    567.66   0.004354   22.00  0.002394  ( 0.027443  0.037270  0.015857)
 36:    593.38   0.001130    5.71  0.000594  (-0.012137 -0.004831  0.020586)
 37:    619.63   0.000454    2.29  0.000229  (-0.013960  0.004243  0.003952)
 38:    623.67   0.004167   21.06  0.002085  (-0.034671  0.003317  0.029527)
 39:    663.04   0.001636    8.27  0.000770  (-0.014468 -0.008826  0.021968)
 40:    699.52   0.003352   16.94  0.001495  ( 0.028938 -0.001694  0.025593)
 41:    735.00   0.001229    6.21  0.000522  ( 0.010167 -0.020318  0.002349)
 42:    747.57   0.001327    6.71  0.000554  (-0.001007  0.010744 -0.020917)
 43:    757.47   0.002609   13.19  0.001075  (-0.011593 -0.005490  0.030172)
 44:    795.39   0.005540   28.00  0.002174  (-0.003860  0.034042 -0.031623)
 45:    802.58   0.000313    1.58  0.000122  ( 0.001806 -0.006591  0.008656)
 46:    814.55   0.019093   96.49  0.007315  ( 0.017802 -0.044403  0.070895)
 47:    831.79   0.002875   14.53  0.001078  (-0.009374  0.005752  0.030944)
 48:    874.18   0.000218    1.10  0.000078  ( 0.002582  0.007135 -0.004499)
 49:    876.16   0.001281    6.47  0.000456  (-0.014418  0.015730  0.000885)
 50:    926.47   0.001870    9.45  0.000630  (-0.020263 -0.011388 -0.009472)
 51:    947.89   0.000668    3.37  0.000220  ( 0.008529  0.011718 -0.003114)
 52:    955.53   0.000611    3.09  0.000200  ( 0.004670  0.005002  0.012363)
 53:    973.58   0.001668    8.43  0.000535  ( 0.019931 -0.010718  0.004755)
 54:    987.71   0.000103    0.52  0.000033  (-0.002460  0.001561 -0.004910)
 55:    993.51   0.004701   23.75  0.001476  (-0.031516 -0.021155 -0.005971)
 56:    995.25   0.000316    1.60  0.000099  (-0.003834  0.007113 -0.005815)
 57:   1008.88   0.010984   55.51  0.003398  ( 0.042573 -0.000471 -0.039810)
 58:   1042.89   0.006211   31.39  0.001859  ( 0.021290  0.036740  0.007455)
 59:   1060.62   0.000411    2.07  0.000121  (-0.007493  0.000369 -0.008033)
 60:   1062.03   0.001899    9.60  0.000558  (-0.011224  0.007207  0.019495)
 61:   1088.50   0.001508    7.62  0.000432  (-0.017912 -0.010327 -0.002190)
 62:   1104.74   0.002301   11.63  0.000650  ( 0.002086  0.020572  0.014915)
 63:   1114.71   0.000419    2.12  0.000117  ( 0.002188  0.003760 -0.009912)
 64:   1136.46   0.000266    1.35  0.000073  ( 0.001342 -0.006366 -0.005546)
 65:   1173.82   0.000287    1.45  0.000076  ( 0.005150  0.000109 -0.007048)
 66:   1180.93   0.000422    2.13  0.000112  (-0.003672 -0.004535 -0.008805)
 67:   1189.03   0.010887   55.02  0.002857  (-0.002543 -0.015184 -0.051189)
 68:   1190.90   0.000163    0.82  0.000043  (-0.004935 -0.003560 -0.002393)
 69:   1198.42   0.000422    2.13  0.000110  (-0.005303  0.007265  0.005394)
 70:   1209.65   0.009214   46.56  0.002377  (-0.024830  0.037061  0.019670)
 71:   1249.24   0.000794    4.01  0.000198  (-0.007386 -0.008994 -0.007933)
 72:   1272.33   0.019425   98.16  0.004764  ( 0.068136  0.011034  0.000002)
 73:   1274.00   0.020285  102.51  0.004969  ( 0.048850  0.050475  0.005884)
 74:   1291.51   0.015898   80.34  0.003841  ( 0.055014  0.014663 -0.024493)
 75:   1293.78   0.003472   17.55  0.000837  ( 0.026881 -0.009946 -0.003998)
 76:   1322.20   0.014230   71.91  0.003359  ( 0.056056 -0.000926  0.014678)
 77:   1377.01   0.005915   29.89  0.001341  (-0.030035  0.015321  0.014272)
 78:   1391.97   0.001695    8.57  0.000380  ( 0.003671  0.007216  0.017734)
 79:   1403.87   0.006513   32.92  0.001448  (-0.027415 -0.026149  0.003532)
 80:   1409.59   0.004432   22.40  0.000981  (-0.019281 -0.021539  0.012065)
 81:   1417.99   0.009067   45.82  0.001995  (-0.043462 -0.005025 -0.009013)
 82:   1438.73   0.000826    4.18  0.000179  (-0.012281  0.004885  0.002123)
 83:   1443.83   0.018363   92.80  0.003969  (-0.036171  0.009047  0.050782)
 84:   1456.80   0.021190  107.08  0.004539  ( 0.064656  0.006060 -0.017941)
 85:   1475.04   0.032499  164.24  0.006876  ( 0.068405  0.039646  0.024992)
 86:   1487.71   0.001692    8.55  0.000355  ( 0.009180 -0.016419  0.001088)
 87:   1488.53   0.001883    9.52  0.000395  ( 0.015116  0.004650 -0.012027)
 88:   1492.22   0.002104   10.63  0.000440  (-0.000776  0.020618 -0.003770)
 89:   1500.41   0.005115   25.85  0.001064  ( 0.027271 -0.001952  0.017783)
 90:   1501.31   0.002844   14.37  0.000591  ( 0.016966  0.001090  0.017380)
 91:   1504.94   0.003653   18.46  0.000758  (-0.002269 -0.004493 -0.027060)
 92:   1508.92   0.004930   24.91  0.001020  (-0.020833  0.019244 -0.014671)
 93:   1509.90   0.000881    4.45  0.000182  (-0.010895 -0.006720  0.004265)
 94:   1515.46   0.003822   19.31  0.000787  (-0.002736  0.022592 -0.016405)
 95:   1529.17   0.000885    4.47  0.000181  (-0.011714  0.000500 -0.006564)
 96:   1556.43   0.014759   74.59  0.002959  ( 0.027631 -0.005942 -0.046480)
 97:   1568.54   0.002217   11.21  0.000441  ( 0.008450  0.015400  0.011516)
 98:   1631.73   0.000450    2.27  0.000086  (-0.006735  0.006214  0.001435)
 99:   1652.83   0.002798   14.14  0.000528  (-0.009374  0.018949  0.009019)
100:   1679.65   0.000128    0.65  0.000024  ( 0.000084  0.002615 -0.004124)
101:   1712.72   0.103499  523.04  0.018858  (-0.050740 -0.126555  0.016340)
102:   1721.43   0.095971  485.00  0.017398  ( 0.029643  0.072160  0.106358)
103:   3045.14   0.009650   48.77  0.000989  ( 0.019899  0.013222 -0.020448)
104:   3056.89   0.014157   71.54  0.001445  (-0.003014 -0.011385 -0.036146)
105:   3063.05   0.000828    4.18  0.000084  (-0.003428  0.005048 -0.006862)
106:   3071.83   0.007260   36.69  0.000738  ( 0.006708 -0.023893 -0.011030)
107:   3106.58   0.005761   29.11  0.000579  (-0.008472  0.002240 -0.022403)
108:   3106.99   0.009935   50.21  0.000998  (-0.008893  0.029358 -0.007542)
109:   3110.86   0.000756    3.82  0.000076  ( 0.003666  0.002151 -0.007598)
110:   3125.21   0.002186   11.05  0.000218  (-0.006965  0.003117  0.012652)
111:   3155.64   0.001665    8.42  0.000165  (-0.001825  0.011153  0.006079)
112:   3162.04   0.001673    8.45  0.000165  ( 0.005136  0.000489  0.011768)
113:   3170.79   0.003021   15.27  0.000297  (-0.012223 -0.011887  0.002575)
114:   3182.29   0.000272    1.37  0.000027  (-0.000683  0.004027  0.003157)
115:   3184.72   0.001307    6.60  0.000128  ( 0.010866 -0.000317 -0.003139)
116:   3193.46   0.004361   22.04  0.000426  ( 0.010004 -0.011761 -0.013702)
117:   3200.86   0.000282    1.42  0.000027  (-0.004935 -0.000877 -0.001539)
118:   3201.12   0.007743   39.13  0.000755  (-0.002989  0.020732  0.017779)
119:   3206.58   0.004408   22.28  0.000429  (-0.020687  0.000557  0.000860)
120:   3208.25   0.008724   44.09  0.000849  ( 0.027547  0.009116  0.002583)
121:   3217.62   0.001781    9.00  0.000173  ( 0.000818  0.011361  0.006553)
122:   3243.61   0.003559   17.99  0.000342  ( 0.007151 -0.011078 -0.012982)

* The epsilon (eps) is given for a Dirac delta lineshape.
** The dipole moment derivative (T) already includes vibrational overlap.

The first frequency considered to be a vibration is 6
The total number of vibrations considered is 117


--------------------------
THERMOCHEMISTRY AT 298.15K
--------------------------

Temperature         ... 298.15 K
Pressure            ... 1.00 atm
Total Mass          ... 284.36 AMU

Throughout the following assumptions are being made:
  (1) The electronic state is orbitally nondegenerate
  (2) There are no thermally accessible electronically excited states
  (3) Hindered rotations indicated by low frequency modes are not
      treated as such but are treated as vibrations and this may
      cause some error
  (4) All equations used are the standard statistical mechanics
      equations for an ideal gas
  (5) All vibrations are strictly harmonic

freq.      27.05  E(vib)   ...       0.55 
freq.      43.06  E(vib)   ...       0.53 
freq.      52.80  E(vib)   ...       0.52 
freq.      72.87  E(vib)   ...       0.49 
freq.      78.08  E(vib)   ...       0.49 
freq.     100.56  E(vib)   ...       0.46 
freq.     111.73  E(vib)   ...       0.45 
freq.     120.18  E(vib)   ...       0.44 
freq.     133.64  E(vib)   ...       0.42 
freq.     156.65  E(vib)   ...       0.40 
freq.     165.32  E(vib)   ...       0.39 
freq.     187.15  E(vib)   ...       0.36 
freq.     195.56  E(vib)   ...       0.36 
freq.     204.97  E(vib)   ...       0.35 
freq.     252.11  E(vib)   ...       0.30 
freq.     259.09  E(vib)   ...       0.30 
freq.     279.21  E(vib)   ...       0.28 
freq.     311.85  E(vib)   ...       0.25 
freq.     345.43  E(vib)   ...       0.23 
freq.     386.96  E(vib)   ...       0.20 
freq.     411.56  E(vib)   ...       0.19 
freq.     420.47  E(vib)   ...       0.18 
freq.     433.77  E(vib)   ...       0.17 
freq.     457.15  E(vib)   ...       0.16 
freq.     479.61  E(vib)   ...       0.15 
freq.     495.01  E(vib)   ...       0.14 
freq.     504.31  E(vib)   ...       0.14 
freq.     517.97  E(vib)   ...       0.13 
freq.     556.62  E(vib)   ...       0.12 
freq.     567.66  E(vib)   ...       0.11 
freq.     593.38  E(vib)   ...       0.10 
freq.     619.63  E(vib)   ...       0.09 
freq.     623.67  E(vib)   ...       0.09 
freq.     663.04  E(vib)   ...       0.08 
freq.     699.52  E(vib)   ...       0.07 
freq.     735.00  E(vib)   ...       0.06 
freq.     747.57  E(vib)   ...       0.06 
freq.     757.47  E(vib)   ...       0.06 
freq.     795.39  E(vib)   ...       0.05 
freq.     802.58  E(vib)   ...       0.05 
freq.     814.55  E(vib)   ...       0.05 
freq.     831.79  E(vib)   ...       0.04 
freq.     874.18  E(vib)   ...       0.04 
freq.     876.16  E(vib)   ...       0.04 
freq.     926.47  E(vib)   ...       0.03 
freq.     947.89  E(vib)   ...       0.03 
freq.     955.53  E(vib)   ...       0.03 
freq.     973.58  E(vib)   ...       0.03 
freq.     987.71  E(vib)   ...       0.02 
freq.     993.51  E(vib)   ...       0.02 
freq.     995.25  E(vib)   ...       0.02 
freq.    1008.88  E(vib)   ...       0.02 
freq.    1042.89  E(vib)   ...       0.02 
freq.    1060.62  E(vib)   ...       0.02 
freq.    1062.03  E(vib)   ...       0.02 
freq.    1088.50  E(vib)   ...       0.02 
freq.    1104.74  E(vib)   ...       0.02 
freq.    1114.71  E(vib)   ...       0.01 
freq.    1136.46  E(vib)   ...       0.01 
freq.    1173.82  E(vib)   ...       0.01 
freq.    1180.93  E(vib)   ...       0.01 
freq.    1189.03  E(vib)   ...       0.01 
freq.    1190.90  E(vib)   ...       0.01 
freq.    1198.42  E(vib)   ...       0.01 
freq.    1209.65  E(vib)   ...       0.01 
freq.    1249.24  E(vib)   ...       0.01 
freq.    1272.33  E(vib)   ...       0.01 
freq.    1274.00  E(vib)   ...       0.01 
freq.    1291.51  E(vib)   ...       0.01 
freq.    1293.78  E(vib)   ...       0.01 
freq.    1322.20  E(vib)   ...       0.01 
freq.    1377.01  E(vib)   ...       0.01 
freq.    1391.97  E(vib)   ...       0.00 
freq.    1403.87  E(vib)   ...       0.00 
freq.    1409.59  E(vib)   ...       0.00 
freq.    1417.99  E(vib)   ...       0.00 
freq.    1438.73  E(vib)   ...       0.00 
freq.    1443.83  E(vib)   ...       0.00 
freq.    1456.80  E(vib)   ...       0.00 
freq.    1475.04  E(vib)   ...       0.00 
freq.    1487.71  E(vib)   ...       0.00 
freq.    1488.53  E(vib)   ...       0.00 
freq.    1492.22  E(vib)   ...       0.00 
freq.    1500.41  E(vib)   ...       0.00 
freq.    1501.31  E(vib)   ...       0.00 
freq.    1504.94  E(vib)   ...       0.00 
freq.    1508.92  E(vib)   ...       0.00 
freq.    1509.90  E(vib)   ...       0.00 
freq.    1515.46  E(vib)   ...       0.00 
freq.    1529.17  E(vib)   ...       0.00 
freq.    1556.43  E(vib)   ...       0.00 
freq.    1568.54  E(vib)   ...       0.00 
freq.    1631.73  E(vib)   ...       0.00 
freq.    1652.83  E(vib)   ...       0.00 
freq.    1679.65  E(vib)   ...       0.00 
freq.    1712.72  E(vib)   ...       0.00 
freq.    1721.43  E(vib)   ...       0.00 
freq.    3045.14  E(vib)   ...       0.00 
freq.    3056.89  E(vib)   ...       0.00 
freq.    3063.05  E(vib)   ...       0.00 
freq.    3071.83  E(vib)   ...       0.00 
freq.    3106.58  E(vib)   ...       0.00 
freq.    3106.99  E(vib)   ...       0.00 
freq.    3110.86  E(vib)   ...       0.00 
freq.    3125.21  E(vib)   ...       0.00 
freq.    3155.64  E(vib)   ...       0.00 
freq.    3162.04  E(vib)   ...       0.00 
freq.    3170.79  E(vib)   ...       0.00 
freq.    3182.29  E(vib)   ...       0.00 
freq.    3184.72  E(vib)   ...       0.00 
freq.    3193.46  E(vib)   ...       0.00 
freq.    3200.86  E(vib)   ...       0.00 
freq.    3201.12  E(vib)   ...       0.00 
freq.    3206.58  E(vib)   ...       0.00 
freq.    3208.25  E(vib)   ...       0.00 
freq.    3217.62  E(vib)   ...       0.00 
freq.    3243.61  E(vib)   ...       0.00 

------------
INNER ENERGY
------------

The inner energy is: U= E(el) + E(ZPE) + E(vib) + E(rot) + E(trans)
    E(el)   - is the total energy from the electronic structure calculation
              = E(kin-el) + E(nuc-el) + E(el-el) + E(nuc-nuc)
    E(ZPE)  - the the zero temperature vibrational energy from the frequency calculation
    E(vib)  - the the finite temperature correction to E(ZPE) due to population
              of excited vibrational states
    E(rot)  - is the rotational thermal energy
    E(trans)- is the translational thermal energy

Summary of contributions to the inner energy U:
Electronic energy                ...   -919.36136426 Eh
Zero point energy                ...      0.34490804 Eh     216.43 kcal/mol
Thermal vibrational correction   ...      0.01700613 Eh      10.67 kcal/mol
Thermal rotational correction    ...      0.00141627 Eh       0.89 kcal/mol
Thermal translational correction ...      0.00141627 Eh       0.89 kcal/mol
-----------------------------------------------------------------------
Total thermal energy                   -918.99661754 Eh


Summary of corrections to the electronic energy:
(perhaps to be used in another calculation)
Total thermal correction                  0.01983867 Eh      12.45 kcal/mol
Non-thermal (ZPE) correction              0.34490804 Eh     216.43 kcal/mol
-----------------------------------------------------------------------
Total correction                          0.36474671 Eh     228.88 kcal/mol


--------
ENTHALPY
--------

The enthalpy is H = U + kB*T
                kB is Boltzmann's constant
Total free energy                 ...   -918.99661754 Eh 
Thermal Enthalpy correction       ...      0.00094421 Eh       0.59 kcal/mol
-----------------------------------------------------------------------
Total Enthalpy                    ...   -918.99567333 Eh


Note: Only C1 symmetry has been detected, increase convergence thresholds 
      if your molecule has a higher symmetry. Symmetry factor of 1.0 is   
      used for the rotational entropy correction. 
 

Note: Rotational entropy computed according to Herzberg 
Infrared and Raman Spectra, Chapter V,1, Van Nostrand Reinhold, 1945 
Point Group:  C1, Symmetry Number:   1  
Rotational constants in cm-1:     0.017059     0.008858     0.007649 

Vibrational entropy computed according to the QRRHO of S. Grimme
Chem.Eur.J. 2012 18 9955


-------
ENTROPY
-------

The entropy contributions are T*S = T*(S(el)+S(vib)+S(rot)+S(trans))
     S(el)   - electronic entropy
     S(vib)  - vibrational entropy
     S(rot)  - rotational entropy
     S(trans)- translational entropy
The entropies will be listed as multiplied by the temperature to get
units of energy

Electronic entropy                ...      0.00000000 Eh      0.00 kcal/mol
Vibrational entropy               ...      0.03002770 Eh     18.84 kcal/mol
Rotational entropy                ...      0.01596460 Eh     10.02 kcal/mol
Translational entropy             ...      0.02035134 Eh     12.77 kcal/mol
-----------------------------------------------------------------------
Final entropy term                ...      0.06634364 Eh     41.63 kcal/mol

In case the symmetry of your molecule has not been determined correctly
or in case you have a reason to use a different symmetry number we print 
out the resulting rotational entropy values for sn=1,12 :
 --------------------------------------------------------
|  sn= 1 | S(rot)=       0.01596460 Eh     10.02 kcal/mol|
|  sn= 2 | S(rot)=       0.01531014 Eh      9.61 kcal/mol|
|  sn= 3 | S(rot)=       0.01492731 Eh      9.37 kcal/mol|
|  sn= 4 | S(rot)=       0.01465568 Eh      9.20 kcal/mol|
|  sn= 5 | S(rot)=       0.01444500 Eh      9.06 kcal/mol|
|  sn= 6 | S(rot)=       0.01427285 Eh      8.96 kcal/mol|
|  sn= 7 | S(rot)=       0.01412731 Eh      8.86 kcal/mol|
|  sn= 8 | S(rot)=       0.01400123 Eh      8.79 kcal/mol|
|  sn= 9 | S(rot)=       0.01389002 Eh      8.72 kcal/mol|
|  sn=10 | S(rot)=       0.01379054 Eh      8.65 kcal/mol|
|  sn=11 | S(rot)=       0.01370055 Eh      8.60 kcal/mol|
|  sn=12 | S(rot)=       0.01361840 Eh      8.55 kcal/mol|
 --------------------------------------------------------


-------------------
GIBBS FREE ENERGY
-------------------

The Gibbs free energy is G = H - T*S

Total enthalpy                    ...   -918.99567333 Eh 
Total entropy correction          ...     -0.06634364 Eh    -41.63 kcal/mol
-----------------------------------------------------------------------
Final Gibbs free energy         ...   -919.06201697 Eh

For completeness - the Gibbs free energy minus the electronic energy
G-E(el)                           ...      0.29934728 Eh    187.84 kcal/mol


Timings for individual modules:

Sum of individual times         ...     5877.518 sec (=  97.959 min)
GTO integral calculation        ...       60.881 sec (=   1.015 min)   1.0 %
SCF iterations                  ...     3387.236 sec (=  56.454 min)  57.6 %
SCF Gradient evaluation         ...     1065.709 sec (=  17.762 min)  18.1 %
Geometry relaxation             ...        3.177 sec (=   0.053 min)   0.1 %
Analytical frequency calculation...     1360.515 sec (=  22.675 min)  23.1 %
                             ****ORCA TERMINATED NORMALLY****
TOTAL RUN TIME: 0 days 1 hours 38 minutes 11 seconds 243 msec
