
                                 *****************
                                 * O   R   C   A *
                                 *****************

                                            #,                                       
                                            ###                                      
                                            ####                                     
                                            #####                                    
                                            ######                                   
                                           ########,                                 
                                     ,,################,,,,,                         
                               ,,#################################,,                 
                          ,,##########################################,,             
                       ,#########################################, ''#####,          
                    ,#############################################,,   '####,        
                  ,##################################################,,,,####,       
                ,###########''''           ''''###############################       
              ,#####''   ,,,,##########,,,,          '''####'''          '####       
            ,##' ,,,,###########################,,,                        '##       
           ' ,,###''''                  '''############,,,                           
         ,,##''                                '''############,,,,        ,,,,,,###''
      ,#''                                            '''#######################'''  
     '                                                          ''''####''''         
             ,#######,   #######,   ,#######,      ##                                
            ,#'     '#,  ##    ##  ,#'     '#,    #''#        ######   ,####,        
            ##       ##  ##   ,#'  ##            #'  '#       #        #'  '#        
            ##       ##  #######   ##           ,######,      #####,   #    #        
            '#,     ,#'  ##    ##  '#,     ,#' ,#      #,         ##   #,  ,#        
             '#######'   ##     ##  '#######'  #'      '#     #####' # '####'        



                  #######################################################
                  #                        -***-                        #
                  #          Department of theory and spectroscopy      #
                  #    Directorship and core code : Frank Neese         #
                  #        Max Planck Institute fuer Kohlenforschung    #
                  #                Kaiser Wilhelm Platz 1               #
                  #                 D-45470 Muelheim/Ruhr               #
                  #                      Germany                        #
                  #                                                     #
                  #                  All rights reserved                #
                  #                        -***-                        #
                  #######################################################


                         Program Version 5.0.4 -  RELEASE  -


 With contributions from (in alphabetic order):
   Daniel Aravena         : Magnetic Suceptibility
   Michael Atanasov       : Ab Initio Ligand Field Theory (pilot matlab implementation)
   Alexander A. Auer      : GIAO ZORA, VPT2 properties, NMR spectrum
   Ute Becker             : Parallelization
   Giovanni Bistoni       : ED, misc. LED, open-shell LED, HFLD
   Martin Brehm           : Molecular dynamics
   Dmytro Bykov           : SCF Hessian
   Vijay G. Chilkuri      : MRCI spin determinant printing, contributions to CSF-ICE
   Dipayan Datta          : RHF DLPNO-CCSD density
   Achintya Kumar Dutta   : EOM-CC, STEOM-CC
   Dmitry Ganyushin       : Spin-Orbit,Spin-Spin,Magnetic field MRCI
   Miquel Garcia          : C-PCM and meta-GGA Hessian, CC/C-PCM, Gaussian charge scheme
   Yang Guo               : DLPNO-NEVPT2, F12-NEVPT2, CIM, IAO-localization
   Andreas Hansen         : Spin unrestricted coupled pair/coupled cluster methods
   Benjamin Helmich-Paris : MC-RPA, TRAH-SCF, COSX integrals
   Lee Huntington         : MR-EOM, pCC
   Robert Izsak           : Overlap fitted RIJCOSX, COSX-SCS-MP3, EOM
   Marcus Kettner         : VPT2
   Christian Kollmar      : KDIIS, OOCD, Brueckner-CCSD(T), CCSD density, CASPT2, CASPT2-K
   Simone Kossmann        : Meta GGA functionals, TD-DFT gradient, OOMP2, MP2 Hessian
   Martin Krupicka        : Initial AUTO-CI
   Lucas Lang             : DCDCAS
   Marvin Lechner         : AUTO-CI (C++ implementation), FIC-MRCC
   Dagmar Lenk            : GEPOL surface, SMD
   Dimitrios Liakos       : Extrapolation schemes; Compound Job, initial MDCI parallelization
   Dimitrios Manganas     : Further ROCIS development; embedding schemes
   Dimitrios Pantazis     : SARC Basis sets
   Anastasios Papadopoulos: AUTO-CI, single reference methods and gradients
   Taras Petrenko         : DFT Hessian,TD-DFT gradient, ASA, ECA, R-Raman, ABS, FL, XAS/XES, NRVS
   Peter Pinski           : DLPNO-MP2, DLPNO-MP2 Gradient
   Christoph Reimann      : Effective Core Potentials
   Marius Retegan         : Local ZFS, SOC
   Christoph Riplinger    : Optimizer, TS searches, QM/MM, DLPNO-CCSD(T), (RO)-DLPNO pert. Triples
   Tobias Risthaus        : Range-separated hybrids, TD-DFT gradient, RPA, STAB
   Michael Roemelt        : Original ROCIS implementation
   Masaaki Saitow         : Open-shell DLPNO-CCSD energy and density
   Barbara Sandhoefer     : DKH picture change effects
   Avijit Sen             : IP-ROCIS
   Kantharuban Sivalingam : CASSCF convergence, NEVPT2, FIC-MRCI
   Bernardo de Souza      : ESD, SOC TD-DFT
   Georgi Stoychev        : AutoAux, RI-MP2 NMR, DLPNO-MP2 response
   Willem Van den Heuvel  : Paramagnetic NMR
   Boris Wezisla          : Elementary symmetry handling
   Frank Wennmohs         : Technical directorship


 We gratefully acknowledge several colleagues who have allowed us to
 interface, adapt or use parts of their codes:
   Stefan Grimme, W. Hujo, H. Kruse, P. Pracht,  : VdW corrections, initial TS optimization,
                  C. Bannwarth, S. Ehlert          DFT functionals, gCP, sTDA/sTD-DF
   Ed Valeev, F. Pavosevic, A. Kumar             : LibInt (2-el integral package), F12 methods
   Garnet Chan, S. Sharma, J. Yang, R. Olivares  : DMRG
   Ulf Ekstrom                                   : XCFun DFT Library
   Mihaly Kallay                                 : mrcc  (arbitrary order and MRCC methods)
   Jiri Pittner, Ondrej Demel                    : Mk-CCSD
   Frank Weinhold                                : gennbo (NPA and NBO analysis)
   Christopher J. Cramer and Donald G. Truhlar   : smd solvation model
   Lars Goerigk                                  : TD-DFT with DH, B97 family of functionals
   V. Asgeirsson, H. Jonsson                     : NEB implementation
   FAccTs GmbH                                   : IRC, NEB, NEB-TS, DLPNO-Multilevel, CI-OPT
                                                   MM, QMMM, 2- and 3-layer-ONIOM, Crystal-QMMM,
                                                   LR-CPCM, SF, NACMEs, symmetry and pop. for TD-DFT,
                                                   nearIR, NL-DFT gradient (VV10), updates on ESD,
                                                   ML-optimized integration grids
   S Lehtola, MJT Oliveira, MAL Marques          : LibXC Library
   Liviu Ungur et al                             : ANISO software


 Your calculation uses the libint2 library for the computation of 2-el integrals
 For citations please refer to: http://libint.valeyev.net

 Your ORCA version has been built with support for libXC version: 5.1.0
 For citations please refer to: https://tddft.org/programs/libxc/

 This ORCA versions uses:
   CBLAS   interface :  Fast vector & matrix operations
   LAPACKE interface :  Fast linear algebra routines
   SCALAPACK package :  Parallel linear algebra routines
   Shared memory     :  Shared parallel matrices
   BLAS/LAPACK       :  OpenBLAS 0.3.15  USE64BITINT DYNAMIC_ARCH NO_AFFINITY SkylakeX SINGLE_THREADED
        Core in use  :  SkylakeX
   Copyright (c) 2011-2014, The OpenBLAS Project




***************************************
The coordinates will be read from file: /users/fjb15167/WWenergy/structures/Nk.xyz
***************************************


Your calculation utilizes the atom-pairwise dispersion correction
based on tight binding partial charges (D4)
Cite in your paper:
E.Caldeweyher, C.Bannwarth, S.Grimme, J.Chem.Phys., (2017), 147, 034112.
E.Caldeweyher, S.Ehlert, A.Hansen, H.Neugebauer, S.Grimme, J.Chem.Phys., (2018), in progress.
   

================================================================================

----- Orbital basis set information -----
Your calculation utilizes the basis: 6-31+G(d)
   H-He, Li-Ne : W. J. Hehre, R. Ditchfield and J.A. Pople, J. Chem. Phys. 56, 2257 (1972).
                 Note: He and Ne are unpublished basis sets taken from the Gaussian program.
                 Note: Li and B from J. D. Dill and J. A. Pople, J. Chem. Phys. 62, 2921 (1975).
   Na - Ar     : M. M. Francl, W. J. Pietro, W. J. Hehre, J. S. Binkley, M. S. Gordon, 
                 D. J. DeFrees and J. A. Pople, J. Chem. Phys. 77, 3654 (1982).
   K - Zn      : V. A. Rassolov, J. A. Pople, M. A. Ratner, and T. L. Windus, J. Chem. Phys. 109, 1223 (1998).
   Additional Pol./Diff. from the 6-311G equivalent.

----- AuxJ basis set information -----
Your calculation utilizes the AutoAux generation procedure.
  G. L. Stoychev, A. A. Auer, F. Neese, J. Chem. Theory Comput. 13, 554 (2017)

----- AuxC basis set information -----
Your calculation utilizes the AutoAux generation procedure.
  G. L. Stoychev, A. A. Auer, F. Neese, J. Chem. Theory Comput. 13, 554 (2017)

----- AuxJK basis set information -----
Your calculation utilizes the AutoAux generation procedure.
  G. L. Stoychev, A. A. Auer, F. Neese, J. Chem. Theory Comput. 13, 554 (2017)

================================================================================
                                        WARNINGS
                       Please study these warnings very carefully!
================================================================================


WARNING: Geometry Optimization
  ===> : Switching off AutoStart
         For restart on a previous wavefunction, please use MOREAD

INFO   : the flag for use of the SHARK integral package has been found!

================================================================================
                                       INPUT FILE
================================================================================
NAME = Nk_octanol.inp
|  1> ! OPT FREQ B3LYP 6-31+G(d) D4 AUTOAUX
|  2> ! CPCM
|  3> 
|  4> %cpcm
|  5> epsilon 9.8629 
|  6> refrac  1.4295 
|  7> end
|  8> 
|  9> %PAL NPROCS 4 END
| 10> 
| 11> %maxcore 3375
| 12> 
| 13> *xyzfile 1 1 /users/fjb15167/WWenergy/structures/Nk.xyz
| 14> 
| 15>                          ****END OF INPUT****
================================================================================

                       *****************************
                       * Geometry Optimization Run *
                       *****************************

Geometry optimization settings:
Update method            Update   .... BFGS
Choice of coordinates    CoordSys .... Z-matrix Internals
Initial Hessian          InHess   .... Almoef's Model

Convergence Tolerances:
Energy Change            TolE     ....  5.0000e-06 Eh
Max. Gradient            TolMAXG  ....  3.0000e-04 Eh/bohr
RMS Gradient             TolRMSG  ....  1.0000e-04 Eh/bohr
Max. Displacement        TolMAXD  ....  4.0000e-03 bohr
RMS Displacement         TolRMSD  ....  2.0000e-03 bohr
Strict Convergence                ....  False
------------------------------------------------------------------------------
                        ORCA OPTIMIZATION COORDINATE SETUP
------------------------------------------------------------------------------

The optimization will be done in new redundant internal coordinates
Making redundant internal coordinates   ...  (new redundants) done
Evaluating the initial hessian          ...  (Almloef) done
Evaluating the coordinates              ...  done
Calculating the B-matrix                .... done
Calculating the G-matrix                .... done
Diagonalizing the G-matrix              .... done
Small eigenvalue found = 5.409e-03
Small eigenvalue found = 1.017e-02
Small eigenvalue found = 1.127e-02
Small eigenvalue found = 1.498e-02
Small eigenvalue found = 2.373e-02
Small eigenvalue found = 2.442e-02
The first mode is                       ....   78
The number of degrees of freedom        ....  105

    -----------------------------------------------------------------
                    Redundant Internal Coordinates


    -----------------------------------------------------------------
         Definition                    Initial Value    Approx d2E/dq
    -----------------------------------------------------------------
      1. B(H   1,C   0)                  1.0910         0.358762   
      2. B(H   2,C   0)                  1.0944         0.354372   
      3. B(H   3,C   0)                  1.0895         0.360787   
      4. B(C   4,C   0)                  1.5295         0.374321   
      5. B(O   5,C   4)                  1.2157         1.061642   
      6. B(N   6,C   4)                  1.3853         0.569365   
      7. B(C   7,N   6)                  1.4648         0.425193   
      8. B(H   8,C   7)                  1.0938         0.355044   
      9. B(H   9,C   7)                  1.0923         0.357042   
     10. B(C  10,N   6)                  1.4702         0.416844   
     11. B(H  11,C  10)                  1.0949         0.353724   
     12. B(H  12,C  10)                  1.0930         0.356203   
     13. B(C  13,C  10)                  1.5344         0.367609   
     14. B(H  14,C  13)                  1.0961         0.352084   
     15. B(H  15,C  13)                  1.0947         0.353961   
     16. B(C  16,C   7)                  1.5244         0.381341   
     17. B(N  17,C  16)                  1.3382         0.676922   
     18. B(O  18,C  16)                  1.2568         0.912683   
     19. B(C  19,N  17)                  1.4695         0.417807   
     20. B(H  20,C  19)                  1.0896         0.360626   
     21. B(H  21,C  19)                  1.0926         0.356622   
     22. B(H  22,C  19)                  1.0899         0.360167   
     23. B(C  23,N  17)                  1.4637         0.426814   
     24. B(H  24,C  23)                  1.0939         0.354932   
     25. B(H  25,C  23)                  1.0868         0.364312   
     26. B(H  26,C  23)                  1.0905         0.359456   
     27. B(C  27,C  13)                  1.5357         0.365834   
     28. B(H  28,C  27)                  1.0959         0.352436   
     29. B(H  29,C  27)                  1.0947         0.353999   
     30. B(C  30,C  27)                  1.5217         0.385162   
     31. B(H  31,C  30)                  1.0885         0.362128   
     32. B(H  32,C  30)                  1.0932         0.355904   
     33. B(N  33,C  30)                  1.5034         0.368897   
     34. B(H  34,N  33)                  1.0262         0.407675   
     35. B(H  35,N  33)                  1.0256         0.408656   
     36. B(H  36,H  25)                  3.3690         0.000016   
     37. B(H  36,N  33)                  1.0212         0.415218   
     38. A(H   2,C   0,C   4)          110.0536         0.323572   
     39. A(H   2,C   0,H   3)          108.3254         0.290195   
     40. A(H   1,C   0,H   2)          107.9762         0.289939   
     41. A(H   3,C   0,C   4)          107.0574         0.324527   
     42. A(H   1,C   0,C   4)          113.5881         0.324227   
     43. A(H   1,C   0,H   3)          109.7316         0.290756   
     44. A(C   0,C   4,O   5)          121.9721         0.433812   
     45. A(O   5,C   4,N   6)          120.9595         0.465028   
     46. A(C   0,C   4,N   6)          117.0682         0.388459   
     47. A(C   4,N   6,C  10)          123.8447         0.393317   
     48. A(C   7,N   6,C  10)          118.8814         0.373856   
     49. A(C   4,N   6,C   7)          112.3669         0.394686   
     50. A(H   8,C   7,C  16)          106.1297         0.324662   
     51. A(N   6,C   7,C  16)          112.1689         0.370490   
     52. A(N   6,C   7,H   9)          110.1142         0.328857   
     53. A(H   8,C   7,H   9)          108.0302         0.289806   
     54. A(N   6,C   7,H   8)          108.1995         0.328552   
     55. A(H   9,C   7,C  16)          111.9669         0.324961   
     56. A(H  12,C  10,C  13)          108.5649         0.322886   
     57. A(H  11,C  10,C  13)          109.7736         0.322517   
     58. A(N   6,C  10,C  13)          114.8660         0.366913   
     59. A(H  11,C  10,H  12)          106.2442         0.289530   
     60. A(N   6,C  10,H  12)          106.7246         0.327655   
     61. A(N   6,C  10,H  11)          110.2587         0.327278   
     62. A(H  14,C  13,H  15)          105.6622         0.289034   
     63. A(H  15,C  13,C  27)          110.1853         0.322296   
     64. A(C  10,C  13,H  15)          107.4788         0.322552   
     65. A(C  10,C  13,H  14)          110.6155         0.322271   
     66. A(H  14,C  13,C  27)          109.7002         0.322016   
     67. A(C  10,C  13,C  27)          112.9258         0.361061   
     68. A(N  17,C  16,O  18)          121.7567         0.466892   
     69. A(C   7,C  16,O  18)          119.1529         0.423616   
     70. A(C   7,C  16,N  17)          118.7937         0.401732   
     71. A(C  16,N  17,C  19)          123.4329         0.405637   
     72. A(C  19,N  17,C  23)          116.7534         0.374250   
     73. A(C  16,N  17,C  23)          118.7458         0.407169   
     74. A(H  21,C  19,H  22)          110.8279         0.290405   
     75. A(H  20,C  19,H  22)          108.8461         0.290915   
     76. A(N  17,C  19,H  22)          109.9590         0.328379   
     77. A(H  20,C  19,H  21)          108.0741         0.290463   
     78. A(N  17,C  19,H  21)          111.4319         0.327844   
     79. A(N  17,C  19,H  20)          107.5932         0.328448   
     80. A(H  25,C  23,H  26)          109.8469         0.291289   
     81. A(H  24,C  23,H  26)          109.4583         0.290099   
     82. A(N  17,C  23,H  26)          108.7536         0.329430   
     83. A(H  24,C  23,H  25)          109.5273         0.290710   
     84. A(N  17,C  23,H  25)          108.9593         0.330161   
     85. A(N  17,C  23,H  24)          110.2805         0.328742   
     86. A(H  29,C  27,C  30)          108.8050         0.325037   
     87. A(H  28,C  27,C  30)          109.3178         0.324800   
     88. A(C  13,C  27,C  30)          110.6637         0.363949   
     89. A(H  28,C  27,H  29)          107.5688         0.289084   
     90. A(C  13,C  27,H  29)          109.8592         0.322302   
     91. A(C  13,C  27,H  28)          110.5547         0.322069   
     92. A(H  32,C  30,N  33)          108.5025         0.321101   
     93. A(H  31,C  30,N  33)          105.0700         0.322014   
     94. A(C  27,C  30,N  33)          109.6853         0.362201   
     95. A(H  31,C  30,H  32)          109.9091         0.290561   
     96. A(C  27,C  30,H  32)          112.0975         0.325324   
     97. A(C  27,C  30,H  31)          111.3029         0.326253   
     98. A(H  34,N  33,H  35)          108.1188         0.297668   
     99. A(C  30,N  33,H  35)          112.1603         0.325686   
    100. A(C  30,N  33,H  34)          112.4063         0.325557   
    101. A(H  35,N  33,H  36)          109.3738         0.298536   
    102. A(H  34,N  33,H  36)          108.1327         0.298422   
    103. A(C  30,N  33,H  36)          106.5444         0.326541   
    104. D(O   5,C   4,C   0,H   1)   -135.7401         0.010476   
    105. D(N   6,C   4,C   0,H   2)    -77.0622         0.010476   
    106. D(N   6,C   4,C   0,H   1)     44.1281         0.010476   
    107. D(O   5,C   4,C   0,H   2)    103.0696         0.010476   
    108. D(O   5,C   4,C   0,H   3)    -14.4536         0.010476   
    109. D(N   6,C   4,C   0,H   3)    165.4147         0.010476   
    110. D(C   7,N   6,C   4,C   0)    168.3290         0.025940   
    111. D(C  10,N   6,C   4,C   0)     13.5345         0.025940   
    112. D(C   7,N   6,C   4,O   5)    -11.8013         0.025940   
    113. D(C  10,N   6,C   4,O   5)   -166.5959         0.025940   
    114. D(H   9,C   7,N   6,C  10)     96.1080         0.015414   
    115. D(H   9,C   7,N   6,C   4)    -60.0670         0.015414   
    116. D(H   8,C   7,N   6,C  10)    -21.7568         0.015414   
    117. D(C  16,C   7,N   6,C   4)     65.3407         0.015414   
    118. D(H   8,C   7,N   6,C   4)   -177.9318         0.015414   
    119. D(C  16,C   7,N   6,C  10)   -138.4843         0.015414   
    120. D(C  13,C  10,N   6,C   7)    114.4401         0.014818   
    121. D(C  13,C  10,N   6,C   4)    -92.2886         0.014818   
    122. D(H  12,C  10,N   6,C   7)     -5.9358         0.014818   
    123. D(H  12,C  10,N   6,C   4)    147.3355         0.014818   
    124. D(H  11,C  10,N   6,C   7)   -120.9128         0.014818   
    125. D(H  11,C  10,N   6,C   4)     32.3585         0.014818   
    126. D(H  15,C  13,C  10,H  12)    -47.0040         0.010812   
    127. D(C  27,C  13,C  10,H  11)   -169.5285         0.010812   
    128. D(H  15,C  13,C  10,H  11)     68.7379         0.010812   
    129. D(H  15,C  13,C  10,N   6)   -166.3605         0.010812   
    130. D(H  14,C  13,C  10,H  12)   -161.8926         0.010812   
    131. D(C  27,C  13,C  10,N   6)    -44.6269         0.010812   
    132. D(H  14,C  13,C  10,H  11)    -46.1507         0.010812   
    133. D(C  27,C  13,C  10,H  12)     74.7296         0.010812   
    134. D(H  14,C  13,C  10,N   6)     78.7509         0.010812   
    135. D(O  18,C  16,C   7,H   9)    176.5226         0.010847   
    136. D(O  18,C  16,C   7,H   8)    -65.8271         0.010847   
    137. D(O  18,C  16,C   7,N   6)     52.1367         0.010847   
    138. D(N  17,C  16,C   7,H   9)     -9.6216         0.010847   
    139. D(N  17,C  16,C   7,H   8)    108.0287         0.010847   
    140. D(N  17,C  16,C   7,N   6)   -134.0075         0.010847   
    141. D(C  23,N  17,C  16,O  18)     -1.5630         0.037672   
    142. D(C  23,N  17,C  16,C   7)   -175.2517         0.037672   
    143. D(C  19,N  17,C  16,O  18)   -169.3483         0.037672   
    144. D(C  19,N  17,C  16,C   7)     16.9630         0.037672   
    145. D(H  22,C  19,N  17,C  16)     49.4068         0.014886   
    146. D(H  21,C  19,N  17,C  23)    118.1026         0.014886   
    147. D(H  21,C  19,N  17,C  16)    -73.8873         0.014886   
    148. D(H  20,C  19,N  17,C  23)     -0.1992         0.014886   
    149. D(H  22,C  19,N  17,C  23)   -118.6033         0.014886   
    150. D(H  20,C  19,N  17,C  16)    167.8109         0.014886   
    151. D(H  26,C  23,N  17,C  19)    -47.6414         0.015532   
    152. D(H  26,C  23,N  17,C  16)    143.7630         0.015532   
    153. D(H  25,C  23,N  17,C  19)   -167.3605         0.015532   
    154. D(H  25,C  23,N  17,C  16)     24.0439         0.015532   
    155. D(H  24,C  23,N  17,C  19)     72.3924         0.015532   
    156. D(H  24,C  23,N  17,C  16)    -96.2032         0.015532   
    157. D(C  30,C  27,C  13,H  15)   -144.2747         0.010714   
    158. D(C  30,C  27,C  13,H  14)    -28.3527         0.010714   
    159. D(C  30,C  27,C  13,C  10)     95.5303         0.010714   
    160. D(H  29,C  27,C  13,H  15)     95.5588         0.010714   
    161. D(H  29,C  27,C  13,H  14)   -148.5192         0.010714   
    162. D(H  29,C  27,C  13,C  10)    -24.6362         0.010714   
    163. D(H  28,C  27,C  13,H  15)    -23.0088         0.010714   
    164. D(H  28,C  27,C  13,H  14)     92.9132         0.010714   
    165. D(H  28,C  27,C  13,C  10)   -143.2038         0.010714   
    166. D(H  31,C  30,C  27,C  13)    -46.8040         0.011808   
    167. D(N  33,C  30,C  27,H  28)     75.3594         0.011808   
    168. D(N  33,C  30,C  27,C  13)   -162.6463         0.011808   
    169. D(H  32,C  30,C  27,H  29)   -162.4499         0.011808   
    170. D(H  32,C  30,C  27,H  28)    -45.2391         0.011808   
    171. D(H  32,C  30,C  27,C  13)     76.7552         0.011808   
    172. D(H  31,C  30,C  27,H  29)     73.9909         0.011808   
    173. D(N  33,C  30,C  27,H  29)    -41.8514         0.011808   
    174. D(H  31,C  30,C  27,H  28)   -168.7984         0.011808   
    175. D(H  36,N  33,C  30,H  32)   -169.5846         0.012486   
    176. D(H  36,N  33,C  30,C  27)     67.6613         0.012486   
    177. D(H  35,N  33,C  30,H  32)     70.7691         0.012486   
    178. D(H  35,N  33,C  30,H  31)   -171.7156         0.012486   
    179. D(H  35,N  33,C  30,C  27)    -51.9850         0.012486   
    180. D(H  34,N  33,C  30,H  32)    -51.3132         0.012486   
    181. D(H  36,N  33,C  30,H  31)    -52.0692         0.012486   
    182. D(H  34,N  33,C  30,H  31)     66.2022         0.012486   
    183. D(H  34,N  33,C  30,C  27)   -174.0673         0.012486   
    -----------------------------------------------------------------

Number of atoms                         .... 37
Number of degrees of freedom            .... 183

         *************************************************************
         *                GEOMETRY OPTIMIZATION CYCLE   1            *
         *************************************************************
---------------------------------
CARTESIAN COORDINATES (ANGSTROEM)
---------------------------------
  C      0.537000   -2.326000    2.185000
  H      1.592000   -2.213000    1.931000
  H      0.290000   -3.391000    2.136000
  H      0.365000   -1.981000    3.204000
  C     -0.400000   -1.528000    1.277000
  O     -1.329000   -0.881000    1.720000
  N     -0.145000   -1.569000   -0.084000
  C     -1.243000   -1.007000   -0.874000
  H     -0.988000   -1.107000   -1.933000
  H     -2.162000   -1.569000   -0.693000
  C      0.764000   -2.535000   -0.718000
  H      0.747000   -3.485000   -0.174000
  H      0.358000   -2.744000   -1.711000
  C      2.212000   -2.052000   -0.874000
  H      2.752000   -2.138000    0.076000
  H      2.715000   -2.738000   -1.563000
  C     -1.428000    0.485000   -0.622000
  N     -2.664000    0.956000   -0.419000
  O     -0.437000    1.251000   -0.726000
  C     -3.808000    0.103000   -0.068000
  H     -4.621000    0.756000    0.248000
  H     -4.153000   -0.476000   -0.928000
  H     -3.542000   -0.554000    0.760000
  C     -2.853000    2.401000   -0.282000
  H     -2.875000    2.682000    0.775000
  H     -2.032000    2.913000   -0.777000
  H     -3.798000    2.677000   -0.751000
  C      2.309000   -0.611000   -1.396000
  H      3.161000   -0.505000   -2.077000
  H      1.404000   -0.357000   -1.957000
  C      2.462000    0.369000   -0.242000
  H      1.746000    0.161000    0.551000
  H      3.477000    0.371000    0.164000
  N      2.133000    1.759000   -0.711000
  H      2.316000    2.468000    0.008000
  H      2.657000    2.017000   -1.554000
  H      1.133000    1.767000   -0.918000

----------------------------
CARTESIAN COORDINATES (A.U.)
----------------------------
  NO LB      ZA    FRAG     MASS         X           Y           Z
   0 C     6.0000    0    12.011    1.014783   -4.395503    4.129052
   1 H     1.0000    0     1.008    3.008444   -4.181964    3.649061
   2 H     1.0000    0     1.008    0.548021   -6.408061    4.036455
   3 H     1.0000    0     1.008    0.689750   -3.743547    6.054683
   4 C     6.0000    0    12.011   -0.755890   -2.887502    2.413180
   5 O     8.0000    0    15.999   -2.511446   -1.664849    3.250329
   6 N     7.0000    0    14.007   -0.274010   -2.964980   -0.158737
   7 C     6.0000    0    12.011   -2.348930   -1.902954   -1.651621
   8 H     1.0000    0     1.008   -1.867049   -2.091927   -3.652841
   9 H     1.0000    0     1.008   -4.085588   -2.964980   -1.309580
  10 C     6.0000    0    12.011    1.443751   -4.790456   -1.356823
  11 H     1.0000    0     1.008    1.411625   -6.585696   -0.328812
  12 H     1.0000    0     1.008    0.676522   -5.185409   -3.233321
  13 C     6.0000    0    12.011    4.180074   -3.877718   -1.651621
  14 H     1.0000    0     1.008    5.200526   -4.040234    0.143619
  15 H     1.0000    0     1.008    5.130606   -5.174070   -2.953642
  16 C     6.0000    0    12.011   -2.698529    0.916517   -1.175410
  17 N     7.0000    0    14.007   -5.034230    1.806578   -0.791795
  18 O     8.0000    0    15.999   -0.825810    2.364047   -1.371941
  19 C     6.0000    0    12.011   -7.196077    0.194642   -0.128501
  20 H     1.0000    0     1.008   -8.732424    1.428633    0.468652
  21 H     1.0000    0     1.008   -7.848033   -0.899510   -1.753666
  22 H     1.0000    0     1.008   -6.693410   -1.046908    1.436192
  23 C     6.0000    0    12.011   -5.391389    4.537232   -0.532903
  24 H     1.0000    0     1.008   -5.432963    5.068245    1.464538
  25 H     1.0000    0     1.008   -3.839924    5.504772   -1.468317
  26 H     1.0000    0     1.008   -7.177180    5.058797   -1.419184
  27 C     6.0000    0    12.011    4.363378   -1.154623   -2.638058
  28 H     1.0000    0     1.008    5.973424   -0.954312   -3.924961
  29 H     1.0000    0     1.008    2.653175   -0.674632   -3.698194
  30 C     6.0000    0    12.011    4.652506    0.697309   -0.457314
  31 H     1.0000    0     1.008    3.299462    0.304246    1.041239
  32 H     1.0000    0     1.008    6.570578    0.701088    0.309915
  33 N     7.0000    0    14.007    4.030786    3.324028   -1.343595
  34 H     1.0000    0     1.008    4.376606    4.663844    0.015118
  35 H     1.0000    0     1.008    5.021002    3.811578   -2.936634
  36 H     1.0000    0     1.008    2.141060    3.339146   -1.734769

--------------------------------
INTERNAL COORDINATES (ANGSTROEM)
--------------------------------
 C      0   0   0     0.000000000000     0.00000000     0.00000000
 H      1   0   0     1.091013290478     0.00000000     0.00000000
 H      1   2   0     1.094365112748   107.97618286     0.00000000
 H      1   2   3     1.089481528067   109.73156699   117.87494490
 C      1   2   3     1.529456439393   113.58814728   237.65355204
 O      5   1   2     1.215688693704   121.97214790   224.25986563
 N      5   1   2     1.385289500429   117.06822386    44.12812406
 C      7   5   1     1.464768923756   112.36692929   168.32904474
 H      8   7   5     1.093849166933   108.19946043   182.06819462
 H      8   7   5     1.092321381279   110.11422531   299.93301232
 C      7   5   1     1.470167677512   123.84466581    13.53445241
 H     11   7   5     1.094863005129   110.25872050    32.35852290
 H     11   7   5     1.092962030448   106.72458505   147.33550226
 C     11   7   5     1.534382286133   114.86600236   267.71144879
 H     14  11   7     1.096127729783   110.61553829    78.75090962
 H     14  11   7     1.094680775386   107.47878644   193.63950386
 C      8   7   5     1.524399225925   112.16885525    65.34067213
 N     17   8   7     1.338187580274   118.79369275   225.99251770
 O     17   8   7     1.256842472230   119.15287784    52.13666255
 C     18  17   8     1.469539383617   123.43291532    16.96296205
 H     20  18  17     1.089602679879   107.59324603   167.81090057
 H     20  18  17     1.092641752817   111.43187546   286.11270426
 H     20  18  17     1.089949081379   109.95902367    49.40682287
 C     18  17   8     1.463733240724   118.74577687   184.74829010
 H     24  18  17     1.093935098623   110.28048706   263.79679571
 H     24  18  17     1.086834854060   108.95926091    24.04391069
 H     24  18  17     1.090487047149   108.75364166   143.76299622
 C     14  11   7     1.535699840464   112.92583170   315.37307407
 H     28  14  11     1.095856286198   110.55474131   216.79623231
 H     28  14  11     1.094651542729   109.85918489   335.36380942
 C     28  14  11     1.521684921395   110.66369913    95.53031924
 H     31  28  14     1.088470945869   111.30287444   313.19598654
 H     31  28  14     1.093190285357   112.09751897    76.75522782
 N     31  28  14     1.503430078188   109.68532654   197.35369857
 H     34  31  28     1.026221710938   112.40628965   185.93270089
 H     34  31  28     1.025567647696   112.16026821   308.01497662
 H     34  31  28     1.021231119777   106.54438066    67.66130505

---------------------------
INTERNAL COORDINATES (A.U.)
---------------------------
 C      0   0   0     0.000000000000     0.00000000     0.00000000
 H      1   0   0     2.061716327472     0.00000000     0.00000000
 H      1   2   0     2.068050353612   107.97618286     0.00000000
 H      1   2   3     2.058821716013   109.73156699   117.87494490
 C      1   2   3     2.890253804215   113.58814728   237.65355204
 O      5   1   2     2.297318695205   121.97214790   224.25986563
 N      5   1   2     2.617817772008   117.06822386    44.12812406
 C      7   5   1     2.768012115377   112.36692929   168.32904474
 H      8   7   5     2.067075357321   108.19946043   182.06819462
 H      8   7   5     2.064188260845   110.11422531   299.93301232
 C      7   5   1     2.778214281440   123.84466581    13.53445241
 H     11   7   5     2.068991233856   110.25872050    32.35852290
 H     11   7   5     2.065398912320   106.72458505   147.33550226
 C     11   7   5     2.899562305532   114.86600236   267.71144879
 H     14  11   7     2.071381217087   110.61553829    78.75090962
 H     14  11   7     2.068646869548   107.47878644   193.63950386
 C      8   7   5     2.880697055759   112.16885525    65.34067213
 N     17   8   7     2.528808042533   118.79369275   225.99251770
 O     17   8   7     2.375088065994   119.15287784    52.13666255
 C     18  17   8     2.777026978047   123.43291532    16.96296205
 H     20  18  17     2.059050659758   107.59324603   167.81090057
 H     20  18  17     2.064793675313   111.43187546   286.11270426
 H     20  18  17     2.059705263726   109.95902367    49.40682287
 C     18  17   8     2.766054958085   118.74577687   184.74829010
 H     24  18  17     2.067237744682   110.28048706   263.79679571
 H     24  18  17     2.053820226974   108.95926091    24.04391069
 H     24  18  17     2.060721871700   108.75364166   143.76299622
 C     14  11   7     2.902052122383   112.92583170   315.37307407
 H     28  14  11     2.070868263051   110.55474131   216.79623231
 H     28  14  11     2.068591627833   109.85918489   335.36380942
 C     28  14  11     2.875567763553   110.66369913    95.53031924
 H     31  28  14     2.056911992422   111.30287444   313.19598654
 H     31  28  14     2.065830251589   112.09751897    76.75522782
 N     31  28  14     2.841071109275   109.68532654   197.35369857
 H     34  31  28     1.939277986356   112.40628965   185.93270089
 H     34  31  28     1.938041985955   112.16026821   308.01497662
 H     34  31  28     1.929847135815   106.54438066    67.66130505

---------------------
BASIS SET INFORMATION
---------------------
There are 4 groups of distinct atoms

 Group   1 Type C   : 11s5p1d contracted to 4s3p1d pattern {6311/311/1}
 Group   2 Type H   : 4s contracted to 2s pattern {31}
 Group   3 Type O   : 11s5p1d contracted to 4s3p1d pattern {6311/311/1}
 Group   4 Type N   : 11s5p1d contracted to 4s3p1d pattern {6311/311/1}

Atom   0C    basis set group =>   1
Atom   1H    basis set group =>   2
Atom   2H    basis set group =>   2
Atom   3H    basis set group =>   2
Atom   4C    basis set group =>   1
Atom   5O    basis set group =>   3
Atom   6N    basis set group =>   4
Atom   7C    basis set group =>   1
Atom   8H    basis set group =>   2
Atom   9H    basis set group =>   2
Atom  10C    basis set group =>   1
Atom  11H    basis set group =>   2
Atom  12H    basis set group =>   2
Atom  13C    basis set group =>   1
Atom  14H    basis set group =>   2
Atom  15H    basis set group =>   2
Atom  16C    basis set group =>   1
Atom  17N    basis set group =>   4
Atom  18O    basis set group =>   3
Atom  19C    basis set group =>   1
Atom  20H    basis set group =>   2
Atom  21H    basis set group =>   2
Atom  22H    basis set group =>   2
Atom  23C    basis set group =>   1
Atom  24H    basis set group =>   2
Atom  25H    basis set group =>   2
Atom  26H    basis set group =>   2
Atom  27C    basis set group =>   1
Atom  28H    basis set group =>   2
Atom  29H    basis set group =>   2
Atom  30C    basis set group =>   1
Atom  31H    basis set group =>   2
Atom  32H    basis set group =>   2
Atom  33N    basis set group =>   4
Atom  34H    basis set group =>   2
Atom  35H    basis set group =>   2
Atom  36H    basis set group =>   2
---------------------------------
AUXILIARY/J BASIS SET INFORMATION
---------------------------------
There are 4 groups of distinct atoms

 Group   1 Type C   : 16s13p12d2f contracted to 16s13p12d2f pattern {1111111111111111/1111111111111/111111111111/11}
 Group   2 Type H   : 9s2p contracted to 9s2p pattern {111111111/11}
 Group   3 Type O   : 16s13p12d3f contracted to 16s13p12d3f pattern {1111111111111111/1111111111111/111111111111/111}
 Group   4 Type N   : 16s13p12d3f contracted to 16s13p12d3f pattern {1111111111111111/1111111111111/111111111111/111}

Atom   0C    basis set group =>   1
Atom   1H    basis set group =>   2
Atom   2H    basis set group =>   2
Atom   3H    basis set group =>   2
Atom   4C    basis set group =>   1
Atom   5O    basis set group =>   3
Atom   6N    basis set group =>   4
Atom   7C    basis set group =>   1
Atom   8H    basis set group =>   2
Atom   9H    basis set group =>   2
Atom  10C    basis set group =>   1
Atom  11H    basis set group =>   2
Atom  12H    basis set group =>   2
Atom  13C    basis set group =>   1
Atom  14H    basis set group =>   2
Atom  15H    basis set group =>   2
Atom  16C    basis set group =>   1
Atom  17N    basis set group =>   4
Atom  18O    basis set group =>   3
Atom  19C    basis set group =>   1
Atom  20H    basis set group =>   2
Atom  21H    basis set group =>   2
Atom  22H    basis set group =>   2
Atom  23C    basis set group =>   1
Atom  24H    basis set group =>   2
Atom  25H    basis set group =>   2
Atom  26H    basis set group =>   2
Atom  27C    basis set group =>   1
Atom  28H    basis set group =>   2
Atom  29H    basis set group =>   2
Atom  30C    basis set group =>   1
Atom  31H    basis set group =>   2
Atom  32H    basis set group =>   2
Atom  33N    basis set group =>   4
Atom  34H    basis set group =>   2
Atom  35H    basis set group =>   2
Atom  36H    basis set group =>   2
---------------------------------
AUXILIARY/C BASIS SET INFORMATION
---------------------------------
There are 4 groups of distinct atoms

 Group   1 Type C   : 16s13p12d2f contracted to 16s13p12d2f pattern {1111111111111111/1111111111111/111111111111/11}
 Group   2 Type H   : 9s2p contracted to 9s2p pattern {111111111/11}
 Group   3 Type O   : 16s13p12d3f contracted to 16s13p12d3f pattern {1111111111111111/1111111111111/111111111111/111}
 Group   4 Type N   : 16s13p12d3f contracted to 16s13p12d3f pattern {1111111111111111/1111111111111/111111111111/111}

Atom   0C    basis set group =>   1
Atom   1H    basis set group =>   2
Atom   2H    basis set group =>   2
Atom   3H    basis set group =>   2
Atom   4C    basis set group =>   1
Atom   5O    basis set group =>   3
Atom   6N    basis set group =>   4
Atom   7C    basis set group =>   1
Atom   8H    basis set group =>   2
Atom   9H    basis set group =>   2
Atom  10C    basis set group =>   1
Atom  11H    basis set group =>   2
Atom  12H    basis set group =>   2
Atom  13C    basis set group =>   1
Atom  14H    basis set group =>   2
Atom  15H    basis set group =>   2
Atom  16C    basis set group =>   1
Atom  17N    basis set group =>   4
Atom  18O    basis set group =>   3
Atom  19C    basis set group =>   1
Atom  20H    basis set group =>   2
Atom  21H    basis set group =>   2
Atom  22H    basis set group =>   2
Atom  23C    basis set group =>   1
Atom  24H    basis set group =>   2
Atom  25H    basis set group =>   2
Atom  26H    basis set group =>   2
Atom  27C    basis set group =>   1
Atom  28H    basis set group =>   2
Atom  29H    basis set group =>   2
Atom  30C    basis set group =>   1
Atom  31H    basis set group =>   2
Atom  32H    basis set group =>   2
Atom  33N    basis set group =>   4
Atom  34H    basis set group =>   2
Atom  35H    basis set group =>   2
Atom  36H    basis set group =>   2
----------------------------------
AUXILIARY/JK BASIS SET INFORMATION
----------------------------------
There are 4 groups of distinct atoms

 Group   1 Type C   : 16s13p12d2f contracted to 16s13p12d2f pattern {1111111111111111/1111111111111/111111111111/11}
 Group   2 Type H   : 9s2p contracted to 9s2p pattern {111111111/11}
 Group   3 Type O   : 16s13p12d3f contracted to 16s13p12d3f pattern {1111111111111111/1111111111111/111111111111/111}
 Group   4 Type N   : 16s13p12d3f contracted to 16s13p12d3f pattern {1111111111111111/1111111111111/111111111111/111}

Atom   0C    basis set group =>   1
Atom   1H    basis set group =>   2
Atom   2H    basis set group =>   2
Atom   3H    basis set group =>   2
Atom   4C    basis set group =>   1
Atom   5O    basis set group =>   3
Atom   6N    basis set group =>   4
Atom   7C    basis set group =>   1
Atom   8H    basis set group =>   2
Atom   9H    basis set group =>   2
Atom  10C    basis set group =>   1
Atom  11H    basis set group =>   2
Atom  12H    basis set group =>   2
Atom  13C    basis set group =>   1
Atom  14H    basis set group =>   2
Atom  15H    basis set group =>   2
Atom  16C    basis set group =>   1
Atom  17N    basis set group =>   4
Atom  18O    basis set group =>   3
Atom  19C    basis set group =>   1
Atom  20H    basis set group =>   2
Atom  21H    basis set group =>   2
Atom  22H    basis set group =>   2
Atom  23C    basis set group =>   1
Atom  24H    basis set group =>   2
Atom  25H    basis set group =>   2
Atom  26H    basis set group =>   2
Atom  27C    basis set group =>   1
Atom  28H    basis set group =>   2
Atom  29H    basis set group =>   2
Atom  30C    basis set group =>   1
Atom  31H    basis set group =>   2
Atom  32H    basis set group =>   2
Atom  33N    basis set group =>   4
Atom  34H    basis set group =>   2
Atom  35H    basis set group =>   2
Atom  36H    basis set group =>   2


           ************************************************************
           *        Program running with 4 parallel MPI-processes     *
           *              working on a common directory               *
           ************************************************************
------------------------------------------------------------------------------
                           ORCA GTO INTEGRAL CALCULATION
                           -- RI-GTO INTEGRALS CHOSEN --
------------------------------------------------------------------------------
------------------------------------------------------------------------------
                   ___                                                        
                  /   \      - P O W E R E D   B Y -                         
                 /     \                                                     
                 |  |  |   _    _      __       _____    __    __             
                 |  |  |  | |  | |    /  \     |  _  \  |  |  /  |          
                  \  \/   | |  | |   /    \    | | | |  |  | /  /          
                 / \  \   | |__| |  /  /\  \   | |_| |  |  |/  /          
                |  |  |   |  __  | /  /__\  \  |    /   |      \           
                |  |  |   | |  | | |   __   |  |    \   |  |\   \          
                \     /   | |  | | |  |  |  |  | |\  \  |  | \   \       
                 \___/    |_|  |_| |__|  |__|  |_| \__\ |__|  \__/        
                                                                              
                      - O R C A' S   B I G   F R I E N D -                    
                                      &                                       
                       - I N T E G R A L  F E E D E R -                       
                                                                              
 v1 FN, 2020, v2 2021                                                         
------------------------------------------------------------------------------


Reading SHARK input file Nk_octanol.SHARKINP.tmp ... ok
----------------------
SHARK INTEGRAL PACKAGE
----------------------

Number of atoms                             ...     37
Number of basis functions                   ...    314
Number of shells                            ...    164
Maximum angular momentum                    ...      2
Integral batch strategy                     ... SHARK/LIBINT Hybrid
RI-J (if used) integral strategy            ... SPLIT-RIJ (Revised 2003 algorithm where possible)
Printlevel                                  ...      1
Contraction scheme used                     ... SEGMENTED contraction
Coulomb Range Separation                    ... NOT USED
Exchange Range Separation                   ... NOT USED
Finite Nucleus Model                        ... NOT USED
Auxiliary Coulomb fitting basis             ... AVAILABLE
   # of basis functions in Aux-J            ...   2300
   # of shells in Aux-J                     ...    892
   Maximum angular momentum in Aux-J        ...      3
Auxiliary J/K fitting basis                 ... AVAILABLE
   # of basis functions in Aux-JK           ...   2300
   # of shells in Aux-JK                    ...    892
   Maximum angular momentum in Aux-JK       ...      3
Auxiliary Correlation fitting basis         ... AVAILABLE
   # of basis functions in Aux-C            ...   2300
   # of shells in Aux-C                     ...    892
   Maximum angular momentum in Aux-C        ...      3
Auxiliary 'external' fitting basis          ... NOT available
Integral threshold                          ...     2.500000e-11
Primitive cut-off                           ...     2.500000e-12
Primitive pair pre-selection threshold      ...     2.500000e-12

Calculating pre-screening integrals         ... done (  0.0 sec) Dimension = 164
Organizing shell pair data                  ... done (  2.0 sec)
Shell pair information
Total number of shell pairs                 ...     13530
Shell pairs after pre-screening             ...     12255
Total number of primitive shell pairs       ...     59377
Primitive shell pairs kept                  ...     34650
          la=0 lb=0:   4770 shell pairs
          la=1 lb=0:   4445 shell pairs
          la=1 lb=1:   1019 shell pairs
          la=2 lb=0:   1289 shell pairs
          la=2 lb=1:    633 shell pairs
          la=2 lb=2:     99 shell pairs

Calculating one electron integrals          ... done (  0.0 sec)
Calculating RI/J V-Matrix + Cholesky decomp.... done (  0.4 sec)
Calculating RI/JK V-Matrix + Cholesky decomp... done (  0.4 sec)
Calculating RI/C V-Matrix + Cholesky decomp.... done (  0.3 sec)
Calculating Nuclear repulsion               ... done (  0.0 sec) ENN=   1155.740169695379 Eh

SHARK setup successfully completed in   3.6 seconds

Maximum memory used throughout the entire GTOINT-calculation: 47.7 MB


           ************************************************************
           *        Program running with 4 parallel MPI-processes     *
           *              working on a common directory               *
           ************************************************************
-------------------------------------------------------------------------------
                                 ORCA SCF
-------------------------------------------------------------------------------

------------
SCF SETTINGS
------------
Hamiltonian:
 Density Functional     Method          .... DFT(GTOs)
 Exchange Functional    Exchange        .... B88
   X-Alpha parameter    XAlpha          ....  0.666667
   Becke's b parameter  XBeta           ....  0.004200
 Correlation Functional Correlation     .... LYP
 LDA part of GGA corr.  LDAOpt          .... VWN-5
 Gradients option       PostSCFGGA      .... off
 Hybrid DFT is turned on
   Fraction HF Exchange ScalHFX         ....  0.200000
   Scaling of DF-GGA-X  ScalDFX         ....  0.720000
   Scaling of DF-GGA-C  ScalDFC         ....  0.810000
   Scaling of DF-LDA-C  ScalLDAC        ....  1.000000
   Perturbative correction              ....  0.000000
   Density functional embedding theory  .... OFF
   NL short-range parameter             ....  4.800000
 RI-approximation to the Coulomb term is turned on
   Number of AuxJ basis functions       .... 2300
   RIJ-COSX (HFX calculated with COS-X)).... on


General Settings:
 Integral files         IntName         .... Nk_octanol
 Hartree-Fock type      HFTyp           .... RHF
 Total Charge           Charge          ....    1
 Multiplicity           Mult            ....    1
 Number of Electrons    NEL             ....  118
 Basis Dimension        Dim             ....  314
 Nuclear Repulsion      ENuc            ....   1155.7401696954 Eh

Convergence Acceleration:
 DIIS                   CNVDIIS         .... on
   Start iteration      DIISMaxIt       ....    12
   Startup error        DIISStart       ....  0.200000
   # of expansion vecs  DIISMaxEq       ....     5
   Bias factor          DIISBfac        ....   1.050
   Max. coefficient     DIISMaxC        ....  10.000
 Trust-Rad. Augm. Hess. CNVTRAH         .... auto
   Auto Start mean grad. ratio tolernc. ....  1.125000
   Auto Start start iteration           ....    20
   Auto Start num. interpolation iter.  ....    10
   Max. Number of Micro iterations      ....    16
   Max. Number of Macro iterations      .... Maxiter - #DIIS iter
   Number of Davidson start vectors     ....     2
   Converg. threshold I  (grad. norm)   ....   1.000e-05
   Converg. threshold II (energy diff.) ....   1.000e-08
   Grad. Scal. Fac. for Micro threshold ....   0.100
   Minimum threshold for Micro iter.    ....   0.010
   NR start threshold (gradient norm)   ....   0.001
   Initial trust radius                 ....   0.400
   Minimum AH scaling param. (alpha)    ....   1.000
   Maximum AH scaling param. (alpha)    .... 1000.000
   Orbital update algorithm             .... Taylor
   White noise on init. David. guess    .... on
   Maximum white noise                  ....   0.010
   Quad. conv. algorithm                .... NR
 SOSCF                  CNVSOSCF        .... on
   Start iteration      SOSCFMaxIt      ....   150
   Startup grad/error   SOSCFStart      ....  0.003300
 Level Shifting         CNVShift        .... on
   Level shift para.    LevelShift      ....    0.2500
   Turn off err/grad.   ShiftErr        ....    0.0010
 Zerner damping         CNVZerner       .... off
 Static damping         CNVDamp         .... on
   Fraction old density DampFac         ....    0.7000
   Max. Damping (<1)    DampMax         ....    0.9800
   Min. Damping (>=0)   DampMin         ....    0.0000
   Turn off err/grad.   DampErr         ....    0.1000
 Fernandez-Rico         CNVRico         .... off

SCF Procedure:
 Maximum # iterations   MaxIter         ....   125
 SCF integral mode      SCFMode         .... Direct
   Integral package                     .... SHARK and LIBINT hybrid scheme
 Reset frequency        DirectResetFreq ....    20
 Integral Threshold     Thresh          ....  2.500e-11 Eh
 Primitive CutOff       TCut            ....  2.500e-12 Eh

Convergence Tolerance:
 Convergence Check Mode ConvCheckMode   .... Total+1el-Energy
 Convergence forced     ConvForced      .... 0
 Energy Change          TolE            ....  1.000e-08 Eh
 1-El. energy change                    ....  1.000e-05 Eh
 Orbital Gradient       TolG            ....  1.000e-05
 Orbital Rotation angle TolX            ....  1.000e-05
 DIIS Error             TolErr          ....  5.000e-07


Diagonalization of the overlap matrix:
Smallest eigenvalue                        ... 1.130e-05
Time for diagonalization                   ...    0.020 sec
Threshold for overlap eigenvalues          ... 1.000e-08
Number of eigenvalues below threshold      ... 0
Time for construction of square roots      ...    0.009 sec
Total time needed                          ...    0.031 sec

Time for model grid setup =    0.364 sec

------------------------------
INITIAL GUESS: MODEL POTENTIAL
------------------------------
Loading Hartree-Fock densities                     ... done
Calculating cut-offs                               ... done
Initializing the effective Hamiltonian             ... done
Setting up the integral package (SHARK)            ... done
Starting the Coulomb interaction                   ... done (   0.4 sec)
Reading the grid                                   ... done
Mapping shells                                     ... done
Starting the XC term evaluation                    ... done (   0.3 sec)
  promolecular density results
     # of electrons  =    118.987531756
     EX              =    -94.166701210
     EC              =     -3.993614993
     EX+EC           =    -98.160316202
Transforming the Hamiltonian                       ... done (   0.0 sec)
Diagonalizing the Hamiltonian                      ... done (   0.0 sec)
Back transforming the eigenvectors                 ... done (   0.0 sec)
Now organizing SCF variables                       ... done
                      ------------------
                      INITIAL GUESS DONE (   1.1 sec)
                      ------------------
-------------------
DFT GRID GENERATION
-------------------

General Integration Accuracy     IntAcc      ... 4.388
Radial Grid Type                 RadialGrid  ... OptM3 with GC (2021)
Angular Grid (max. ang.)         AngularGrid ... 4 (Lebedev-302)
Angular grid pruning method      GridPruning ... 4 (adaptive)
Weight generation scheme         WeightScheme... Becke
Basis function cutoff            BFCut       ... 1.0000e-11
Integration weight cutoff        WCut        ... 1.0000e-14
Angular grids for H and He will be reduced by one unit
Partially contracted basis set               ... off
Rotationally invariant grid construction     ... off

Total number of grid points                  ...   162663
Total number of batches                      ...     2560
Average number of points per batch           ...       63
Average number of grid points per atom       ...     4396
Time for grid setup =    1.697 sec

--------------------
COSX GRID GENERATION
--------------------

GRIDX 1
-------
General Integration Accuracy     IntAcc      ... 3.816
Radial Grid Type                 RadialGrid  ... OptM3 with GC (2021)
Angular Grid (max. ang.)         AngularGrid ... 1 (Lebedev-50)
Angular grid pruning method      GridPruning ... 4 (adaptive)
Weight generation scheme         WeightScheme... Becke
Basis function cutoff            BFCut       ... 1.0000e-11
Integration weight cutoff        WCut        ... 1.0000e-14
Angular grids for H and He will be reduced by one unit
Partially contracted basis set               ... on
Rotationally invariant grid construction     ... off

Total number of grid points                  ...    20784
Total number of batches                      ...      343
Average number of points per batch           ...       60
Average number of grid points per atom       ...      562
UseSFitting                                  ... on

GRIDX 2
-------
General Integration Accuracy     IntAcc      ... 4.020
Radial Grid Type                 RadialGrid  ... OptM3 with GC (2021)
Angular Grid (max. ang.)         AngularGrid ... 2 (Lebedev-110)
Angular grid pruning method      GridPruning ... 4 (adaptive)
Weight generation scheme         WeightScheme... Becke
Basis function cutoff            BFCut       ... 1.0000e-11
Integration weight cutoff        WCut        ... 1.0000e-14
Angular grids for H and He will be reduced by one unit
Partially contracted basis set               ... on
Rotationally invariant grid construction     ... off

Total number of grid points                  ...    45980
Total number of batches                      ...      734
Average number of points per batch           ...       62
Average number of grid points per atom       ...     1243
UseSFitting                                  ... on

GRIDX 3
-------
General Integration Accuracy     IntAcc      ... 4.338
Radial Grid Type                 RadialGrid  ... OptM3 with GC (2021)
Angular Grid (max. ang.)         AngularGrid ... 3 (Lebedev-194)
Angular grid pruning method      GridPruning ... 4 (adaptive)
Weight generation scheme         WeightScheme... Becke
Basis function cutoff            BFCut       ... 1.0000e-11
Integration weight cutoff        WCut        ... 1.0000e-14
Angular grids for H and He will be reduced by one unit
Partially contracted basis set               ... on
Rotationally invariant grid construction     ... off

Total number of grid points                  ...    98916
Total number of batches                      ...     1564
Average number of points per batch           ...       63
Average number of grid points per atom       ...     2673
UseSFitting                                  ... on

Time for X-Grid setup             =    2.587 sec


--------------------
CPCM SOLVATION MODEL
--------------------
CPCM parameters:
  Epsilon                                         ...       9.8629
  Refrac                                          ...       1.4295
  Rsolv                                           ...       1.3000
  Surface type                                    ... GAUSSIAN VDW
  Epsilon function type                           ...         CPCM
Radii:
 Radius for C  used is    3.8550 Bohr (=   2.0400 Ang.)
 Radius for H  used is    2.4944 Bohr (=   1.3200 Ang.)
 Radius for O  used is    3.4469 Bohr (=   1.8240 Ang.)
 Radius for N  used is    3.5149 Bohr (=   1.8600 Ang.)
Calculating surface                               ...        done! (  0.0s)
GEPOL surface points                              ...         1909
GEPOL Volume                                      ...    1853.4598
GEPOL Surface-area                                ...     953.5907
Calculating surface distance matrix               ...        done! (  0.0s)
Performing Cholesky decomposition & store         ...        done! (  0.1s)
Overall time for CPCM initialization              ...                 0.2s
--------------
SCF ITERATIONS
--------------
ITER       Energy         Delta-E        Max-DP      RMS-DP      [F,P]     Damp
               ***  Starting incremental Fock matrix formation  ***
  0   -708.0682997014   0.000000000000 0.11806967  0.00239887  0.2673397 0.7000
  1   -708.2636025291  -0.195302827673 0.08205125  0.00179680  0.1081932 0.7000
                               ***Turning on DIIS***
  2   -708.3380455135  -0.074442984418 0.15186524  0.00317480  0.0349695 0.0000
  3   -708.4562068998  -0.118161386313 0.11811965  0.00139267  0.0538259 0.0000
  4   -708.4822954726  -0.026088572841 0.04846625  0.00054156  0.0104123 0.0000
  5   -708.4837629943  -0.001467521679 0.01663140  0.00021743  0.0057347 0.0000
                      *** Initiating the SOSCF procedure ***
                           *** Shutting down DIIS ***
                      *** Re-Reading the Fockian *** 
                      *** Removing any level shift *** 
ITER      Energy       Delta-E        Grad      Rot      Max-DP    RMS-DP
  6   -708.48388274  -0.0001197421  0.000253  0.000253  0.012905  0.000158
               *** Restarting incremental Fock matrix formation ***
  7   -708.48390355  -0.0000208108  0.000246  0.000966  0.002008  0.000058
  8   -708.48389602   0.0000075267  0.000479  0.000682  0.002281  0.000029
  9   -708.48390759  -0.0000115701  0.000044  0.000126  0.001016  0.000012
 10   -708.48390725   0.0000003394  0.000086  0.000082  0.000515  0.000007
 11   -708.48390775  -0.0000004987  0.000005  0.000007  0.001759  0.000014
 12   -708.48390777  -0.0000000198  0.000005  0.000003  0.000399  0.000004
                  ***Gradient check signals convergence***
              ***Rediagonalizing the Fockian in SOSCF/NRSCF***

               *****************************************************
               *                     SUCCESS                       *
               *           SCF CONVERGED AFTER  13 CYCLES          *
               *****************************************************

Old exchange energy                            =    -19.155894928 Eh
New exchange energy                            =    -19.155872135 Eh
Exchange energy change after final integration =      0.000022793 Eh
Total energy after final integration           =   -708.483884945 Eh
Final COS-X integration done in                =    19.206 sec

----------------
TOTAL SCF ENERGY
----------------

Total Energy       :         -708.48388494 Eh          -19278.82663 eV

Components:
Nuclear Repulsion  :         1155.74016970 Eh           31449.28887 eV
Electronic Energy  :        -1864.22405464 Eh          -50728.11549 eV
One Electron Energy:        -3241.24170630 Eh          -88198.67076 eV
Two Electron Energy:         1377.01765166 Eh           37470.55527 eV
Max COSX asymmetry :            0.00001085 Eh               0.00030 eV
CPCM Dielectric    :           -0.08730002 Eh              -2.37555 eV

Virial components:
Potential Energy   :        -1412.78524844 Eh          -38443.84106 eV
Kinetic Energy     :          704.30136350 Eh           19165.01443 eV
Virial Ratio       :            2.00593854


DFT components:
N(Alpha)           :       58.999906058909 electrons
N(Beta)            :       58.999906058909 electrons
N(Total)           :      117.999812117819 electrons
E(X)               :      -76.048397703817 Eh       
E(C)               :       -4.668331935555 Eh       
E(XC)              :      -80.716729639373 Eh       
DFET-embed. en.    :        0.000000000000 Eh       
CPCM Solvation Model Properties:
Surface-charge          :           -1.02962971
Charge-correction       :            0.00295673 Eh               0.08046 eV
Free-energy (cav+disp)  :  This term is not implemented in the current solvation scheme

---------------
SCF CONVERGENCE
---------------

  Last Energy change         ...    3.1754e-08  Tolerance :   1.0000e-08
  Last MAX-Density change    ...    3.9968e-15  Tolerance :   1.0000e-07
  Last RMS-Density change    ...    4.0063e-17  Tolerance :   5.0000e-09
  Last Orbital Gradient      ...    4.5949e-07  Tolerance :   1.0000e-05
  Last Orbital Rotation      ...    1.3735e-06  Tolerance :   1.0000e-05

             **** THE GBW FILE WAS UPDATED (Nk_octanol.gbw) ****
             **** DENSITY Nk_octanol.scfp WAS UPDATED ****
             **** ENERGY FILE WAS UPDATED (Nk_octanol.en.tmp) ****
             **** THE GBW FILE WAS UPDATED (Nk_octanol.gbw) ****
             **** DENSITY Nk_octanol.scfp WAS UPDATED ****
----------------
ORBITAL ENERGIES
----------------

  NO   OCC          E(Eh)            E(eV) 
   0   2.0000     -19.143339      -520.9167 
   1   2.0000     -19.139311      -520.8071 
   2   2.0000     -14.434940      -392.7947 
   3   2.0000     -14.385352      -391.4453 
   4   2.0000     -14.378220      -391.2513 
   5   2.0000     -10.308482      -280.5081 
   6   2.0000     -10.305142      -280.4172 
   7   2.0000     -10.245223      -278.7867 
   8   2.0000     -10.235204      -278.5140 
   9   2.0000     -10.229456      -278.3576 
  10   2.0000     -10.215977      -277.9909 
  11   2.0000     -10.213272      -277.9173 
  12   2.0000     -10.198775      -277.5228 
  13   2.0000     -10.194074      -277.3948 
  14   2.0000     -10.189048      -277.2581 
  15   2.0000      -1.072063       -29.1723 
  16   2.0000      -1.054482       -28.6939 
  17   2.0000      -0.999052       -27.1856 
  18   2.0000      -0.952737       -25.9253 
  19   2.0000      -0.951580       -25.8938 
  20   2.0000      -0.817933       -22.2571 
  21   2.0000      -0.778410       -21.1816 
  22   2.0000      -0.751611       -20.4524 
  23   2.0000      -0.736420       -20.0390 
  24   2.0000      -0.725852       -19.7514 
  25   2.0000      -0.692145       -18.8342 
  26   2.0000      -0.671439       -18.2708 
  27   2.0000      -0.624893       -17.0042 
  28   2.0000      -0.598375       -16.2826 
  29   2.0000      -0.574887       -15.6435 
  30   2.0000      -0.561380       -15.2759 
  31   2.0000      -0.540028       -14.6949 
  32   2.0000      -0.530437       -14.4339 
  33   2.0000      -0.519959       -14.1488 
  34   2.0000      -0.512227       -13.9384 
  35   2.0000      -0.490052       -13.3350 
  36   2.0000      -0.483931       -13.1684 
  37   2.0000      -0.480373       -13.0716 
  38   2.0000      -0.475351       -12.9349 
  39   2.0000      -0.459042       -12.4912 
  40   2.0000      -0.447736       -12.1835 
  41   2.0000      -0.435168       -11.8415 
  42   2.0000      -0.427095       -11.6218 
  43   2.0000      -0.424252       -11.5445 
  44   2.0000      -0.417585       -11.3631 
  45   2.0000      -0.414472       -11.2784 
  46   2.0000      -0.406302       -11.0560 
  47   2.0000      -0.404675       -11.0118 
  48   2.0000      -0.396997       -10.8028 
  49   2.0000      -0.390064       -10.6142 
  50   2.0000      -0.389235       -10.5916 
  51   2.0000      -0.368191       -10.0190 
  52   2.0000      -0.366803        -9.9812 
  53   2.0000      -0.358681        -9.7602 
  54   2.0000      -0.351895        -9.5755 
  55   2.0000      -0.288603        -7.8533 
  56   2.0000      -0.284145        -7.7320 
  57   2.0000      -0.264916        -7.2087 
  58   2.0000      -0.261869        -7.1258 
  59   0.0000      -0.014367        -0.3909 
  60   0.0000      -0.009039        -0.2460 
  61   0.0000      -0.007054        -0.1920 
  62   0.0000       0.004770         0.1298 
  63   0.0000       0.006083         0.1655 
  64   0.0000       0.010015         0.2725 
  65   0.0000       0.020895         0.5686 
  66   0.0000       0.026657         0.7254 
  67   0.0000       0.031173         0.8483 
  68   0.0000       0.033947         0.9237 
  69   0.0000       0.038965         1.0603 
  70   0.0000       0.047474         1.2918 
  71   0.0000       0.050343         1.3699 
  72   0.0000       0.053551         1.4572 
  73   0.0000       0.061185         1.6649 
  74   0.0000       0.063530         1.7287 
  75   0.0000       0.070500         1.9184 
  76   0.0000       0.076638         2.0854 
  77   0.0000       0.079612         2.1663 
  78   0.0000       0.081429         2.2158 
  79   0.0000       0.083241         2.2651 
  80   0.0000       0.088440         2.4066 
  81   0.0000       0.093521         2.5448 
  82   0.0000       0.098128         2.6702 
  83   0.0000       0.104022         2.8306 
  84   0.0000       0.107125         2.9150 
  85   0.0000       0.115115         3.1324 
  86   0.0000       0.117822         3.2061 
  87   0.0000       0.123219         3.3530 
  88   0.0000       0.126639         3.4460 
  89   0.0000       0.128268         3.4903 
  90   0.0000       0.134936         3.6718 
  91   0.0000       0.136159         3.7051 
  92   0.0000       0.142857         3.8873 
  93   0.0000       0.150774         4.1028 
  94   0.0000       0.155855         4.2410 
  95   0.0000       0.159378         4.3369 
  96   0.0000       0.164033         4.4636 
  97   0.0000       0.166641         4.5345 
  98   0.0000       0.167820         4.5666 
  99   0.0000       0.172342         4.6897 
 100   0.0000       0.176539         4.8039 
 101   0.0000       0.182571         4.9680 
 102   0.0000       0.186982         5.0880 
 103   0.0000       0.188395         5.1265 
 104   0.0000       0.190522         5.1844 
 105   0.0000       0.192986         5.2514 
 106   0.0000       0.201114         5.4726 
 107   0.0000       0.205305         5.5866 
 108   0.0000       0.207685         5.6514 
 109   0.0000       0.210477         5.7274 
 110   0.0000       0.215105         5.8533 
 111   0.0000       0.218063         5.9338 
 112   0.0000       0.223095         6.0707 
 113   0.0000       0.225716         6.1420 
 114   0.0000       0.231364         6.2957 
 115   0.0000       0.233204         6.3458 
 116   0.0000       0.236114         6.4250 
 117   0.0000       0.240197         6.5361 
 118   0.0000       0.243487         6.6256 
 119   0.0000       0.251662         6.8481 
 120   0.0000       0.257526         7.0076 
 121   0.0000       0.264357         7.1935 
 122   0.0000       0.266359         7.2480 
 123   0.0000       0.271361         7.3841 
 124   0.0000       0.275111         7.4861 
 125   0.0000       0.281392         7.6571 
 126   0.0000       0.284290         7.7359 
 127   0.0000       0.290432         7.9031 
 128   0.0000       0.296654         8.0724 
 129   0.0000       0.305150         8.3036 
 130   0.0000       0.308906         8.4058 
 131   0.0000       0.316061         8.6005 
 132   0.0000       0.319543         8.6952 
 133   0.0000       0.329562         8.9679 
 134   0.0000       0.332482         9.0473 
 135   0.0000       0.336190         9.1482 
 136   0.0000       0.340682         9.2704 
 137   0.0000       0.344513         9.3747 
 138   0.0000       0.360383         9.8065 
 139   0.0000       0.363392         9.8884 
 140   0.0000       0.365216         9.9380 
 141   0.0000       0.376217        10.2374 
 142   0.0000       0.381034        10.3685 
 143   0.0000       0.392934        10.6923 
 144   0.0000       0.403293        10.9742 
 145   0.0000       0.405909        11.0454 
 146   0.0000       0.415118        11.2959 
 147   0.0000       0.418112        11.3774 
 148   0.0000       0.424458        11.5501 
 149   0.0000       0.445198        12.1145 
 150   0.0000       0.451111        12.2754 
 151   0.0000       0.460639        12.5346 
 152   0.0000       0.471566        12.8320 
 153   0.0000       0.486413        13.2360 
 154   0.0000       0.497437        13.5359 
 155   0.0000       0.520727        14.1697 
 156   0.0000       0.537449        14.6247 
 157   0.0000       0.614670        16.7260 
 158   0.0000       0.627909        17.0863 
 159   0.0000       0.644756        17.5447 
 160   0.0000       0.651111        17.7176 
 161   0.0000       0.661064        17.9885 
 162   0.0000       0.673978        18.3399 
 163   0.0000       0.678974        18.4758 
 164   0.0000       0.694980        18.9114 
 165   0.0000       0.697416        18.9776 
 166   0.0000       0.701859        19.0986 
 167   0.0000       0.720012        19.5925 
 168   0.0000       0.727537        19.7973 
 169   0.0000       0.735349        20.0099 
 170   0.0000       0.746257        20.3067 
 171   0.0000       0.758158        20.6305 
 172   0.0000       0.768155        20.9026 
 173   0.0000       0.772242        21.0138 
 174   0.0000       0.785857        21.3843 
 175   0.0000       0.802219        21.8295 
 176   0.0000       0.818147        22.2629 
 177   0.0000       0.826663        22.4947 
 178   0.0000       0.834420        22.7057 
 179   0.0000       0.855069        23.2676 
 180   0.0000       0.863281        23.4911 
 181   0.0000       0.869690        23.6655 
 182   0.0000       0.878457        23.9040 
 183   0.0000       0.887462        24.1491 
 184   0.0000       0.902270        24.5520 
 185   0.0000       0.906657        24.6714 
 186   0.0000       0.930723        25.3263 
 187   0.0000       0.943173        25.6651 
 188   0.0000       0.951233        25.8844 
 189   0.0000       0.962216        26.1832 
 190   0.0000       0.974281        26.5115 
 191   0.0000       0.979930        26.6652 
 192   0.0000       0.989760        26.9327 
 193   0.0000       0.999796        27.2058 
 194   0.0000       1.002547        27.2807 
 195   0.0000       1.012060        27.5396 
 196   0.0000       1.019835        27.7511 
 197   0.0000       1.022428        27.8217 
 198   0.0000       1.030952        28.0536 
 199   0.0000       1.033936        28.1348 
 200   0.0000       1.044284        28.4164 
 201   0.0000       1.055591        28.7241 
 202   0.0000       1.062022        28.8991 
 203   0.0000       1.085668        29.5425 
 204   0.0000       1.102143        29.9908 
 205   0.0000       1.110580        30.2204 
 206   0.0000       1.123406        30.5694 
 207   0.0000       1.132106        30.8062 
 208   0.0000       1.143137        31.1063 
 209   0.0000       1.150000        31.2931 
 210   0.0000       1.171943        31.8902 
 211   0.0000       1.183394        32.2018 
 212   0.0000       1.192980        32.4626 
 213   0.0000       1.218504        33.1572 
 214   0.0000       1.226803        33.3830 
 215   0.0000       1.234724        33.5986 
 216   0.0000       1.246648        33.9230 
 217   0.0000       1.257932        34.2301 
 218   0.0000       1.270674        34.5768 
 219   0.0000       1.286123        34.9972 
 220   0.0000       1.299266        35.3548 
 221   0.0000       1.326072        36.0843 
 222   0.0000       1.343923        36.5700 
 223   0.0000       1.351987        36.7894 
 224   0.0000       1.354829        36.8668 
 225   0.0000       1.371940        37.3324 
 226   0.0000       1.385942        37.7134 
 227   0.0000       1.410926        38.3933 
 228   0.0000       1.415354        38.5137 
 229   0.0000       1.431920        38.9645 
 230   0.0000       1.450672        39.4748 
 231   0.0000       1.459010        39.7017 
 232   0.0000       1.469785        39.9949 
 233   0.0000       1.479191        40.2508 
 234   0.0000       1.488880        40.5145 
 235   0.0000       1.529845        41.6292 
 236   0.0000       1.552303        42.2403 
 237   0.0000       1.611635        43.8548 
 238   0.0000       1.614507        43.9330 
 239   0.0000       1.637072        44.5470 
 240   0.0000       1.664741        45.2999 
 241   0.0000       1.691237        46.0209 
 242   0.0000       1.700370        46.2694 
 243   0.0000       1.705726        46.4152 
 244   0.0000       1.751416        47.6585 
 245   0.0000       1.767534        48.0970 
 246   0.0000       1.788893        48.6783 
 247   0.0000       1.797589        48.9149 
 248   0.0000       1.808203        49.2037 
 249   0.0000       1.822724        49.5988 
 250   0.0000       1.836079        49.9622 
 251   0.0000       1.856486        50.5176 
 252   0.0000       1.871299        50.9206 
 253   0.0000       1.875273        51.0288 
 254   0.0000       1.888810        51.3971 
 255   0.0000       1.904133        51.8141 
 256   0.0000       1.914224        52.0887 
 257   0.0000       1.915835        52.1325 
 258   0.0000       1.932114        52.5755 
 259   0.0000       1.953244        53.1505 
 260   0.0000       1.967738        53.5449 
 261   0.0000       1.970124        53.6098 
 262   0.0000       1.989257        54.1304 
 263   0.0000       2.016958        54.8842 
 264   0.0000       2.029006        55.2121 
 265   0.0000       2.033382        55.3311 
 266   0.0000       2.051427        55.8222 
 267   0.0000       2.068157        56.2774 
 268   0.0000       2.084255        56.7155 
 269   0.0000       2.084884        56.7326 
 270   0.0000       2.111338        57.4524 
 271   0.0000       2.119024        57.6616 
 272   0.0000       2.131299        57.9956 
 273   0.0000       2.145388        58.3790 
 274   0.0000       2.171356        59.0856 
 275   0.0000       2.200458        59.8775 
 276   0.0000       2.215769        60.2941 
 277   0.0000       2.237502        60.8855 
 278   0.0000       2.250125        61.2290 
 279   0.0000       2.277400        61.9712 
 280   0.0000       2.283010        62.1239 
 281   0.0000       2.302241        62.6472 
 282   0.0000       2.319611        63.1198 
 283   0.0000       2.336200        63.5712 
 284   0.0000       2.343429        63.7679 
 285   0.0000       2.363545        64.3153 
 286   0.0000       2.381069        64.7922 
 287   0.0000       2.394981        65.1707 
 288   0.0000       2.403913        65.4138 
 289   0.0000       2.424027        65.9611 
 290   0.0000       2.439904        66.3932 
 291   0.0000       2.454483        66.7899 
 292   0.0000       2.478517        67.4439 
 293   0.0000       2.480702        67.5033 
 294   0.0000       2.496184        67.9246 
 295   0.0000       2.505079        68.1667 
 296   0.0000       2.578756        70.1715 
 297   0.0000       2.595145        70.6175 
 298   0.0000       2.612740        71.0963 
 299   0.0000       2.640518        71.8521 
 300   0.0000       2.653943        72.2174 
 301   0.0000       2.698302        73.4245 
 302   0.0000       2.702423        73.5367 
 303   0.0000       2.715848        73.9020 
 304   0.0000       2.736909        74.4751 
 305   0.0000       2.793821        76.0237 
 306   0.0000       2.796780        76.1043 
 307   0.0000       2.845019        77.4169 
 308   0.0000       2.938873        79.9708 
 309   0.0000       2.983371        81.1817 
 310   0.0000       3.119952        84.8982 
 311   0.0000       3.151047        85.7444 
 312   0.0000       3.194369        86.9232 
 313   0.0000       3.248430        88.3943 

                    ********************************
                    * MULLIKEN POPULATION ANALYSIS *
                    ********************************

-----------------------
MULLIKEN ATOMIC CHARGES
-----------------------
   0 C :   -1.033963
   1 H :    0.246026
   2 H :    0.260818
   3 H :    0.243901
   4 C :    0.881403
   5 O :   -0.554315
   6 N :   -0.158200
   7 C :   -0.786779
   8 H :    0.256962
   9 H :    0.247649
  10 C :   -0.379697
  11 H :    0.232256
  12 H :    0.231981
  13 C :   -0.420182
  14 H :    0.220184
  15 H :    0.225606
  16 C :    0.524083
  17 N :    0.040912
  18 O :   -0.733166
  19 C :   -0.537688
  20 H :    0.228786
  21 H :    0.237653
  22 H :    0.260809
  23 C :   -0.519544
  24 H :    0.235938
  25 H :    0.241206
  26 H :    0.231539
  27 C :   -0.345636
  28 H :    0.226272
  29 H :    0.237181
  30 C :   -0.148599
  31 H :    0.274428
  32 H :    0.252760
  33 N :   -1.047895
  34 H :    0.513462
  35 H :    0.505254
  36 H :    0.608596
Sum of atomic charges:    1.0000000

--------------------------------
MULLIKEN REDUCED ORBITAL CHARGES
--------------------------------
  0 C s       :     3.806095  s :     3.806095
      pz      :     1.044892  p :     3.196594
      px      :     1.051896
      py      :     1.099806
      dz2     :     0.008595  d :     0.031274
      dxz     :     0.005074
      dyz     :     0.004395
      dx2y2   :     0.009542
      dxy     :     0.003667
  1 H s       :     0.753974  s :     0.753974
  2 H s       :     0.739182  s :     0.739182
  3 H s       :     0.756099  s :     0.756099
  4 C s       :     2.868352  s :     2.868352
      pz      :     0.685995  p :     2.137744
      px      :     0.706510
      py      :     0.745239
      dz2     :     0.028979  d :     0.112500
      dxz     :     0.028978
      dyz     :     0.021247
      dx2y2   :     0.017374
      dxy     :     0.015923
  5 O s       :     3.923895  s :     3.923895
      pz      :     1.768795  p :     4.605441
      px      :     1.383584
      py      :     1.453062
      dz2     :     0.003188  d :     0.024978
      dxz     :     0.004916
      dyz     :     0.003298
      dx2y2   :     0.008010
      dxy     :     0.005566
  6 N s       :     3.265302  s :     3.265302
[...]
     90       0.010442  -0.001455   0.000792
     91      -0.002225  -0.000235   0.000590
     92       0.004163   0.000952  -0.000914
     93      -0.000078   0.009237  -0.009762
     94       0.003816   0.006227  -0.006533
     95      -0.000910  -0.012964   0.013657
     96      -0.121899   0.008302   0.000317
     97       0.009148   0.000282   0.000071
     98      -0.041874   0.003126   0.000511
     99       0.064632  -0.043939   0.011688
    100      -0.009377  -0.045991  -0.021944
    101       0.010878   0.004849  -0.077306
    102       0.028509   0.188268   0.181650
    103       0.074778   0.506209   0.466889
    104       0.074339   0.496372   0.443319
    105       0.043846   0.293165  -0.334365
    106       0.025259   0.137196  -0.164410
    107      -0.102551  -0.580553   0.637552
    108      -0.964820   0.123059  -0.008300
    109       0.057042  -0.013586  -0.002866
    110      -0.130795   0.018135  -0.013126


-----------
IR SPECTRUM
-----------

 Mode   freq       eps      Int      T**2         TX        TY        TZ
       cm**-1   L/(mol*cm) km/mol    a.u.
----------------------------------------------------------------------------
  6:     35.87   0.003890   19.66  0.033838  ( 0.008248  0.158021 -0.093807)
  7:     38.73   0.003021   15.27  0.024345  (-0.014551 -0.031686 -0.152084)
  8:     49.81   0.001421    7.18  0.008900  ( 0.050532  0.072077 -0.033932)
  9:     70.47   0.001277    6.45  0.005654  (-0.021973 -0.003392 -0.071832)
 10:     79.88   0.000037    0.19  0.000146  ( 0.009443  0.006183 -0.004355)
 11:     92.07   0.000868    4.39  0.002941  ( 0.026600 -0.006443  0.046819)
 12:    105.18   0.002710   13.69  0.008040  ( 0.063884  0.052049  0.035358)
 13:    121.69   0.000612    3.09  0.001570  ( 0.002606  0.001992  0.039486)
 14:    132.33   0.000042    0.21  0.000100  (-0.008173  0.005742  0.000652)
 15:    152.82   0.001363    6.89  0.002784  ( 0.052688 -0.002275 -0.001731)
 16:    158.11   0.000019    0.10  0.000037  (-0.001611  0.005148 -0.002875)
 17:    188.66   0.011808   59.67  0.019531  ( 0.123497  0.035292 -0.055085)
 18:    208.70   0.003217   16.26  0.004810  (-0.067501 -0.004867 -0.015168)
 19:    259.63   0.000447    2.26  0.000537  (-0.007209 -0.016231  0.014898)
 20:    268.41   0.003388   17.12  0.003939  ( 0.047136 -0.012765  0.039422)
 21:    282.28   0.000850    4.29  0.000939  ( 0.017239  0.024743  0.005458)
 22:    305.17   0.002899   14.65  0.002965  (-0.047922 -0.007586  0.024711)
 23:    322.23   0.002176   10.99  0.002107  ( 0.000114 -0.012126  0.044271)
 24:    342.49   0.000292    1.48  0.000266  ( 0.014463  0.006795 -0.003298)
 25:    367.47   0.001138    5.75  0.000966  (-0.028613  0.007574 -0.009492)
 26:    404.16   0.001826    9.23  0.001410  (-0.009814 -0.009044 -0.035095)
 27:    413.38   0.006930   35.02  0.005231  ( 0.045341 -0.056175 -0.004464)
 28:    459.40   0.001674    8.46  0.001137  ( 0.025843  0.020978 -0.005416)
 29:    482.97   0.003209   16.22  0.002074  ( 0.041056  0.017163 -0.009668)
 30:    505.33   0.006903   34.88  0.004263  (-0.037873  0.013101 -0.051543)
 31:    594.73   0.005410   27.34  0.002839  ( 0.045686 -0.010124 -0.025472)
 32:    603.71   0.000160    0.81  0.000083  (-0.007583 -0.004885 -0.001166)
 33:    622.48   0.001704    8.61  0.000854  (-0.008470 -0.027571 -0.004739)
 34:    661.96   0.003266   16.51  0.001540  (-0.035712  0.007407 -0.014477)
 35:    733.03   0.003149   15.91  0.001341  (-0.023924 -0.012124  0.024925)
 36:    772.91   0.006374   32.21  0.002574  ( 0.049888  0.003755 -0.008415)
 37:    829.95   0.006988   35.32  0.002628  (-0.031523 -0.025049  0.031726)
 38:    862.65   0.002903   14.67  0.001050  (-0.029603 -0.003117 -0.012809)
 39:    880.60   0.001459    7.38  0.000517  (-0.015255 -0.001795 -0.016771)
 40:    922.79   0.001761    8.90  0.000595  (-0.011284 -0.014914 -0.015671)
 41:    956.48   0.010285   51.98  0.003356  ( 0.049324  0.027968 -0.011858)
 42:    972.55   0.004775   24.13  0.001532  (-0.037213 -0.000577  0.012126)
 43:   1002.76   0.002714   13.72  0.000845  ( 0.007171 -0.024687 -0.013557)
 44:   1010.91   0.006791   34.32  0.002096  (-0.017618  0.019817  0.037327)
 45:   1022.31   0.002873   14.52  0.000877  (-0.000789  0.019115 -0.022608)
 46:   1037.27   0.002615   13.21  0.000787  ( 0.015542  0.022900 -0.004548)
 47:   1062.82   0.002076   10.49  0.000610  (-0.012183 -0.020371  0.006791)
 48:   1083.92   0.000746    3.77  0.000215  (-0.008367 -0.005324  0.010784)
 49:   1084.94   0.007709   38.96  0.002217  ( 0.035190  0.030826  0.005367)
 50:   1103.87   0.003113   15.73  0.000880  (-0.022617 -0.010513 -0.016065)
 51:   1124.57   0.003506   17.72  0.000973  ( 0.028535 -0.011876  0.004207)
 52:   1143.26   0.010664   53.89  0.002911  ( 0.050496 -0.018779 -0.002878)
 53:   1164.94   0.004878   24.65  0.001307  ( 0.031416 -0.014045  0.011068)
 54:   1173.43   0.016828   85.04  0.004475  ( 0.053590 -0.029951  0.026577)
 55:   1188.84   0.010172   51.40  0.002670  ( 0.036370 -0.035036 -0.010944)
 56:   1220.97   0.000426    2.15  0.000109  (-0.007199  0.004238  0.006251)
 57:   1265.25   0.004627   23.38  0.001141  (-0.020559 -0.011298  0.024306)
 58:   1284.15   0.007006   35.40  0.001703  (-0.027923  0.030376 -0.000333)
 59:   1296.50   0.004436   22.42  0.001068  (-0.020897  0.002601  0.024987)
 60:   1322.12   0.008040   40.63  0.001898  ( 0.004847 -0.006773  0.042759)
 61:   1332.33   0.003087   15.60  0.000723  ( 0.011511  0.011455  0.021433)
 62:   1362.93   0.003573   18.06  0.000818  ( 0.021656  0.000992  0.018658)
 63:   1370.48   0.014278   72.15  0.003251  ( 0.010177  0.002302 -0.056056)
 64:   1376.21   0.008921   45.08  0.002023  (-0.022001 -0.002816 -0.039127)
 65:   1400.41   0.013364   67.54  0.002978  ( 0.042742 -0.020825 -0.026786)
 66:   1408.02   0.003372   17.04  0.000747  ( 0.024073 -0.012833 -0.001767)
 67:   1416.70   0.007743   39.13  0.001706  ( 0.003073  0.007345 -0.040523)
 68:   1441.86   0.002894   14.63  0.000626  (-0.014928  0.018952  0.006667)
 69:   1446.08   0.020238  102.27  0.004367  (-0.056650  0.000271  0.034029)
 70:   1455.67   0.013490   68.17  0.002892  (-0.030274  0.011880  0.042828)
 71:   1474.52   0.013472   68.08  0.002851  (-0.017780  0.006443 -0.049935)
 72:   1478.11   0.006026   30.45  0.001272  (-0.031158  0.016217  0.006204)
 73:   1486.07   0.019535   98.72  0.004102  (-0.013160 -0.061135  0.013838)
 74:   1492.58   0.001254    6.34  0.000262  ( 0.003294 -0.015817 -0.001079)
 75:   1494.24   0.013365   67.54  0.002791  ( 0.001494 -0.005677 -0.052505)
 76:   1500.99   0.004464   22.56  0.000928  ( 0.007266  0.029073  0.005483)
 77:   1503.22   0.001300    6.57  0.000270  (-0.011422 -0.000602 -0.011795)
 78:   1512.21   0.002396   12.11  0.000494  ( 0.019793  0.009523  0.003463)
 79:   1512.80   0.001518    7.67  0.000313  ( 0.012530 -0.012424  0.001370)
 80:   1514.12   0.007876   39.80  0.001623  (-0.006920 -0.031764  0.023800)
 81:   1517.99   0.009175   46.37  0.001886  (-0.019804 -0.036995 -0.011199)
 82:   1525.16   0.038793  196.04  0.007937  ( 0.027628  0.074784 -0.039767)
 83:   1534.79   0.012715   64.26  0.002585  (-0.030316 -0.008621 -0.039899)
 84:   1550.21   0.015436   78.01  0.003107  (-0.046336  0.030308  0.006457)
 85:   1648.23   0.099668  503.68  0.018870  ( 0.135709  0.007934 -0.019762)
 86:   1668.68   0.074047  374.20  0.013848  ( 0.107805  0.045520  0.012394)
 87:   1669.44   0.121110  612.04  0.022639  (-0.101691  0.066361  0.088849)
 88:   1695.39   0.020219  102.18  0.003722  (-0.043533  0.006277  0.042274)
 89:   3045.59   0.011355   57.38  0.001163  ( 0.012133 -0.027175 -0.016666)
 90:   3053.40   0.006792   34.32  0.000694  (-0.013186  0.016187 -0.016070)
 91:   3055.83   0.003196   16.15  0.000326  ( 0.010033  0.003726 -0.014554)
 92:   3060.91   0.001339    6.76  0.000136  ( 0.008836 -0.006956  0.003161)
 93:   3062.43   0.008595   43.44  0.000876  ( 0.026710  0.012734  0.000519)
 94:   3078.24   0.004483   22.66  0.000454  (-0.000842 -0.020795  0.004619)
 95:   3089.60   0.004557   23.03  0.000460  ( 0.011448  0.013248  0.012399)
 96:   3092.31   0.010875   54.96  0.001097  ( 0.017993 -0.019924 -0.019410)
 97:   3098.82   0.004901   24.77  0.000494  ( 0.014018  0.011054  0.013224)
 98:   3116.86   0.011337   57.29  0.001135  (-0.030653  0.000832 -0.013958)
 99:   3118.68   0.006257   31.62  0.000626  ( 0.010981 -0.006970  0.021375)
100:   3124.54   0.008283   41.86  0.000827  (-0.013311  0.007672 -0.024316)
101:   3132.58   0.001967    9.94  0.000196  (-0.006684  0.000214  0.012299)
102:   3132.70   0.003242   16.39  0.000323  ( 0.011831  0.005395  0.012407)
103:   3144.89   0.004301   21.73  0.000427  ( 0.018096  0.009347 -0.003455)
104:   3163.45   0.002431   12.28  0.000240  ( 0.007635 -0.013465 -0.000422)
105:   3167.82   0.001960    9.91  0.000193  (-0.007682  0.002117  0.011385)
106:   3178.60   0.005861   29.62  0.000575  (-0.022850 -0.001395  0.007169)
107:   3185.55   0.002240   11.32  0.000219  ( 0.012712  0.006727 -0.003544)
108:   3199.21   0.183214  925.89  0.017871  (-0.133435 -0.007329  0.003575)
109:   3459.29   0.030704  155.16  0.002770  ( 0.041314  0.032375 -0.003843)
110:   3515.42   0.022457  113.49  0.001994  (-0.006631  0.011706  0.042574)

* The epsilon (eps) is given for a Dirac delta lineshape.
** The dipole moment derivative (T) already includes vibrational overlap.

The first frequency considered to be a vibration is 6
The total number of vibrations considered is 105


--------------------------
THERMOCHEMISTRY AT 298.15K
--------------------------

Temperature         ... 298.15 K
Pressure            ... 1.00 atm
Total Mass          ... 216.31 AMU

Throughout the following assumptions are being made:
  (1) The electronic state is orbitally nondegenerate
  (2) There are no thermally accessible electronically excited states
  (3) Hindered rotations indicated by low frequency modes are not
      treated as such but are treated as vibrations and this may
      cause some error
  (4) All equations used are the standard statistical mechanics
      equations for an ideal gas
  (5) All vibrations are strictly harmonic

freq.      35.87  E(vib)   ...       0.54 
freq.      38.73  E(vib)   ...       0.54 
freq.      49.81  E(vib)   ...       0.52 
freq.      70.47  E(vib)   ...       0.50 
freq.      79.88  E(vib)   ...       0.49 
freq.      92.07  E(vib)   ...       0.47 
freq.     105.18  E(vib)   ...       0.45 
freq.     121.69  E(vib)   ...       0.44 
freq.     132.33  E(vib)   ...       0.42 
freq.     152.82  E(vib)   ...       0.40 
freq.     158.11  E(vib)   ...       0.39 
freq.     188.66  E(vib)   ...       0.36 
freq.     208.70  E(vib)   ...       0.34 
freq.     259.63  E(vib)   ...       0.30 
freq.     268.41  E(vib)   ...       0.29 
freq.     282.28  E(vib)   ...       0.28 
freq.     305.17  E(vib)   ...       0.26 
freq.     322.23  E(vib)   ...       0.25 
freq.     342.49  E(vib)   ...       0.23 
freq.     367.47  E(vib)   ...       0.21 
freq.     404.16  E(vib)   ...       0.19 
freq.     413.38  E(vib)   ...       0.19 
freq.     459.40  E(vib)   ...       0.16 
freq.     482.97  E(vib)   ...       0.15 
freq.     505.33  E(vib)   ...       0.14 
freq.     594.73  E(vib)   ...       0.10 
freq.     603.71  E(vib)   ...       0.10 
freq.     622.48  E(vib)   ...       0.09 
freq.     661.96  E(vib)   ...       0.08 
freq.     733.03  E(vib)   ...       0.06 
freq.     772.91  E(vib)   ...       0.05 
freq.     829.95  E(vib)   ...       0.04 
freq.     862.65  E(vib)   ...       0.04 
freq.     880.60  E(vib)   ...       0.04 
freq.     922.79  E(vib)   ...       0.03 
freq.     956.48  E(vib)   ...       0.03 
freq.     972.55  E(vib)   ...       0.03 
freq.    1002.76  E(vib)   ...       0.02 
freq.    1010.91  E(vib)   ...       0.02 
freq.    1022.31  E(vib)   ...       0.02 
freq.    1037.27  E(vib)   ...       0.02 
freq.    1062.82  E(vib)   ...       0.02 
freq.    1083.92  E(vib)   ...       0.02 
freq.    1084.94  E(vib)   ...       0.02 
freq.    1103.87  E(vib)   ...       0.02 
freq.    1124.57  E(vib)   ...       0.01 
freq.    1143.26  E(vib)   ...       0.01 
freq.    1164.94  E(vib)   ...       0.01 
freq.    1173.43  E(vib)   ...       0.01 
freq.    1188.84  E(vib)   ...       0.01 
freq.    1220.97  E(vib)   ...       0.01 
freq.    1265.25  E(vib)   ...       0.01 
freq.    1284.15  E(vib)   ...       0.01 
freq.    1296.50  E(vib)   ...       0.01 
freq.    1322.12  E(vib)   ...       0.01 
freq.    1332.33  E(vib)   ...       0.01 
freq.    1362.93  E(vib)   ...       0.01 
freq.    1370.48  E(vib)   ...       0.01 
freq.    1376.21  E(vib)   ...       0.01 
freq.    1400.41  E(vib)   ...       0.00 
freq.    1408.02  E(vib)   ...       0.00 
freq.    1416.70  E(vib)   ...       0.00 
freq.    1441.86  E(vib)   ...       0.00 
freq.    1446.08  E(vib)   ...       0.00 
freq.    1455.67  E(vib)   ...       0.00 
freq.    1474.52  E(vib)   ...       0.00 
freq.    1478.11  E(vib)   ...       0.00 
freq.    1486.07  E(vib)   ...       0.00 
freq.    1492.58  E(vib)   ...       0.00 
freq.    1494.24  E(vib)   ...       0.00 
freq.    1500.99  E(vib)   ...       0.00 
freq.    1503.22  E(vib)   ...       0.00 
freq.    1512.21  E(vib)   ...       0.00 
freq.    1512.80  E(vib)   ...       0.00 
freq.    1514.12  E(vib)   ...       0.00 
freq.    1517.99  E(vib)   ...       0.00 
freq.    1525.16  E(vib)   ...       0.00 
freq.    1534.79  E(vib)   ...       0.00 
freq.    1550.21  E(vib)   ...       0.00 
freq.    1648.23  E(vib)   ...       0.00 
freq.    1668.68  E(vib)   ...       0.00 
freq.    1669.44  E(vib)   ...       0.00 
freq.    1695.39  E(vib)   ...       0.00 
freq.    3045.59  E(vib)   ...       0.00 
freq.    3053.40  E(vib)   ...       0.00 
freq.    3055.83  E(vib)   ...       0.00 
freq.    3060.91  E(vib)   ...       0.00 
freq.    3062.43  E(vib)   ...       0.00 
freq.    3078.24  E(vib)   ...       0.00 
freq.    3089.60  E(vib)   ...       0.00 
freq.    3092.31  E(vib)   ...       0.00 
freq.    3098.82  E(vib)   ...       0.00 
freq.    3116.86  E(vib)   ...       0.00 
freq.    3118.68  E(vib)   ...       0.00 
freq.    3124.54  E(vib)   ...       0.00 
freq.    3132.58  E(vib)   ...       0.00 
freq.    3132.70  E(vib)   ...       0.00 
freq.    3144.89  E(vib)   ...       0.00 
freq.    3163.45  E(vib)   ...       0.00 
freq.    3167.82  E(vib)   ...       0.00 
freq.    3178.60  E(vib)   ...       0.00 
freq.    3185.55  E(vib)   ...       0.00 
freq.    3199.21  E(vib)   ...       0.00 
freq.    3459.29  E(vib)   ...       0.00 
freq.    3515.42  E(vib)   ...       0.00 

------------
INNER ENERGY
------------

The inner energy is: U= E(el) + E(ZPE) + E(vib) + E(rot) + E(trans)
    E(el)   - is the total energy from the electronic structure calculation
              = E(kin-el) + E(nuc-el) + E(el-el) + E(nuc-nuc)
    E(ZPE)  - the the zero temperature vibrational energy from the frequency calculation
    E(vib)  - the the finite temperature correction to E(ZPE) due to population
              of excited vibrational states
    E(rot)  - is the rotational thermal energy
    E(trans)- is the translational thermal energy

Summary of contributions to the inner energy U:
Electronic energy                ...   -708.54834732 Eh
Zero point energy                ...      0.33470848 Eh     210.03 kcal/mol
Thermal vibrational correction   ...      0.01523927 Eh       9.56 kcal/mol
Thermal rotational correction    ...      0.00141627 Eh       0.89 kcal/mol
Thermal translational correction ...      0.00141627 Eh       0.89 kcal/mol
-----------------------------------------------------------------------
Total thermal energy                   -708.19556703 Eh


Summary of corrections to the electronic energy:
(perhaps to be used in another calculation)
Total thermal correction                  0.01807181 Eh      11.34 kcal/mol
Non-thermal (ZPE) correction              0.33470848 Eh     210.03 kcal/mol
-----------------------------------------------------------------------
Total correction                          0.35278029 Eh     221.37 kcal/mol


--------
ENTHALPY
--------

The enthalpy is H = U + kB*T
                kB is Boltzmann's constant
Total free energy                 ...   -708.19556703 Eh 
Thermal Enthalpy correction       ...      0.00094421 Eh       0.59 kcal/mol
-----------------------------------------------------------------------
Total Enthalpy                    ...   -708.19462282 Eh


Note: Only C1 symmetry has been detected, increase convergence thresholds 
      if your molecule has a higher symmetry. Symmetry factor of 1.0 is   
      used for the rotational entropy correction. 
 

Note: Rotational entropy computed according to Herzberg 
Infrared and Raman Spectra, Chapter V,1, Van Nostrand Reinhold, 1945 
Point Group:  C1, Symmetry Number:   1  
Rotational constants in cm-1:     0.025072     0.014759     0.011473 

Vibrational entropy computed according to the QRRHO of S. Grimme
Chem.Eur.J. 2012 18 9955


-------
ENTROPY
-------

The entropy contributions are T*S = T*(S(el)+S(vib)+S(rot)+S(trans))
     S(el)   - electronic entropy
     S(vib)  - vibrational entropy
     S(rot)  - rotational entropy
     S(trans)- translational entropy
The entropies will be listed as multiplied by the temperature to get
units of energy

Electronic entropy                ...      0.00000000 Eh      0.00 kcal/mol
Vibrational entropy               ...      0.02745395 Eh     17.23 kcal/mol
Rotational entropy                ...      0.01535041 Eh      9.63 kcal/mol
Translational entropy             ...      0.01996392 Eh     12.53 kcal/mol
-----------------------------------------------------------------------
Final entropy term                ...      0.06276828 Eh     39.39 kcal/mol

In case the symmetry of your molecule has not been determined correctly
or in case you have a reason to use a different symmetry number we print 
out the resulting rotational entropy values for sn=1,12 :
 --------------------------------------------------------
|  sn= 1 | S(rot)=       0.01535041 Eh      9.63 kcal/mol|
|  sn= 2 | S(rot)=       0.01469595 Eh      9.22 kcal/mol|
|  sn= 3 | S(rot)=       0.01431312 Eh      8.98 kcal/mol|
|  sn= 4 | S(rot)=       0.01404150 Eh      8.81 kcal/mol|
|  sn= 5 | S(rot)=       0.01383081 Eh      8.68 kcal/mol|
|  sn= 6 | S(rot)=       0.01365866 Eh      8.57 kcal/mol|
|  sn= 7 | S(rot)=       0.01351312 Eh      8.48 kcal/mol|
|  sn= 8 | S(rot)=       0.01338704 Eh      8.40 kcal/mol|
|  sn= 9 | S(rot)=       0.01327583 Eh      8.33 kcal/mol|
|  sn=10 | S(rot)=       0.01317635 Eh      8.27 kcal/mol|
|  sn=11 | S(rot)=       0.01308636 Eh      8.21 kcal/mol|
|  sn=12 | S(rot)=       0.01300421 Eh      8.16 kcal/mol|
 --------------------------------------------------------


-------------------
GIBBS FREE ENERGY
-------------------

The Gibbs free energy is G = H - T*S

Total enthalpy                    ...   -708.19462282 Eh 
Total entropy correction          ...     -0.06276828 Eh    -39.39 kcal/mol
-----------------------------------------------------------------------
Final Gibbs free energy         ...   -708.25739110 Eh

For completeness - the Gibbs free energy minus the electronic energy
G-E(el)                           ...      0.29095622 Eh    182.58 kcal/mol


Timings for individual modules:

Sum of individual times         ...     3656.851 sec (=  60.948 min)
GTO integral calculation        ...       26.452 sec (=   0.441 min)   0.7 %
SCF iterations                  ...     1711.559 sec (=  28.526 min)  46.8 %
SCF Gradient evaluation         ...      475.783 sec (=   7.930 min)  13.0 %
Geometry relaxation             ...        1.572 sec (=   0.026 min)   0.0 %
Analytical frequency calculation...     1441.486 sec (=  24.025 min)  39.4 %
                             ****ORCA TERMINATED NORMALLY****
TOTAL RUN TIME: 0 days 1 hours 1 minutes 3 seconds 193 msec
