
                                 *****************
                                 * O   R   C   A *
                                 *****************

                                            #,                                       
                                            ###                                      
                                            ####                                     
                                            #####                                    
                                            ######                                   
                                           ########,                                 
                                     ,,################,,,,,                         
                               ,,#################################,,                 
                          ,,##########################################,,             
                       ,#########################################, ''#####,          
                    ,#############################################,,   '####,        
                  ,##################################################,,,,####,       
                ,###########''''           ''''###############################       
              ,#####''   ,,,,##########,,,,          '''####'''          '####       
            ,##' ,,,,###########################,,,                        '##       
           ' ,,###''''                  '''############,,,                           
         ,,##''                                '''############,,,,        ,,,,,,###''
      ,#''                                            '''#######################'''  
     '                                                          ''''####''''         
             ,#######,   #######,   ,#######,      ##                                
            ,#'     '#,  ##    ##  ,#'     '#,    #''#        ######   ,####,        
            ##       ##  ##   ,#'  ##            #'  '#       #        #'  '#        
            ##       ##  #######   ##           ,######,      #####,   #    #        
            '#,     ,#'  ##    ##  '#,     ,#' ,#      #,         ##   #,  ,#        
             '#######'   ##     ##  '#######'  #'      '#     #####' # '####'        



                  #######################################################
                  #                        -***-                        #
                  #          Department of theory and spectroscopy      #
                  #    Directorship and core code : Frank Neese         #
                  #        Max Planck Institute fuer Kohlenforschung    #
                  #                Kaiser Wilhelm Platz 1               #
                  #                 D-45470 Muelheim/Ruhr               #
                  #                      Germany                        #
                  #                                                     #
                  #                  All rights reserved                #
                  #                        -***-                        #
                  #######################################################


                         Program Version 5.0.4 -  RELEASE  -


 With contributions from (in alphabetic order):
   Daniel Aravena         : Magnetic Suceptibility
   Michael Atanasov       : Ab Initio Ligand Field Theory (pilot matlab implementation)
   Alexander A. Auer      : GIAO ZORA, VPT2 properties, NMR spectrum
   Ute Becker             : Parallelization
   Giovanni Bistoni       : ED, misc. LED, open-shell LED, HFLD
   Martin Brehm           : Molecular dynamics
   Dmytro Bykov           : SCF Hessian
   Vijay G. Chilkuri      : MRCI spin determinant printing, contributions to CSF-ICE
   Dipayan Datta          : RHF DLPNO-CCSD density
   Achintya Kumar Dutta   : EOM-CC, STEOM-CC
   Dmitry Ganyushin       : Spin-Orbit,Spin-Spin,Magnetic field MRCI
   Miquel Garcia          : C-PCM and meta-GGA Hessian, CC/C-PCM, Gaussian charge scheme
   Yang Guo               : DLPNO-NEVPT2, F12-NEVPT2, CIM, IAO-localization
   Andreas Hansen         : Spin unrestricted coupled pair/coupled cluster methods
   Benjamin Helmich-Paris : MC-RPA, TRAH-SCF, COSX integrals
   Lee Huntington         : MR-EOM, pCC
   Robert Izsak           : Overlap fitted RIJCOSX, COSX-SCS-MP3, EOM
   Marcus Kettner         : VPT2
   Christian Kollmar      : KDIIS, OOCD, Brueckner-CCSD(T), CCSD density, CASPT2, CASPT2-K
   Simone Kossmann        : Meta GGA functionals, TD-DFT gradient, OOMP2, MP2 Hessian
   Martin Krupicka        : Initial AUTO-CI
   Lucas Lang             : DCDCAS
   Marvin Lechner         : AUTO-CI (C++ implementation), FIC-MRCC
   Dagmar Lenk            : GEPOL surface, SMD
   Dimitrios Liakos       : Extrapolation schemes; Compound Job, initial MDCI parallelization
   Dimitrios Manganas     : Further ROCIS development; embedding schemes
   Dimitrios Pantazis     : SARC Basis sets
   Anastasios Papadopoulos: AUTO-CI, single reference methods and gradients
   Taras Petrenko         : DFT Hessian,TD-DFT gradient, ASA, ECA, R-Raman, ABS, FL, XAS/XES, NRVS
   Peter Pinski           : DLPNO-MP2, DLPNO-MP2 Gradient
   Christoph Reimann      : Effective Core Potentials
   Marius Retegan         : Local ZFS, SOC
   Christoph Riplinger    : Optimizer, TS searches, QM/MM, DLPNO-CCSD(T), (RO)-DLPNO pert. Triples
   Tobias Risthaus        : Range-separated hybrids, TD-DFT gradient, RPA, STAB
   Michael Roemelt        : Original ROCIS implementation
   Masaaki Saitow         : Open-shell DLPNO-CCSD energy and density
   Barbara Sandhoefer     : DKH picture change effects
   Avijit Sen             : IP-ROCIS
   Kantharuban Sivalingam : CASSCF convergence, NEVPT2, FIC-MRCI
   Bernardo de Souza      : ESD, SOC TD-DFT
   Georgi Stoychev        : AutoAux, RI-MP2 NMR, DLPNO-MP2 response
   Willem Van den Heuvel  : Paramagnetic NMR
   Boris Wezisla          : Elementary symmetry handling
   Frank Wennmohs         : Technical directorship


 We gratefully acknowledge several colleagues who have allowed us to
 interface, adapt or use parts of their codes:
   Stefan Grimme, W. Hujo, H. Kruse, P. Pracht,  : VdW corrections, initial TS optimization,
                  C. Bannwarth, S. Ehlert          DFT functionals, gCP, sTDA/sTD-DF
   Ed Valeev, F. Pavosevic, A. Kumar             : LibInt (2-el integral package), F12 methods
   Garnet Chan, S. Sharma, J. Yang, R. Olivares  : DMRG
   Ulf Ekstrom                                   : XCFun DFT Library
   Mihaly Kallay                                 : mrcc  (arbitrary order and MRCC methods)
   Jiri Pittner, Ondrej Demel                    : Mk-CCSD
   Frank Weinhold                                : gennbo (NPA and NBO analysis)
   Christopher J. Cramer and Donald G. Truhlar   : smd solvation model
   Lars Goerigk                                  : TD-DFT with DH, B97 family of functionals
   V. Asgeirsson, H. Jonsson                     : NEB implementation
   FAccTs GmbH                                   : IRC, NEB, NEB-TS, DLPNO-Multilevel, CI-OPT
                                                   MM, QMMM, 2- and 3-layer-ONIOM, Crystal-QMMM,
                                                   LR-CPCM, SF, NACMEs, symmetry and pop. for TD-DFT,
                                                   nearIR, NL-DFT gradient (VV10), updates on ESD,
                                                   ML-optimized integration grids
   S Lehtola, MJT Oliveira, MAL Marques          : LibXC Library
   Liviu Ungur et al                             : ANISO software


 Your calculation uses the libint2 library for the computation of 2-el integrals
 For citations please refer to: http://libint.valeyev.net

 Your ORCA version has been built with support for libXC version: 5.1.0
 For citations please refer to: https://tddft.org/programs/libxc/

 This ORCA versions uses:
   CBLAS   interface :  Fast vector & matrix operations
   LAPACKE interface :  Fast linear algebra routines
   SCALAPACK package :  Parallel linear algebra routines
   Shared memory     :  Shared parallel matrices
   BLAS/LAPACK       :  OpenBLAS 0.3.15  USE64BITINT DYNAMIC_ARCH NO_AFFINITY SkylakeX SINGLE_THREADED
        Core in use  :  SkylakeX
   Copyright (c) 2011-2014, The OpenBLAS Project




***************************************
The coordinates will be read from file: /users/fjb15167/WWenergy/structures/Nm.xyz
***************************************


Your calculation utilizes the atom-pairwise dispersion correction
based on tight binding partial charges (D4)
Cite in your paper:
E.Caldeweyher, C.Bannwarth, S.Grimme, J.Chem.Phys., (2017), 147, 034112.
E.Caldeweyher, S.Ehlert, A.Hansen, H.Neugebauer, S.Grimme, J.Chem.Phys., (2018), in progress.
   

================================================================================

----- Orbital basis set information -----
Your calculation utilizes the basis: 6-31G(d)
   H-He, Li-Ne : W. J. Hehre, R. Ditchfield and J.A. Pople, J. Chem. Phys. 56, 2257 (1972).
                 Note: He and Ne are unpublished basis sets taken from the Gaussian program.
                 Note: Li and B from J. D. Dill and J. A. Pople, J. Chem. Phys. 62, 2921 (1975).
   Na - Ar     : M. M. Francl, W. J. Pietro, W. J. Hehre, J. S. Binkley, M. S. Gordon, 
                 D. J. DeFrees and J. A. Pople, J. Chem. Phys. 77, 3654 (1982).
   K - Zn      : V. A. Rassolov, J. A. Pople, M. A. Ratner, and T. L. Windus, J. Chem. Phys. 109, 1223 (1998).

----- AuxJ basis set information -----
Your calculation utilizes the AutoAux generation procedure.
  G. L. Stoychev, A. A. Auer, F. Neese, J. Chem. Theory Comput. 13, 554 (2017)

----- AuxC basis set information -----
Your calculation utilizes the AutoAux generation procedure.
  G. L. Stoychev, A. A. Auer, F. Neese, J. Chem. Theory Comput. 13, 554 (2017)

----- AuxJK basis set information -----
Your calculation utilizes the AutoAux generation procedure.
  G. L. Stoychev, A. A. Auer, F. Neese, J. Chem. Theory Comput. 13, 554 (2017)

================================================================================
                                        WARNINGS
                       Please study these warnings very carefully!
================================================================================


WARNING: Geometry Optimization
  ===> : Switching off AutoStart
         For restart on a previous wavefunction, please use MOREAD

INFO   : the flag for use of the SHARK integral package has been found!

================================================================================
                                       INPUT FILE
================================================================================
NAME = Nm_water.inp
|  1> ! OPT FREQ B3LYP 6-31G(d) D4 AUTOAUX CPCM(water)
|  2> 
|  3> %PAL NPROCS 4 END
|  4> 
|  5> %maxcore 3375
|  6> 
|  7> *xyzfile 0 1 /users/fjb15167/WWenergy/structures/Nm.xyz
|  8> 
|  9>                          ****END OF INPUT****
================================================================================

                       *****************************
                       * Geometry Optimization Run *
                       *****************************

Geometry optimization settings:
Update method            Update   .... BFGS
Choice of coordinates    CoordSys .... Z-matrix Internals
Initial Hessian          InHess   .... Almoef's Model

Convergence Tolerances:
Energy Change            TolE     ....  5.0000e-06 Eh
Max. Gradient            TolMAXG  ....  3.0000e-04 Eh/bohr
RMS Gradient             TolRMSG  ....  1.0000e-04 Eh/bohr
Max. Displacement        TolMAXD  ....  4.0000e-03 bohr
RMS Displacement         TolRMSD  ....  2.0000e-03 bohr
Strict Convergence                ....  False
------------------------------------------------------------------------------
                        ORCA OPTIMIZATION COORDINATE SETUP
------------------------------------------------------------------------------

The optimization will be done in new redundant internal coordinates
Making redundant internal coordinates   ...  (new redundants) done
Evaluating the initial hessian          ...  (Almloef) done
Evaluating the coordinates              ...  done
Calculating the B-matrix                .... done
Calculating the G-matrix                .... done
Diagonalizing the G-matrix              .... done
Small eigenvalue found = 4.590e-03
Small eigenvalue found = 5.730e-03
Small eigenvalue found = 1.112e-02
Small eigenvalue found = 1.399e-02
Small eigenvalue found = 1.847e-02
Small eigenvalue found = 2.962e-02
The first mode is                       ....   55
The number of degrees of freedom        ....   90

    -----------------------------------------------------------------
                    Redundant Internal Coordinates


    -----------------------------------------------------------------
         Definition                    Initial Value    Approx d2E/dq
    -----------------------------------------------------------------
      1. B(H   1,C   0)                  1.0926         0.356639   
      2. B(H   2,C   0)                  1.0948         0.353742   
      3. B(H   3,C   0)                  1.0898         0.360303   
      4. B(C   4,C   0)                  1.5146         0.395376   
      5. B(O   5,C   4)                  1.2397         0.972173   
      6. B(N   6,C   4)                  1.3740         0.593573   
      7. B(C   7,N   6)                  1.4602         0.432461   
      8. B(H   8,C   7)                  1.0945         0.354134   
      9. B(H   9,C   7)                  1.0905         0.359498   
     10. B(C  10,N   6)                  1.4629         0.428062   
     11. B(H  11,C  10)                  1.0934         0.355624   
     12. B(H  12,C  10)                  1.0930         0.356117   
     13. B(C  13,C  10)                  1.5290         0.374951   
     14. B(H  14,C  13)                  1.0926         0.356674   
     15. B(H  15,C  13)                  1.0944         0.354267   
     16. B(C  16,C   7)                  1.5247         0.380945   
     17. B(N  17,C  16)                  1.3637         0.616364   
     18. B(O  18,C  16)                  1.2425         0.961998   
     19. B(C  19,N  17)                  1.4553         0.440220   
     20. B(H  20,C  19)                  1.0971         0.350859   
     21. B(H  21,C  19)                  1.0950         0.353575   
     22. B(H  22,C  19)                  1.0878         0.362994   
     23. B(C  23,N  17)                  1.4560         0.439083   
     24. B(H  24,C  23)                  1.0968         0.351163   
     25. B(H  25,C  23)                  1.0877         0.363097   
     26. B(H  26,C  23)                  1.0941         0.354732   
     27. B(S  27,C  13)                  1.8113         0.358337   
     28. B(C  28,S  27)                  1.8144         0.354331   
     29. B(H  29,C  28)                  1.0924         0.356964   
     30. B(H  30,C  28)                  1.0917         0.357800   
     31. B(H  31,C  28)                  1.0912         0.358523   
     32. A(H   1,C   0,C   4)          112.6276         0.326839   
     33. A(H   2,C   0,H   3)          108.8670         0.290053   
     34. A(H   3,C   0,C   4)          107.1536         0.327390   
     35. A(H   1,C   0,H   3)          109.3811         0.290424   
     36. A(H   1,C   0,H   2)          107.9335         0.289588   
     37. A(H   2,C   0,C   4)          110.8205         0.326400   
     38. A(C   0,C   4,O   5)          121.0397         0.431221   
     39. A(O   5,C   4,N   6)          121.8532         0.461100   
     40. A(C   0,C   4,N   6)          117.1031         0.395062   
     41. A(C   4,N   6,C  10)          124.4882         0.398050   
     42. A(C   7,N   6,C  10)          116.2418         0.376675   
     43. A(C   4,N   6,C   7)          119.0850         0.398767   
     44. A(H   8,C   7,H   9)          108.9995         0.290002   
     45. A(N   6,C   7,H   9)          107.8552         0.330153   
     46. A(H   9,C   7,C  16)          113.7132         0.325272   
     47. A(H   8,C   7,C  16)          105.4582         0.324470   
     48. A(N   6,C   7,C  16)          111.0529         0.371506   
     49. A(N   6,C   7,H   8)          109.7036         0.329334   
     50. A(H  12,C  10,C  13)          109.7334         0.323923   
     51. A(H  11,C  10,C  13)          109.7984         0.323849   
     52. A(N   6,C  10,C  13)          112.6458         0.369843   
     53. A(H  11,C  10,H  12)          107.2932         0.289763   
     54. A(N   6,C  10,H  12)          106.7744         0.329081   
     55. A(N   6,C  10,H  11)          110.4145         0.329006   
     56. A(H  14,C  13,H  15)          107.6585         0.289660   
     57. A(H  15,C  13,S  27)          106.2677         0.337556   
     58. A(C  10,C  13,H  15)          110.1785         0.323646   
     59. A(C  10,C  13,H  14)          110.4076         0.324006   
     60. A(H  14,C  13,S  27)          109.1838         0.337937   
     61. A(C  10,C  13,S  27)          112.9352         0.380100   
     62. A(N  17,C  16,O  18)          122.7023         0.463394   
     63. A(C   7,C  16,O  18)          119.1803         0.427546   
     64. A(C   7,C  16,N  17)          118.0916         0.395097   
     65. A(C  16,N  17,C  19)          125.2406         0.402679   
     66. A(C  19,N  17,C  23)          115.4360         0.379502   
     67. A(C  16,N  17,C  23)          118.2592         0.402496   
     68. A(H  21,C  19,H  22)          108.7882         0.290370   
     69. A(H  20,C  19,H  22)          108.5467         0.290019   
     70. A(N  17,C  19,H  22)          111.9700         0.331656   
     71. A(H  20,C  19,H  21)          108.2169         0.288826   
     72. A(N  17,C  19,H  21)          109.0065         0.330216   
     73. A(N  17,C  19,H  20)          110.2291         0.329796   
     74. A(H  25,C  23,H  26)          110.1659         0.290532   
     75. A(H  24,C  23,H  26)          108.6762         0.289013   
     76. A(N  17,C  23,H  26)          109.1579         0.330254   
     77. A(H  24,C  23,H  25)          109.3442         0.290071   
     78. A(N  17,C  23,H  25)          108.6566         0.331530   
     79. A(N  17,C  23,H  24)          110.8352         0.329702   
     80. A(C  13,S  27,C  28)           99.2859         0.396573   
     81. A(H  29,C  28,H  31)          108.9725         0.290240   
     82. A(S  27,C  28,H  31)          112.1235         0.337595   
     83. A(H  29,C  28,H  30)          109.1716         0.290148   
     84. A(S  27,C  28,H  30)          107.4577         0.337482   
     85. A(H  30,C  28,H  31)          108.6433         0.290347   
     86. A(S  27,C  28,H  29)          110.4097         0.337350   
     87. D(O   5,C   4,C   0,H   2)    110.8342         0.011614   
     88. D(O   5,C   4,C   0,H   1)   -128.1412         0.011614   
     89. D(N   6,C   4,C   0,H   1)     52.5728         0.011614   
     90. D(N   6,C   4,C   0,H   2)    -68.4518         0.011614   
     91. D(O   5,C   4,C   0,H   3)     -7.8151         0.011614   
     92. D(N   6,C   4,C   0,H   3)    172.8989         0.011614   
     93. D(C   7,N   6,C   4,C   0)    173.2596         0.028347   
     94. D(C  10,N   6,C   4,C   0)     -1.6035         0.028347   
     95. D(C   7,N   6,C   4,O   5)     -6.0202         0.028347   
     96. D(C  10,N   6,C   4,O   5)    179.1167         0.028347   
     97. D(C  16,C   7,N   6,C   4)    127.0440         0.015945   
     98. D(H   9,C   7,N   6,C   4)      1.8235         0.015945   
     99. D(H   8,C   7,N   6,C  10)     58.5056         0.015945   
    100. D(H   9,C   7,N   6,C  10)    177.1039         0.015945   
    101. D(H   8,C   7,N   6,C   4)   -116.7749         0.015945   
    102. D(C  16,C   7,N   6,C  10)    -57.6756         0.015945   
    103. D(C  13,C  10,N   6,C   7)     95.1324         0.015622   
    104. D(C  13,C  10,N   6,C   4)    -89.8722         0.015622   
    105. D(H  12,C  10,N   6,C   7)    -25.3893         0.015622   
    106. D(H  12,C  10,N   6,C   4)    149.6061         0.015622   
    107. D(H  11,C  10,N   6,C   7)   -141.7146         0.015622   
    108. D(H  11,C  10,N   6,C   4)     33.2808         0.015622   
    109. D(S  27,C  13,C  10,H  11)     62.1398         0.011221   
    110. D(S  27,C  13,C  10,N   6)   -174.3642         0.011221   
    111. D(H  15,C  13,C  10,H  12)   -174.2132         0.011221   
    112. D(H  15,C  13,C  10,H  11)    -56.5172         0.011221   
    113. D(H  15,C  13,C  10,N   6)     66.9788         0.011221   
    114. D(H  14,C  13,C  10,H  12)     67.0001         0.011221   
    115. D(H  14,C  13,C  10,H  11)   -175.3039         0.011221   
    116. D(S  27,C  13,C  10,H  12)    -55.5562         0.011221   
    117. D(H  14,C  13,C  10,N   6)    -51.8079         0.011221   
    118. D(O  18,C  16,C   7,H   9)   -138.0701         0.010826   
    119. D(O  18,C  16,C   7,H   8)    -18.7035         0.010826   
    120. D(O  18,C  16,C   7,N   6)    100.0651         0.010826   
    121. D(N  17,C  16,C   7,H   9)     43.7286         0.010826   
    122. D(N  17,C  16,C   7,H   8)    163.0951         0.010826   
    123. D(N  17,C  16,C   7,N   6)    -78.1362         0.010826   
    124. D(C  23,N  17,C  16,O  18)     -2.5670         0.030735   
    125. D(C  23,N  17,C  16,C   7)    175.5667         0.030735   
    126. D(C  19,N  17,C  16,O  18)   -170.1980         0.030735   
    127. D(C  19,N  17,C  16,C   7)      7.9358         0.030735   
    128. D(H  22,C  19,N  17,C  16)    -15.3935         0.016525   
    129. D(H  21,C  19,N  17,C  23)     56.2500         0.016525   
    130. D(H  21,C  19,N  17,C  16)   -135.8096         0.016525   
    131. D(H  20,C  19,N  17,C  23)    -62.3903         0.016525   
    132. D(H  22,C  19,N  17,C  23)    176.6661         0.016525   
    133. D(H  20,C  19,N  17,C  16)    105.5501         0.016525   
    134. D(H  26,C  23,N  17,C  19)    -51.9179         0.016439   
    135. D(H  26,C  23,N  17,C  16)    139.2526         0.016439   
    136. D(H  25,C  23,N  17,C  19)   -172.0829         0.016439   
    137. D(H  25,C  23,N  17,C  16)     19.0876         0.016439   
    138. D(H  24,C  23,N  17,C  19)     67.7470         0.016439   
    139. D(H  24,C  23,N  17,C  16)   -101.0825         0.016439   
    140. D(C  28,S  27,C  13,H  15)   -170.6734         0.003554   
    141. D(C  28,S  27,C  13,H  14)    -54.8182         0.003554   
    142. D(C  28,S  27,C  13,C  10)     68.4191         0.003554   
    143. D(H  31,C  28,S  27,C  13)    -83.0799         0.003507   
    144. D(H  30,C  28,S  27,C  13)    157.6061         0.003507   
    145. D(H  29,C  28,S  27,C  13)     38.6375         0.003507   
    -----------------------------------------------------------------

Number of atoms                         .... 32
Number of degrees of freedom            .... 145

         *************************************************************
         *                GEOMETRY OPTIMIZATION CYCLE   1            *
         *************************************************************
---------------------------------
CARTESIAN COORDINATES (ANGSTROEM)
---------------------------------
  C     -1.391000    3.054000   -0.526000
  H     -0.616000    2.912000   -1.283000
  H     -0.998000    3.736000    0.235000
  H     -2.268000    3.508000   -0.987000
  C     -1.840000    1.750000    0.100000
  O     -3.041000    1.448000    0.156000
  N     -0.862000    0.932000    0.612000
  C     -1.253000   -0.262000    1.356000
  H     -0.906000   -0.182000    2.391000
  H     -2.342000   -0.318000    1.350000
  C      0.571000    1.222000    0.561000
  H      0.745000    2.299000    0.634000
  H      1.018000    0.760000    1.445000
  C      1.238000    0.674000   -0.701000
  H      1.001000   -0.385000   -0.828000
  H      0.869000    1.205000   -1.584000
  C     -0.572000   -1.505000    0.794000
  N     -1.076000   -2.052000   -0.349000
  O      0.432000   -1.958000    1.369000
  C     -2.115000   -1.458000   -1.177000
  H     -1.679000   -1.047000   -2.096000
  H     -2.835000   -2.234000   -1.457000
  H     -2.643000   -0.661000   -0.658000
  C     -0.371000   -3.179000   -0.943000
  H      0.238000   -2.853000   -1.795000
  H      0.274000   -3.623000   -0.188000
  H     -1.101000   -3.914000   -1.295000
  S      3.037000    0.885000   -0.697000
  C      3.465000   -0.276000    0.630000
  H      2.837000   -1.168000    0.573000
  H      4.509000   -0.563000    0.490000
  H      3.356000    0.172000    1.619000

----------------------------
CARTESIAN COORDINATES (A.U.)
----------------------------
  NO LB      ZA    FRAG     MASS         X           Y           Z
   0 C     6.0000    0    12.011   -2.628609    5.771224   -0.993996
   1 H     1.0000    0     1.008   -1.164071    5.502883   -2.424519
   2 H     1.0000    0     1.008   -1.885947    7.060017    0.444086
   3 H     1.0000    0     1.008   -4.285899    6.629159   -1.865160
   4 C     6.0000    0    12.011   -3.477096    3.307021    0.188973
   5 O     8.0000    0    15.999   -5.746657    2.736323    0.294797
   6 N     7.0000    0    14.007   -1.628944    1.761225    1.156512
   7 C     6.0000    0    12.011   -2.367827   -0.495108    2.562469
   8 H     1.0000    0     1.008   -1.712092   -0.343930    4.518335
   9 H     1.0000    0     1.008   -4.425739   -0.600933    2.551130
  10 C     6.0000    0    12.011    1.079034    2.309245    1.060136
  11 H     1.0000    0     1.008    1.407846    4.344480    1.198086
  12 H     1.0000    0     1.008    1.923741    1.436192    2.730654
  13 C     6.0000    0    12.011    2.339481    1.273675   -1.324698
  14 H     1.0000    0     1.008    1.891616   -0.727545   -1.564693
  15 H     1.0000    0     1.008    1.642172    2.277120   -2.993326
  16 C     6.0000    0    12.011   -1.080923   -2.844038    1.500443
  17 N     7.0000    0    14.007   -2.033345   -3.877718   -0.659514
  18 O     8.0000    0    15.999    0.816362   -3.700084    2.587035
  19 C     6.0000    0    12.011   -3.996771   -2.755221   -2.224208
  20 H     1.0000    0     1.008   -3.172850   -1.978543   -3.960866
  21 H     1.0000    0     1.008   -5.357374   -4.221648   -2.753331
  22 H     1.0000    0     1.008   -4.994546   -1.249109   -1.243440
  23 C     6.0000    0    12.011   -0.701088   -6.007439   -1.782012
  24 H     1.0000    0     1.008    0.449755   -5.391389   -3.392058
  25 H     1.0000    0     1.008    0.517785   -6.846478   -0.355269
  26 H     1.0000    0     1.008   -2.080588   -7.396388   -2.447195
  27 S    16.0000    0    32.060    5.739098    1.672408   -1.317139
  28 C     6.0000    0    12.011    6.547901   -0.521564    1.190527
  29 H     1.0000    0     1.008    5.361153   -2.207200    1.082813
  30 H     1.0000    0     1.008    8.520775   -1.063916    0.925966
  31 H     1.0000    0     1.008    6.341921    0.325033    3.059467

--------------------------------
INTERNAL COORDINATES (ANGSTROEM)
--------------------------------
 C      0   0   0     0.000000000000     0.00000000     0.00000000
 H      1   0   0     1.092628939760     0.00000000     0.00000000
 H      1   2   0     1.094848848015   107.93354870     0.00000000
 H      1   2   3     1.089846778222   109.38108315   118.30433246
 C      1   2   3     1.514560332242   112.62764017   237.34021331
 O      5   1   2     1.239653580643   121.03965039   231.85884241
 N      5   1   2     1.373954875533   117.10313923    52.57282836
 C      7   5   1     1.460155128745   119.08503632   173.25960461
 H      8   7   5     1.094547395045   109.70359188   243.22513273
 H      8   7   5     1.090455409451   107.85520719     1.82348773
 C      7   5   1     1.462938823054   124.48819608   358.39649400
 H     11   7   5     1.093404774089   110.41447033    33.28077731
 H     11   7   5     1.093027447048   106.77439371   149.60606502
 C     11   7   5     1.528998691955   112.64576229   270.12777853
 H     14  11   7     1.092601940324   110.40757801   308.19213183
 H     14  11   7     1.094445521714   110.17851304    66.97876184
 C      8   7   5     1.524681606107   111.05289948   127.04398397
 N     17   8   7     1.363698647062   118.09163320   281.86380486
 O     17   8   7     1.242517605509   119.18026433   100.06514918
 C     18  17   8     1.455314742590   125.24057758     7.93577414
 H     20  18  17     1.097077025555   110.22912228   105.55007400
 H     20  18  17     1.094977625342   109.00650551   224.19038636
 H     20  18  17     1.087820757294   111.96995547   344.60647338
 C     18  17   8     1.456018543838   118.25921921   175.56673788
 H     24  18  17     1.096841374128   110.83521925   258.91750667
 H     24  18  17     1.087743535950   108.65662749    19.08763279
 H     24  18  17     1.094088204854   109.15789249   139.25262386
 S     14  11   7     1.811335971045   112.93518304   185.63582123
 C     28  14  11     1.814396318338    99.28588624    68.41910366
 H     29  28  14     1.092381343671   110.40970881    38.63748136
 H     29  28  14     1.091744017616   107.45766686   157.60613997
 H     29  28  14     1.091194758052   112.12348139   276.92014276

---------------------------
INTERNAL COORDINATES (A.U.)
---------------------------
 C      0   0   0     0.000000000000     0.00000000     0.00000000
 H      1   0   0     2.064769462142     0.00000000     0.00000000
 H      1   2   0     2.068964480788   107.93354870     0.00000000
 H      1   2   3     2.059511938775   109.38108315   118.30433246
 C      1   2   3     2.862104241238   112.62764017   237.34021331
 O      5   1   2     2.342605768349   121.03965039   231.85884241
 N      5   1   2     2.596398435123   117.10313923    52.57282836
 C      7   5   1     2.759293306368   119.08503632   173.25960461
 H      8   7   5     2.068394817232   109.70359188   243.22513273
 H      8   7   5     2.060662085115   107.85520719     1.82348773
 C      7   5   1     2.764553726254   124.48819608   358.39649400
 H     11   7   5     2.066235576550   110.41447033    33.28077731
 H     11   7   5     2.065522531780   106.77439371   149.60606502
 C     11   7   5     2.889388786919   112.64576229   270.12777853
 H     14  11   7     2.064718440604   110.40757801   308.19213183
 H     14  11   7     2.068202304536   110.17851304    66.97876184
 C      8   7   5     2.881230676969   111.05289948   127.04398397
 N     17   8   7     2.577016972147   118.09163320   281.86380486
 O     17   8   7     2.348017990988   119.18026433   100.06514918
 C     18  17   8     2.750146302153   125.24057758     7.93577414
 H     20  18  17     2.073175126115   110.22912228   105.55007400
 H     20  18  17     2.069207834668   109.00650551   224.19038636
 H     20  18  17     2.055683314081   111.96995547   344.60647338
 C     18  17   8     2.751476293765   118.25921921   175.56673788
 H     24  18  17     2.072729809457   110.83521925   258.91750667
 H     24  18  17     2.055537386888   108.65662749    19.08763279
 H     24  18  17     2.067527073527   109.15789249   139.25262386
 S     14  11   7     3.422928921795   112.93518304   185.63582123
 C     28  14  11     3.428712140055    99.28588624    68.41910366
 H     29  28  14     2.064301573343   110.40970881    38.63748136
 H     29  28  14     2.063097201641   107.45766686   157.60613997
 H     29  28  14     2.062059251489   112.12348139   276.92014276

---------------------
BASIS SET INFORMATION
---------------------
There are 5 groups of distinct atoms

 Group   1 Type C   : 10s4p1d contracted to 3s2p1d pattern {631/31/1}
 Group   2 Type H   : 4s contracted to 2s pattern {31}
 Group   3 Type O   : 10s4p1d contracted to 3s2p1d pattern {631/31/1}
 Group   4 Type N   : 10s4p1d contracted to 3s2p1d pattern {631/31/1}
 Group   5 Type S   : 16s10p1d contracted to 4s3p1d pattern {6631/631/1}

Atom   0C    basis set group =>   1
Atom   1H    basis set group =>   2
Atom   2H    basis set group =>   2
Atom   3H    basis set group =>   2
Atom   4C    basis set group =>   1
Atom   5O    basis set group =>   3
Atom   6N    basis set group =>   4
Atom   7C    basis set group =>   1
Atom   8H    basis set group =>   2
Atom   9H    basis set group =>   2
Atom  10C    basis set group =>   1
Atom  11H    basis set group =>   2
Atom  12H    basis set group =>   2
Atom  13C    basis set group =>   1
Atom  14H    basis set group =>   2
Atom  15H    basis set group =>   2
Atom  16C    basis set group =>   1
Atom  17N    basis set group =>   4
Atom  18O    basis set group =>   3
Atom  19C    basis set group =>   1
Atom  20H    basis set group =>   2
Atom  21H    basis set group =>   2
Atom  22H    basis set group =>   2
Atom  23C    basis set group =>   1
Atom  24H    basis set group =>   2
Atom  25H    basis set group =>   2
Atom  26H    basis set group =>   2
Atom  27S    basis set group =>   5
Atom  28C    basis set group =>   1
Atom  29H    basis set group =>   2
Atom  30H    basis set group =>   2
Atom  31H    basis set group =>   2
---------------------------------
AUXILIARY/J BASIS SET INFORMATION
---------------------------------
There are 5 groups of distinct atoms

 Group   1 Type C   : 13s11p10d2f contracted to 13s11p10d2f pattern {1111111111111/11111111111/1111111111/11}
 Group   2 Type H   : 9s2p contracted to 9s2p pattern {111111111/11}
 Group   3 Type O   : 14s11p10d2f contracted to 14s11p10d2f pattern {11111111111111/11111111111/1111111111/11}
 Group   4 Type N   : 14s11p10d2f contracted to 14s11p10d2f pattern {11111111111111/11111111111/1111111111/11}
 Group   5 Type S   : 17s15p14d4f contracted to 17s15p14d4f pattern {11111111111111111/111111111111111/11111111111111/1111}

Atom   0C    basis set group =>   1
Atom   1H    basis set group =>   2
Atom   2H    basis set group =>   2
Atom   3H    basis set group =>   2
Atom   4C    basis set group =>   1
Atom   5O    basis set group =>   3
Atom   6N    basis set group =>   4
Atom   7C    basis set group =>   1
Atom   8H    basis set group =>   2
Atom   9H    basis set group =>   2
Atom  10C    basis set group =>   1
Atom  11H    basis set group =>   2
Atom  12H    basis set group =>   2
Atom  13C    basis set group =>   1
Atom  14H    basis set group =>   2
Atom  15H    basis set group =>   2
Atom  16C    basis set group =>   1
Atom  17N    basis set group =>   4
Atom  18O    basis set group =>   3
Atom  19C    basis set group =>   1
Atom  20H    basis set group =>   2
Atom  21H    basis set group =>   2
Atom  22H    basis set group =>   2
Atom  23C    basis set group =>   1
Atom  24H    basis set group =>   2
Atom  25H    basis set group =>   2
Atom  26H    basis set group =>   2
Atom  27S    basis set group =>   5
Atom  28C    basis set group =>   1
Atom  29H    basis set group =>   2
Atom  30H    basis set group =>   2
Atom  31H    basis set group =>   2
---------------------------------
AUXILIARY/C BASIS SET INFORMATION
---------------------------------
There are 5 groups of distinct atoms

 Group   1 Type C   : 13s11p10d2f contracted to 13s11p10d2f pattern {1111111111111/11111111111/1111111111/11}
 Group   2 Type H   : 9s2p contracted to 9s2p pattern {111111111/11}
 Group   3 Type O   : 14s11p10d2f contracted to 14s11p10d2f pattern {11111111111111/11111111111/1111111111/11}
 Group   4 Type N   : 14s11p10d2f contracted to 14s11p10d2f pattern {11111111111111/11111111111/1111111111/11}
 Group   5 Type S   : 17s15p14d4f contracted to 17s15p14d4f pattern {11111111111111111/111111111111111/11111111111111/1111}

Atom   0C    basis set group =>   1
Atom   1H    basis set group =>   2
Atom   2H    basis set group =>   2
Atom   3H    basis set group =>   2
Atom   4C    basis set group =>   1
Atom   5O    basis set group =>   3
Atom   6N    basis set group =>   4
Atom   7C    basis set group =>   1
Atom   8H    basis set group =>   2
Atom   9H    basis set group =>   2
Atom  10C    basis set group =>   1
Atom  11H    basis set group =>   2
Atom  12H    basis set group =>   2
Atom  13C    basis set group =>   1
Atom  14H    basis set group =>   2
Atom  15H    basis set group =>   2
Atom  16C    basis set group =>   1
Atom  17N    basis set group =>   4
Atom  18O    basis set group =>   3
Atom  19C    basis set group =>   1
Atom  20H    basis set group =>   2
Atom  21H    basis set group =>   2
Atom  22H    basis set group =>   2
Atom  23C    basis set group =>   1
Atom  24H    basis set group =>   2
Atom  25H    basis set group =>   2
Atom  26H    basis set group =>   2
Atom  27S    basis set group =>   5
Atom  28C    basis set group =>   1
Atom  29H    basis set group =>   2
Atom  30H    basis set group =>   2
Atom  31H    basis set group =>   2
----------------------------------
AUXILIARY/JK BASIS SET INFORMATION
----------------------------------
There are 5 groups of distinct atoms

 Group   1 Type C   : 13s11p10d2f contracted to 13s11p10d2f pattern {1111111111111/11111111111/1111111111/11}
 Group   2 Type H   : 9s2p contracted to 9s2p pattern {111111111/11}
 Group   3 Type O   : 14s11p10d2f contracted to 14s11p10d2f pattern {11111111111111/11111111111/1111111111/11}
 Group   4 Type N   : 14s11p10d2f contracted to 14s11p10d2f pattern {11111111111111/11111111111/1111111111/11}
 Group   5 Type S   : 17s15p14d4f contracted to 17s15p14d4f pattern {11111111111111111/111111111111111/11111111111111/1111}

Atom   0C    basis set group =>   1
Atom   1H    basis set group =>   2
Atom   2H    basis set group =>   2
Atom   3H    basis set group =>   2
Atom   4C    basis set group =>   1
Atom   5O    basis set group =>   3
Atom   6N    basis set group =>   4
Atom   7C    basis set group =>   1
Atom   8H    basis set group =>   2
Atom   9H    basis set group =>   2
Atom  10C    basis set group =>   1
Atom  11H    basis set group =>   2
Atom  12H    basis set group =>   2
Atom  13C    basis set group =>   1
Atom  14H    basis set group =>   2
Atom  15H    basis set group =>   2
Atom  16C    basis set group =>   1
Atom  17N    basis set group =>   4
Atom  18O    basis set group =>   3
Atom  19C    basis set group =>   1
Atom  20H    basis set group =>   2
Atom  21H    basis set group =>   2
Atom  22H    basis set group =>   2
Atom  23C    basis set group =>   1
Atom  24H    basis set group =>   2
Atom  25H    basis set group =>   2
Atom  26H    basis set group =>   2
Atom  27S    basis set group =>   5
Atom  28C    basis set group =>   1
Atom  29H    basis set group =>   2
Atom  30H    basis set group =>   2
Atom  31H    basis set group =>   2


           ************************************************************
           *        Program running with 4 parallel MPI-processes     *
           *              working on a common directory               *
           ************************************************************
------------------------------------------------------------------------------
                           ORCA GTO INTEGRAL CALCULATION
                           -- RI-GTO INTEGRALS CHOSEN --
------------------------------------------------------------------------------
------------------------------------------------------------------------------
                   ___                                                        
                  /   \      - P O W E R E D   B Y -                         
                 /     \                                                     
                 |  |  |   _    _      __       _____    __    __             
                 |  |  |  | |  | |    /  \     |  _  \  |  |  /  |          
                  \  \/   | |  | |   /    \    | | | |  |  | /  /          
                 / \  \   | |__| |  /  /\  \   | |_| |  |  |/  /          
                |  |  |   |  __  | /  /__\  \  |    /   |      \           
                |  |  |   | |  | | |   __   |  |    \   |  |\   \          
                \     /   | |  | | |  |  |  |  | |\  \  |  | \   \       
                 \___/    |_|  |_| |__|  |__|  |_| \__\ |__|  \__/        
                                                                              
                      - O R C A' S   B I G   F R I E N D -                    
                                      &                                       
                       - I N T E G R A L  F E E D E R -                       
                                                                              
 v1 FN, 2020, v2 2021                                                         
------------------------------------------------------------------------------


Reading SHARK input file Nm_water.SHARKINP.tmp ... ok
----------------------
SHARK INTEGRAL PACKAGE
----------------------

Number of atoms                             ...     32
Number of basis functions                   ...    236
Number of shells                            ...    122
Maximum angular momentum                    ...      2
Integral batch strategy                     ... SHARK/LIBINT Hybrid
RI-J (if used) integral strategy            ... SPLIT-RIJ (Revised 2003 algorithm where possible)
Printlevel                                  ...      1
Contraction scheme used                     ... SEGMENTED contraction
Coulomb Range Separation                    ... NOT USED
Exchange Range Separation                   ... NOT USED
Finite Nucleus Model                        ... NOT USED
Auxiliary Coulomb fitting basis             ... AVAILABLE
   # of basis functions in Aux-J            ...   1864
   # of shells in Aux-J                     ...    720
   Maximum angular momentum in Aux-J        ...      3
Auxiliary J/K fitting basis                 ... AVAILABLE
   # of basis functions in Aux-JK           ...   1864
   # of shells in Aux-JK                    ...    720
   Maximum angular momentum in Aux-JK       ...      3
Auxiliary Correlation fitting basis         ... AVAILABLE
   # of basis functions in Aux-C            ...   1864
   # of shells in Aux-C                     ...    720
   Maximum angular momentum in Aux-C        ...      3
Auxiliary 'external' fitting basis          ... NOT available
Integral threshold                          ...     2.500000e-11
Primitive cut-off                           ...     2.500000e-12
Primitive pair pre-selection threshold      ...     2.500000e-12

Calculating pre-screening integrals         ... done (  0.0 sec) Dimension = 122
Organizing shell pair data                  ... done (  0.4 sec)
Shell pair information
Total number of shell pairs                 ...      7503
Shell pairs after pre-screening             ...      6525
Total number of primitive shell pairs       ...     43743
Primitive shell pairs kept                  ...     21887
          la=0 lb=0:   2653 shell pairs
          la=1 lb=0:   2085 shell pairs
          la=1 lb=1:    415 shell pairs
          la=2 lb=0:    912 shell pairs
          la=2 lb=1:    370 shell pairs
          la=2 lb=2:     90 shell pairs

Calculating one electron integrals          ... done (  0.0 sec)
Calculating RI/J V-Matrix + Cholesky decomp.... done (  0.2 sec)
Calculating RI/JK V-Matrix + Cholesky decomp... done (  0.2 sec)
Calculating RI/C V-Matrix + Cholesky decomp.... done (  0.2 sec)
Calculating Nuclear repulsion               ... done (  0.0 sec) ENN=   1104.911730166790 Eh

SHARK setup successfully completed in   1.6 seconds

Maximum memory used throughout the entire GTOINT-calculation: 31.3 MB


           ************************************************************
           *        Program running with 4 parallel MPI-processes     *
           *              working on a common directory               *
           ************************************************************
-------------------------------------------------------------------------------
                                 ORCA SCF
-------------------------------------------------------------------------------

------------
SCF SETTINGS
------------
Hamiltonian:
 Density Functional     Method          .... DFT(GTOs)
 Exchange Functional    Exchange        .... B88
   X-Alpha parameter    XAlpha          ....  0.666667
   Becke's b parameter  XBeta           ....  0.004200
 Correlation Functional Correlation     .... LYP
 LDA part of GGA corr.  LDAOpt          .... VWN-5
 Gradients option       PostSCFGGA      .... off
 Hybrid DFT is turned on
   Fraction HF Exchange ScalHFX         ....  0.200000
   Scaling of DF-GGA-X  ScalDFX         ....  0.720000
   Scaling of DF-GGA-C  ScalDFC         ....  0.810000
   Scaling of DF-LDA-C  ScalLDAC        ....  1.000000
   Perturbative correction              ....  0.000000
   Density functional embedding theory  .... OFF
   NL short-range parameter             ....  4.800000
 RI-approximation to the Coulomb term is turned on
   Number of AuxJ basis functions       .... 1864
   RIJ-COSX (HFX calculated with COS-X)).... on


General Settings:
 Integral files         IntName         .... Nm_water
 Hartree-Fock type      HFTyp           .... RHF
 Total Charge           Charge          ....    0
 Multiplicity           Mult            ....    1
 Number of Electrons    NEL             ....  118
 Basis Dimension        Dim             ....  236
 Nuclear Repulsion      ENuc            ....   1104.9117301668 Eh

Convergence Acceleration:
 DIIS                   CNVDIIS         .... on
   Start iteration      DIISMaxIt       ....    12
   Startup error        DIISStart       ....  0.200000
   # of expansion vecs  DIISMaxEq       ....     5
   Bias factor          DIISBfac        ....   1.050
   Max. coefficient     DIISMaxC        ....  10.000
 Trust-Rad. Augm. Hess. CNVTRAH         .... auto
   Auto Start mean grad. ratio tolernc. ....  1.125000
   Auto Start start iteration           ....    20
   Auto Start num. interpolation iter.  ....    10
   Max. Number of Micro iterations      ....    16
   Max. Number of Macro iterations      .... Maxiter - #DIIS iter
   Number of Davidson start vectors     ....     2
   Converg. threshold I  (grad. norm)   ....   1.000e-05
   Converg. threshold II (energy diff.) ....   1.000e-08
   Grad. Scal. Fac. for Micro threshold ....   0.100
   Minimum threshold for Micro iter.    ....   0.010
   NR start threshold (gradient norm)   ....   0.001
   Initial trust radius                 ....   0.400
   Minimum AH scaling param. (alpha)    ....   1.000
   Maximum AH scaling param. (alpha)    .... 1000.000
   Orbital update algorithm             .... Taylor
   White noise on init. David. guess    .... on
   Maximum white noise                  ....   0.010
   Quad. conv. algorithm                .... NR
 SOSCF                  CNVSOSCF        .... on
   Start iteration      SOSCFMaxIt      ....   150
   Startup grad/error   SOSCFStart      ....  0.003300
 Level Shifting         CNVShift        .... on
   Level shift para.    LevelShift      ....    0.2500
   Turn off err/grad.   ShiftErr        ....    0.0010
 Zerner damping         CNVZerner       .... off
 Static damping         CNVDamp         .... on
   Fraction old density DampFac         ....    0.7000
   Max. Damping (<1)    DampMax         ....    0.9800
   Min. Damping (>=0)   DampMin         ....    0.0000
   Turn off err/grad.   DampErr         ....    0.1000
 Fernandez-Rico         CNVRico         .... off

SCF Procedure:
 Maximum # iterations   MaxIter         ....   125
 SCF integral mode      SCFMode         .... Direct
   Integral package                     .... SHARK and LIBINT hybrid scheme
 Reset frequency        DirectResetFreq ....    20
 Integral Threshold     Thresh          ....  2.500e-11 Eh
 Primitive CutOff       TCut            ....  2.500e-12 Eh

Convergence Tolerance:
 Convergence Check Mode ConvCheckMode   .... Total+1el-Energy
 Convergence forced     ConvForced      .... 0
 Energy Change          TolE            ....  1.000e-08 Eh
 1-El. energy change                    ....  1.000e-05 Eh
 Orbital Gradient       TolG            ....  1.000e-05
 Orbital Rotation angle TolX            ....  1.000e-05
 DIIS Error             TolErr          ....  5.000e-07


Diagonalization of the overlap matrix:
Smallest eigenvalue                        ... 3.272e-03
Time for diagonalization                   ...    0.010 sec
Threshold for overlap eigenvalues          ... 1.000e-08
Number of eigenvalues below threshold      ... 0
Time for construction of square roots      ...    0.009 sec
Total time needed                          ...    0.021 sec

Time for model grid setup =    0.272 sec

------------------------------
INITIAL GUESS: MODEL POTENTIAL
------------------------------
Loading Hartree-Fock densities                     ... done
Calculating cut-offs                               ... done
Initializing the effective Hamiltonian             ... done
Setting up the integral package (SHARK)            ... done
Starting the Coulomb interaction                   ... done (   0.2 sec)
Reading the grid                                   ... done
Mapping shells                                     ... done
Starting the XC term evaluation                    ... done (   0.2 sec)
  promolecular density results
     # of electrons  =    117.984518834
     EX              =   -106.208635533
     EC              =     -4.086289889
     EX+EC           =   -110.294925422
Transforming the Hamiltonian                       ... done (   0.0 sec)
Diagonalizing the Hamiltonian                      ... done (   0.0 sec)
Back transforming the eigenvectors                 ... done (   0.0 sec)
Now organizing SCF variables                       ... done
                      ------------------
                      INITIAL GUESS DONE (   0.6 sec)
                      ------------------
-------------------
DFT GRID GENERATION
-------------------

General Integration Accuracy     IntAcc      ... 4.388
Radial Grid Type                 RadialGrid  ... OptM3 with GC (2021)
Angular Grid (max. ang.)         AngularGrid ... 4 (Lebedev-302)
Angular grid pruning method      GridPruning ... 4 (adaptive)
Weight generation scheme         WeightScheme... Becke
Basis function cutoff            BFCut       ... 1.0000e-11
Integration weight cutoff        WCut        ... 1.0000e-14
Angular grids for H and He will be reduced by one unit
Partially contracted basis set               ... off
Rotationally invariant grid construction     ... off

Total number of grid points                  ...   142195
Total number of batches                      ...     2239
Average number of points per batch           ...       63
Average number of grid points per atom       ...     4444
Time for grid setup =    1.172 sec

--------------------
COSX GRID GENERATION
--------------------

GRIDX 1
-------
General Integration Accuracy     IntAcc      ... 3.816
Radial Grid Type                 RadialGrid  ... OptM3 with GC (2021)
Angular Grid (max. ang.)         AngularGrid ... 1 (Lebedev-50)
Angular grid pruning method      GridPruning ... 4 (adaptive)
Weight generation scheme         WeightScheme... Becke
Basis function cutoff            BFCut       ... 1.0000e-11
Integration weight cutoff        WCut        ... 1.0000e-14
Angular grids for H and He will be reduced by one unit
Partially contracted basis set               ... on
Rotationally invariant grid construction     ... off

Total number of grid points                  ...    18054
Total number of batches                      ...      301
Average number of points per batch           ...       59
Average number of grid points per atom       ...      564
UseSFitting                                  ... on

GRIDX 2
-------
General Integration Accuracy     IntAcc      ... 4.020
Radial Grid Type                 RadialGrid  ... OptM3 with GC (2021)
Angular Grid (max. ang.)         AngularGrid ... 2 (Lebedev-110)
Angular grid pruning method      GridPruning ... 4 (adaptive)
Weight generation scheme         WeightScheme... Becke
Basis function cutoff            BFCut       ... 1.0000e-11
Integration weight cutoff        WCut        ... 1.0000e-14
Angular grids for H and He will be reduced by one unit
Partially contracted basis set               ... on
Rotationally invariant grid construction     ... off

Total number of grid points                  ...    38040
Total number of batches                      ...      612
Average number of points per batch           ...       62
Average number of grid points per atom       ...     1189
UseSFitting                                  ... on

GRIDX 3
-------
General Integration Accuracy     IntAcc      ... 4.338
Radial Grid Type                 RadialGrid  ... OptM3 with GC (2021)
Angular Grid (max. ang.)         AngularGrid ... 3 (Lebedev-194)
Angular grid pruning method      GridPruning ... 4 (adaptive)
Weight generation scheme         WeightScheme... Becke
Basis function cutoff            BFCut       ... 1.0000e-11
Integration weight cutoff        WCut        ... 1.0000e-14
Angular grids for H and He will be reduced by one unit
Partially contracted basis set               ... on
Rotationally invariant grid construction     ... off

Total number of grid points                  ...    83359
Total number of batches                      ...     1322
Average number of points per batch           ...       63
Average number of grid points per atom       ...     2605
UseSFitting                                  ... on

Time for X-Grid setup             =    1.522 sec


--------------------
CPCM SOLVATION MODEL
--------------------
CPCM parameters:
  Epsilon                                         ...      80.4000
  Refrac                                          ...       1.3300
  Rsolv                                           ...       1.3000
  Surface type                                    ... GAUSSIAN VDW
  Epsilon function type                           ...         CPCM
Radii:
 Radius for C  used is    3.8550 Bohr (=   2.0400 Ang.)
 Radius for H  used is    2.4944 Bohr (=   1.3200 Ang.)
 Radius for O  used is    3.4469 Bohr (=   1.8240 Ang.)
 Radius for N  used is    3.5149 Bohr (=   1.8600 Ang.)
 Radius for S  used is    4.0818 Bohr (=   2.1600 Ang.)
Calculating surface                               ...        done! (  0.0s)
GEPOL surface points                              ...         1667
GEPOL Volume                                      ...    1825.8902
GEPOL Surface-area                                ...     950.7175
Calculating surface distance matrix               ...        done! (  0.0s)
Performing Cholesky decomposition & store         ...        done! (  0.1s)
Overall time for CPCM initialization              ...                 0.1s
--------------
SCF ITERATIONS
--------------
ITER       Energy         Delta-E        Max-DP      RMS-DP      [F,P]     Damp
               ***  Starting incremental Fock matrix formation  ***
  0  -1011.1127914717   0.000000000000 0.09617595  0.00208747  0.2739480 0.7000
  1  -1011.3058657331  -0.193074261400 0.05543132  0.00139397  0.1116813 0.7000
                               ***Turning on DIIS***
  2  -1011.3792010371  -0.073335303972 0.07352943  0.00218876  0.0372725 0.0000
  3  -1011.4971953507  -0.117994313580 0.03689449  0.00094278  0.0554856 0.0000
  4  -1011.5218702600  -0.024674909328 0.00904329  0.00031039  0.0119237 0.0000
  5  -1011.5234384708  -0.001568210826 0.00376990  0.00009931  0.0059839 0.0000
                      *** Initiating the SOSCF procedure ***
                           *** Shutting down DIIS ***
                      *** Re-Reading the Fockian *** 
                      *** Removing any level shift *** 
ITER      Energy       Delta-E        Grad      Rot      Max-DP    RMS-DP
  6  -1011.52356844  -0.0001299687  0.000240  0.000240  0.001318  0.000042
               *** Restarting incremental Fock matrix formation ***
  7  -1011.52359921  -0.0000307678  0.000209  0.000846  0.001446  0.000024
  8  -1011.52359520   0.0000040098  0.000385  0.000587  0.000978  0.000015
  9  -1011.52360195  -0.0000067563  0.000048  0.000134  0.000226  0.000005
 10  -1011.52360172   0.0000002307  0.000097  0.000091  0.000169  0.000003
 11  -1011.52360204  -0.0000003199  0.000007  0.000008  0.000028  0.000001
 12  -1011.52360205  -0.0000000084  0.000007  0.000004  0.000013  0.000000
                  ***Gradient check signals convergence***
              ***Rediagonalizing the Fockian in SOSCF/NRSCF***

               *****************************************************
               *                     SUCCESS                       *
               *           SCF CONVERGED AFTER  13 CYCLES          *
               *****************************************************

Old exchange energy                            =    -21.576391999 Eh
New exchange energy                            =    -21.576374622 Eh
Exchange energy change after final integration =      0.000017376 Eh
Total energy after final integration           =  -1011.523584673 Eh
Final COS-X integration done in                =     9.747 sec

----------------
TOTAL SCF ENERGY
----------------

Total Energy       :        -1011.52358467 Eh          -27524.95608 eV

Components:
Nuclear Repulsion  :         1104.91173017 Eh           30066.17671 eV
Electronic Energy  :        -2116.43531484 Eh          -57591.13279 eV
One Electron Energy:        -3579.09136278 Eh          -97392.02730 eV
Two Electron Energy:         1462.65604794 Eh           39800.89450 eV
Max COSX asymmetry :            0.00000238 Eh               0.00006 eV
CPCM Dielectric    :           -0.02063551 Eh              -0.56152 eV

Virial components:
Potential Energy   :        -2018.74965934 Eh          -54932.97097 eV
Kinetic Energy     :         1007.22607467 Eh           27408.01489 eV
Virial Ratio       :            2.00426668


DFT components:
N(Alpha)           :       58.999991452780 electrons
N(Beta)            :       58.999991452780 electrons
N(Total)           :      117.999982905560 electrons
E(X)               :      -85.646542872340 Eh       
E(C)               :       -4.808261676724 Eh       
E(XC)              :      -90.454804549064 Eh       
DFET-embed. en.    :        0.000000000000 Eh       
CPCM Solvation Model Properties:
Surface-charge          :           -0.02255409
Charge-correction       :           -0.00015511 Eh              -0.00422 eV
Free-energy (cav+disp)  :  This term is not implemented in the current solvation scheme

---------------
SCF CONVERGENCE
---------------

  Last Energy change         ...    2.3235e-09  Tolerance :   1.0000e-08
  Last MAX-Density change    ...    3.1086e-15  Tolerance :   1.0000e-07
  Last RMS-Density change    ...    4.3181e-17  Tolerance :   5.0000e-09
  Last Orbital Gradient      ...    5.6582e-07  Tolerance :   1.0000e-05
  Last Orbital Rotation      ...    1.1096e-06  Tolerance :   1.0000e-05

             **** THE GBW FILE WAS UPDATED (Nm_water.gbw) ****
             **** DENSITY Nm_water.scfp WAS UPDATED ****
             **** ENERGY FILE WAS UPDATED (Nm_water.en.tmp) ****
             **** THE GBW FILE WAS UPDATED (Nm_water.gbw) ****
             **** DENSITY Nm_water.scfp WAS UPDATED ****
----------------
ORBITAL ENERGIES
----------------

  NO   OCC          E(Eh)            E(eV) 
   0   2.0000     -88.850071     -2417.7334 
   1   2.0000     -19.112806      -520.0859 
   2   2.0000     -19.110606      -520.0260 
   3   2.0000     -14.363484      -390.8503 
   4   2.0000     -14.360928      -390.7807 
   5   2.0000     -10.286650      -279.9140 
   6   2.0000     -10.281290      -279.7681 
   7   2.0000     -10.214382      -277.9475 
   8   2.0000     -10.211868      -277.8791 
   9   2.0000     -10.200130      -277.5596 
  10   2.0000     -10.198377      -277.5120 
  11   2.0000     -10.195177      -277.4249 
  12   2.0000     -10.187588      -277.2184 
  13   2.0000     -10.173438      -276.8333 
  14   2.0000      -7.926509      -215.6913 
  15   2.0000      -5.890826      -160.2975 
  16   2.0000      -5.887147      -160.1974 
  17   2.0000      -5.880496      -160.0164 
  18   2.0000      -1.034214       -28.1424 
  19   2.0000      -1.026678       -27.9373 
  20   2.0000      -0.937156       -25.5013 
  21   2.0000      -0.928765       -25.2730 
  22   2.0000      -0.807317       -21.9682 
  23   2.0000      -0.761603       -20.7243 
  24   2.0000      -0.735857       -20.0237 
  25   2.0000      -0.717876       -19.5344 
  26   2.0000      -0.706869       -19.2349 
  27   2.0000      -0.671790       -18.2803 
  28   2.0000      -0.660861       -17.9829 
  29   2.0000      -0.586643       -15.9634 
  30   2.0000      -0.553301       -15.0561 
  31   2.0000      -0.538355       -14.6494 
  32   2.0000      -0.513759       -13.9801 
  33   2.0000      -0.490228       -13.3398 
  34   2.0000      -0.480365       -13.0714 
  35   2.0000      -0.465292       -12.6612 
  36   2.0000      -0.457929       -12.4609 
  37   2.0000      -0.451782       -12.2936 
  38   2.0000      -0.446231       -12.1426 
  39   2.0000      -0.424536       -11.5522 
  40   2.0000      -0.416408       -11.3310 
  41   2.0000      -0.412574       -11.2267 
  42   2.0000      -0.403697       -10.9852 
  43   2.0000      -0.398746       -10.8504 
  44   2.0000      -0.395716       -10.7680 
  45   2.0000      -0.393454       -10.7064 
  46   2.0000      -0.388757       -10.5786 
  47   2.0000      -0.387946       -10.5565 
  48   2.0000      -0.375412       -10.2155 
  49   2.0000      -0.371085       -10.0977 
  50   2.0000      -0.359088        -9.7713 
  51   2.0000      -0.351393        -9.5619 
  52   2.0000      -0.346548        -9.4301 
  53   2.0000      -0.310333        -8.4446 
  54   2.0000      -0.261674        -7.1205 
  55   2.0000      -0.255168        -6.9435 
  56   2.0000      -0.242158        -6.5894 
  57   2.0000      -0.238113        -6.4794 
  58   2.0000      -0.220534        -6.0010 
  59   0.0000       0.009424         0.2565 
  60   0.0000       0.024749         0.6734 
  61   0.0000       0.048781         1.3274 
  62   0.0000       0.082925         2.2565 
  63   0.0000       0.092599         2.5198 
  64   0.0000       0.102057         2.7771 
  65   0.0000       0.116857         3.1798 
  66   0.0000       0.126300         3.4368 
  67   0.0000       0.134964         3.6726 
  68   0.0000       0.147038         4.0011 
  69   0.0000       0.150365         4.0916 
  70   0.0000       0.154762         4.2113 
  71   0.0000       0.164663         4.4807 
  72   0.0000       0.167259         4.5513 
  73   0.0000       0.171191         4.6583 
  74   0.0000       0.175707         4.7812 
  75   0.0000       0.183709         4.9990 
  76   0.0000       0.191118         5.2006 
  77   0.0000       0.193792         5.2733 
  78   0.0000       0.202535         5.5113 
  79   0.0000       0.209238         5.6937 
  80   0.0000       0.212300         5.7770 
  81   0.0000       0.223039         6.0692 
  82   0.0000       0.230247         6.2653 
  83   0.0000       0.235870         6.4183 
  84   0.0000       0.248627         6.7655 
  85   0.0000       0.254686         6.9303 
  86   0.0000       0.259566         7.0631 
  87   0.0000       0.284130         7.7316 
  88   0.0000       0.327874         8.9219 
  89   0.0000       0.355775         9.6811 
  90   0.0000       0.367616        10.0033 
  91   0.0000       0.370318        10.0769 
  92   0.0000       0.394601        10.7376 
  93   0.0000       0.400921        10.9096 
  94   0.0000       0.420994        11.4558 
  95   0.0000       0.437080        11.8936 
  96   0.0000       0.468129        12.7384 
  97   0.0000       0.482578        13.1316 
  98   0.0000       0.506829        13.7915 
  99   0.0000       0.515317        14.0225 
 100   0.0000       0.522669        14.2226 
 101   0.0000       0.531943        14.4749 
 102   0.0000       0.537580        14.6283 
 103   0.0000       0.547766        14.9055 
 104   0.0000       0.575261        15.6536 
 105   0.0000       0.588079        16.0024 
 106   0.0000       0.594791        16.1851 
 107   0.0000       0.600255        16.3338 
 108   0.0000       0.606038        16.4911 
 109   0.0000       0.614869        16.7314 
 110   0.0000       0.635986        17.3061 
 111   0.0000       0.645998        17.5785 
 112   0.0000       0.657232        17.8842 
 113   0.0000       0.672772        18.3070 
 114   0.0000       0.683016        18.5858 
 115   0.0000       0.704546        19.1717 
 116   0.0000       0.721872        19.6431 
 117   0.0000       0.724611        19.7177 
 118   0.0000       0.756328        20.5807 
 119   0.0000       0.764496        20.8030 
 120   0.0000       0.789430        21.4815 
 121   0.0000       0.798020        21.7152 
 122   0.0000       0.808417        21.9982 
 123   0.0000       0.826651        22.4943 
 124   0.0000       0.837388        22.7865 
 125   0.0000       0.840585        22.8735 
 126   0.0000       0.847449        23.0603 
 127   0.0000       0.860249        23.4086 
 128   0.0000       0.862619        23.4731 
 129   0.0000       0.874735        23.8027 
 130   0.0000       0.882641        24.0179 
 131   0.0000       0.886725        24.1290 
 132   0.0000       0.889482        24.2040 
 133   0.0000       0.894163        24.3314 
 134   0.0000       0.898669        24.4540 
 135   0.0000       0.912504        24.8305 
 136   0.0000       0.920402        25.0454 
 137   0.0000       0.925815        25.1927 
 138   0.0000       0.930274        25.3140 
 139   0.0000       0.944723        25.7072 
 140   0.0000       0.951151        25.8821 
 141   0.0000       0.965324        26.2678 
 142   0.0000       0.971505        26.4360 
 143   0.0000       0.979497        26.6535 
 144   0.0000       0.993024        27.0216 
 145   0.0000       1.004617        27.3370 
 146   0.0000       1.012070        27.5398 
 147   0.0000       1.017644        27.6915 
 148   0.0000       1.036502        28.2046 
 149   0.0000       1.051865        28.6227 
 150   0.0000       1.054817        28.7030 
 151   0.0000       1.079420        29.3725 
 152   0.0000       1.105589        30.0846 
 153   0.0000       1.128578        30.7102 
 154   0.0000       1.177226        32.0340 
 155   0.0000       1.181977        32.1632 
 156   0.0000       1.217931        33.1416 
 157   0.0000       1.238140        33.6915 
 158   0.0000       1.253593        34.1120 
 159   0.0000       1.286287        35.0016 
 160   0.0000       1.295579        35.2545 
 161   0.0000       1.319321        35.9006 
 162   0.0000       1.341492        36.5039 
 163   0.0000       1.363126        37.0926 
 164   0.0000       1.380813        37.5738 
 165   0.0000       1.407272        38.2938 
 166   0.0000       1.431393        38.9502 
 167   0.0000       1.434366        39.0311 
 168   0.0000       1.450751        39.4769 
 169   0.0000       1.462020        39.7836 
 170   0.0000       1.486754        40.4566 
 171   0.0000       1.556715        42.3604 
 172   0.0000       1.594463        43.3876 
 173   0.0000       1.644703        44.7547 
 174   0.0000       1.662237        45.2318 
 175   0.0000       1.711662        46.5767 
 176   0.0000       1.726719        46.9864 
 177   0.0000       1.733217        47.1632 
 178   0.0000       1.744755        47.4772 
 179   0.0000       1.759647        47.8824 
 180   0.0000       1.786279        48.6071 
 181   0.0000       1.803527        49.0765 
 182   0.0000       1.820755        49.5453 
 183   0.0000       1.838831        50.0371 
 184   0.0000       1.857928        50.5568 
 185   0.0000       1.867457        50.8161 
 186   0.0000       1.894341        51.5476 
 187   0.0000       1.897615        51.6367 
 188   0.0000       1.918484        52.2046 
 189   0.0000       1.938094        52.7382 
 190   0.0000       1.947711        52.9999 
 191   0.0000       1.958978        53.3065 
 192   0.0000       1.979463        53.8639 
 193   0.0000       1.981720        53.9253 
 194   0.0000       2.019273        54.9472 
 195   0.0000       2.036548        55.4173 
 196   0.0000       2.046823        55.6969 
 197   0.0000       2.076498        56.5044 
 198   0.0000       2.084010        56.7088 
 199   0.0000       2.088554        56.8325 
 200   0.0000       2.105139        57.2837 
 201   0.0000       2.125159        57.8285 
 202   0.0000       2.145491        58.3818 
 203   0.0000       2.189343        59.5750 
 204   0.0000       2.202413        59.9307 
 205   0.0000       2.208942        60.1084 
 206   0.0000       2.228658        60.6449 
 207   0.0000       2.253342        61.3166 
 208   0.0000       2.265413        61.6450 
 209   0.0000       2.268554        61.7305 
 210   0.0000       2.280953        62.0679 
 211   0.0000       2.288199        62.2650 
 212   0.0000       2.333513        63.4981 
 213   0.0000       2.335332        63.5476 
 214   0.0000       2.347720        63.8847 
 215   0.0000       2.369082        64.4660 
 216   0.0000       2.377028        64.6822 
 217   0.0000       2.417300        65.7781 
 218   0.0000       2.433148        66.2093 
 219   0.0000       2.475351        67.3577 
 220   0.0000       2.517156        68.4953 
 221   0.0000       2.549905        69.3864 
 222   0.0000       2.573650        70.0326 
 223   0.0000       2.618214        71.2452 
 224   0.0000       2.630576        71.5816 
 225   0.0000       2.643968        71.9460 
 226   0.0000       2.669683        72.6458 
 227   0.0000       2.706725        73.6537 
 228   0.0000       2.727476        74.2184 
 229   0.0000       2.749625        74.8211 
 230   0.0000       2.936084        79.8949 
 231   0.0000       2.951851        80.3240 
 232   0.0000       2.995457        81.5105 
 233   0.0000       3.008827        81.8743 
 234   0.0000       3.162212        86.0482 
 235   0.0000       3.181541        86.5741 

                    ********************************
                    * MULLIKEN POPULATION ANALYSIS *
                    ********************************

-----------------------
MULLIKEN ATOMIC CHARGES
-----------------------
   0 C :   -0.562135
   1 H :    0.195714
   2 H :    0.201356
   3 H :    0.182688
   4 C :    0.532643
   5 O :   -0.533568
   6 N :   -0.373793
   7 C :   -0.245825
   8 H :    0.184077
   9 H :    0.206392
  10 C :   -0.166733
  11 H :    0.188230
  12 H :    0.189044
  13 C :   -0.434849
  14 H :    0.204792
  15 H :    0.200710
  16 C :    0.517663
  17 N :   -0.358213
  18 O :   -0.540531
  19 C :   -0.348975
  20 H :    0.173222
  21 H :    0.174380
  22 H :    0.197122
  23 C :   -0.331337
  24 H :    0.173402
  25 H :    0.185245
  26 H :    0.173712
  27 S :    0.029828
  28 C :   -0.605482
  29 H :    0.199420
  30 H :    0.196122
  31 H :    0.195680
Sum of atomic charges:   -0.0000000

--------------------------------
MULLIKEN REDUCED ORBITAL CHARGES
--------------------------------
  0 C s       :     3.324241  s :     3.324241
      pz      :     1.081203  p :     3.205989
      px      :     1.111794
      py      :     1.012992
      dz2     :     0.002300  d :     0.031904
      dxz     :     0.009697
      dyz     :     0.008070
      dx2y2   :     0.005936
      dxy     :     0.005903
  1 H s       :     0.804286  s :     0.804286
  2 H s       :     0.798644  s :     0.798644
  3 H s       :     0.817312  s :     0.817312
  4 C s       :     2.983680  s :     2.983680
      pz      :     0.798094  p :     2.375874
      px      :     0.759993
      py      :     0.817787
      dz2     :     0.008872  d :     0.107803
      dxz     :     0.027927
      dyz     :     0.007414
      dx2y2   :     0.026356
      dxy     :     0.037234
  5 O s       :     3.863793  s :     3.863793
      pz      :     1.558447  p :     4.644820
      px      :     1.385104
      py      :     1.701269
      dz2     :     0.002402  d :     0.024955
      dxz     :     0.007900
      dyz     :     0.000631
      dx2y2   :     0.007393
      dxy     :     0.006629
  6 N s       :     3.533710  s :     3.533710
      pz      :     1.477631  p :     3.803563
      px      :     1.094332
      py      :     1.231600
      dz2     :     0.004856  d :     0.036520
      dxz     :     0.007016
      dyz     :     0.004919
      dx2y2   :     0.009833
      dxy     :     0.009896
  7 C s       :     3.249716  s :     3.249716
      pz      :     1.013063  p :     2.944244
      px      :     1.093854
      py      :     0.837327
      dz2     :     0.014406  d :     0.051865
      dxz     :     0.005011
      dyz     :     0.011134
      dx2y2   :     0.014225
      dxy     :     0.007089
  8 H s       :     0.815923  s :     0.815923
  9 H s       :     0.793608  s :     0.793608
 10 C s       :     3.217815  s :     3.217815
      pz      :     1.018384  p :     2.894768
      px      :     0.789042
      py      :     1.087342
      dz2     :     0.011221  d :     0.054149
      dxz     :     0.012939
      dyz     :     0.006180
      dx2y2   :     0.016478
      dxy     :     0.007331
 11 H s       :     0.811770  s :     0.811770
 12 H s       :     0.810956  s :     0.810956
 13 C s       :     3.332800  s :     3.332800
      pz      :     1.038588  p :     3.061677
      px      :     0.904271
      py      :     1.118818
      dz2     :     0.009140  d :     0.040372
      dxz     :     0.007671
      dyz     :     0.007172
      dx2y2   :     0.010582
      dxy     :     0.005807
 14 H s       :     0.795208  s :     0.795208
 15 H s       :     0.799290  s :     0.799290
 16 C s       :     2.988679  s :     2.988679
      pz      :     0.780987  p :     2.386326
      px      :     0.768224
      py      :     0.837114
      dz2     :     0.027793  d :     0.107332
      dxz     :     0.023209
      dyz     :     0.016275
      dx2y2   :     0.016752
      dxy     :     0.023304
 17 N s       :     3.533228  s :     3.533228
      pz      :     1.195635  p :     3.787146
      px      :     1.315495
      py      :     1.276015
      dz2     :     0.008162  d :     0.037839
      dxz     :     0.007994
      dyz     :     0.008256
      dx2y2   :     0.005637
      dxy     :     0.007790
 18 O s       :     3.864561  s :     3.864561
      pz      :     1.633186  p :     4.651279
      px      :     1.385114
      py      :     1.632980
      dz2     :     0.003865  d :     0.024691
      dxz     :     0.006096
      dyz     :     0.003135
      dx2y2   :     0.006487
      dxy     :     0.005108
 19 C s       :     3.270018  s :     3.270018
      pz      :     1.010526  p :     3.030858
      px      :     0.945216
      py      :     1.075117
      dz2     :     0.007509  d :     0.048099
      dxz     :     0.011876
      dyz     :     0.010689
      dx2y2   :     0.005019
      dxy     :     0.013006
 20 H s       :     0.826778  s :     0.826778
 21 H s       :     0.825620  s :     0.825620
 22 H s       :     0.802878  s :     0.802878
 23 C s       :     3.259989  s :     3.259989
      pz      :     1.064429  p :     3.023551
      px      :     1.039150
      py      :     0.919972
      dz2     :     0.005524  d :     0.047798
      dxz     :     0.013434
      dyz     :     0.009423
      dx2y2   :     0.006142
      dxy     :     0.013276
 24 H s       :     0.826598  s :     0.826598
 25 H s       :     0.814755  s :     0.814755
 26 H s       :     0.826288  s :     0.826288
 27 S s       :     5.838869  s :     5.838869
      pz      :     3.464502  p :    10.063134
      px      :     3.023057
      py      :     3.575576
      dz2     :     0.012668  d :     0.068169
      dxz     :     0.009221
      dyz     :     0.015347
      dx2y2   :     0.021398
      dxy     :     0.009535
 28 C s       :     3.378070  s :     3.378070
      pz      :     1.024927  p :     3.193186
      px      :     1.122473
      py      :     1.045786
      dz2     :     0.011947  d :     0.034226
      dxz     :     0.001882
      dyz     :     0.007241
      dx2y2   :     0.006272
      dxy     :     0.006885
 29 H s       :     0.800580  s :     0.800580
 30 H s       :     0.803878  s :     0.803878
 31 H s       :     0.804320  s :     0.804320


                     *******************************
                     * LOEWDIN POPULATION ANALYSIS *
                     *******************************

----------------------
LOEWDIN ATOMIC CHARGES
----------------------
   0 C :   -0.392639
   1 H :    0.154343
   2 H :    0.160436
   3 H :    0.151414
   4 C :    0.119953
   5 O :   -0.335870
   6 N :   -0.069329
   7 C :   -0.177855
   8 H :    0.146417
   9 H :    0.160002
  10 C :   -0.169090
  11 H :    0.147015
  12 H :    0.145527
  13 C :   -0.348291
  14 H :    0.146569
  15 H :    0.152384
  16 C :    0.096342
  17 N :   -0.067162
  18 O :   -0.340620
  19 C :   -0.286687
  20 H :    0.134062
  21 H :    0.137150
  22 H :    0.149890
  23 C :   -0.280913
  24 H :    0.133122
  25 H :    0.147462
  26 H :    0.137986
  27 S :    0.083917
  28 C :   -0.478393
  29 H :    0.147646
  30 H :    0.153673
  31 H :    0.141539

-------------------------------
LOEWDIN REDUCED ORBITAL CHARGES
-------------------------------
  0 C s       :     2.981388  s :     2.981388
      pz      :     1.126831  p :     3.348499
      px      :     1.144734
      py      :     1.076933
      dz2     :     0.004228  d :     0.062753
      dxz     :     0.017879
      dyz     :     0.016422
      dx2y2   :     0.012185
      dxy     :     0.012038
  1 H s       :     0.845657  s :     0.845657
  2 H s       :     0.839564  s :     0.839564
  3 H s       :     0.848586  s :     0.848586
  4 C s       :     2.850381  s :     2.850381
      pz      :     0.839043  p :     2.775580
      px      :     0.979564
      py      :     0.956974
      dz2     :     0.020127  d :     0.254085
      dxz     :     0.063212
      dyz     :     0.015122
      dx2y2   :     0.064083
      dxy     :     0.091541
  5 O s       :     3.565490  s :     3.565490
      pz      :     1.549430  p :     4.719149
      px      :     1.467073
      py      :     1.702646
      dz2     :     0.006253  d :     0.051231
      dxz     :     0.012130
      dyz     :     0.001038
      dx2y2   :     0.018057
      dxy     :     0.013753
  6 N s       :     3.095523  s :     3.095523
      pz      :     1.460675  p :     3.878651
      px      :     1.160114
      py      :     1.257862
      dz2     :     0.010856  d :     0.095155
      dxz     :     0.017273
      dyz     :     0.012130
      dx2y2   :     0.026828
      dxy     :     0.028068
  7 C s       :     2.930801  s :     2.930801
      pz      :     1.064719  p :     3.137304
      px      :     1.126326
      py      :     0.946259
      dz2     :     0.029459  d :     0.109750
      dxz     :     0.009015
      dyz     :     0.024849
      dx2y2   :     0.030465
      dxy     :     0.015962
  8 H s       :     0.853583  s :     0.853583
  9 H s       :     0.839998  s :     0.839998
 10 C s       :     2.925493  s :     2.925493
      pz      :     1.096334  p :     3.128324
      px      :     0.906325
      py      :     1.125666
      dz2     :     0.023226  d :     0.115273
      dxz     :     0.029801
      dyz     :     0.011957
      dx2y2   :     0.034258
      dxy     :     0.016031
 11 H s       :     0.852985  s :     0.852985
 12 H s       :     0.854473  s :     0.854473
 13 C s       :     2.993052  s :     2.993052
      pz      :     1.105911  p :     3.270271
      px      :     1.018572
      py      :     1.145788
      dz2     :     0.019459  d :     0.084968
      dxz     :     0.017018
      dyz     :     0.013988
      dx2y2   :     0.022667
      dxy     :     0.011836
 14 H s       :     0.853431  s :     0.853431
 15 H s       :     0.847616  s :     0.847616
 16 C s       :     2.854567  s :     2.854567
      pz      :     0.922929  p :     2.795036
      px      :     0.937126
[...]
     61       0.000721   0.000144   0.014355   0.000362  -0.013943  -0.075503
     62      -0.001072  -0.000209  -0.020063  -0.000433   0.018183   0.105389
     63       0.000928   0.000391  -0.023719  -0.001266   0.029189   0.135578
     64       0.000936   0.000445  -0.025828  -0.001342   0.031765   0.157068
     65       0.000457   0.000232  -0.010185  -0.000546   0.013826   0.065360
     66      -0.002910  -0.000178   0.081549   0.003846  -0.093703  -0.495848
     67       0.003856   0.000222  -0.105544  -0.005133   0.119352   0.626712
     68       0.002889   0.000174  -0.079318  -0.003776   0.090229   0.473255
     69      -0.000745   0.000030   0.000347   0.000083  -0.051096   0.009202
     70      -0.000303  -0.000174  -0.000261   0.000009   0.023772  -0.004446
     71       0.000227   0.000246   0.000044   0.000015  -0.069349   0.013236
     72       0.004359   0.000971  -0.001164  -0.000262  -0.089207   0.017748
     73       0.002240   0.000567  -0.000330  -0.000145  -0.043595   0.009071
     74      -0.005461  -0.001190   0.001651   0.000350   0.091409  -0.019111
     75       0.001253  -0.001513  -0.002374  -0.000353   0.518266  -0.100070
     76      -0.001006   0.001236   0.001948   0.000291  -0.407472   0.079350
     77       0.001641  -0.001923  -0.002699  -0.000424   0.657784  -0.126660
     78       0.002666   0.000306   0.000133  -0.000306   0.180699  -0.031932
     79       0.002535   0.000273   0.000258  -0.000304   0.175641  -0.029500
     80       0.001384   0.000200   0.000167  -0.000158   0.087008  -0.015040
     81       0.000100   0.000082   0.000008  -0.000010   0.000001   0.000003
     82      -0.000003  -0.000068  -0.000005  -0.000006  -0.000001  -0.000004
     83       0.000045   0.000070  -0.000002  -0.000006  -0.000001  -0.000003
     84      -0.007126   0.090744  -0.000122  -0.000031   0.000218  -0.000068
     85       0.013590   0.025338   0.000218  -0.000302   0.000209  -0.000062
     86       0.016023  -0.004379   0.000273  -0.000298   0.000097  -0.000024
     87      -0.054291  -0.302236  -0.000859   0.001603  -0.001616   0.000481
     88      -0.077678  -0.500126  -0.001142   0.002268  -0.002537   0.000738
     89      -0.016831  -0.118446  -0.000229   0.000593  -0.000562   0.000169
     90       0.097566  -0.769445   0.001587  -0.000151  -0.001222   0.000420
     91      -0.014749   0.150117  -0.000236  -0.000174   0.000254  -0.000107
     92      -0.005439   0.062848  -0.000100   0.000031   0.000129  -0.000039
     93       0.039886  -0.007558   0.000698  -0.000863   0.000196  -0.000058
     94      -0.065270   0.047921  -0.001153   0.001236  -0.000223   0.000034
     95      -0.171113   0.108726  -0.002968   0.003253  -0.000657   0.000135


-----------
IR SPECTRUM
-----------

 Mode   freq       eps      Int      T**2         TX        TY        TZ
       cm**-1   L/(mol*cm) km/mol    a.u.
----------------------------------------------------------------------------
  6:     34.78   0.000377    1.91  0.003386  ( 0.025415  0.000809 -0.052336)
  7:     44.57   0.000575    2.91  0.004028  (-0.028012 -0.051873  0.023508)
  8:     50.85   0.000574    2.90  0.003524  ( 0.053504  0.025276 -0.004725)
  9:     59.90   0.000675    3.41  0.003519  (-0.039603  0.040214 -0.018246)
 10:     73.33   0.001383    6.99  0.005885  (-0.048407 -0.021579  0.055461)
 11:     85.92   0.000581    2.93  0.002109  (-0.004081  0.038798 -0.024233)
 12:    102.23   0.003104   15.69  0.009476  ( 0.017214 -0.072396 -0.062756)
 13:    123.91   0.001126    5.69  0.002836  ( 0.012995  0.035745  0.037269)
 14:    134.69   0.001246    6.30  0.002886  (-0.008377 -0.053053 -0.001241)
 15:    152.76   0.000131    0.66  0.000268  ( 0.010409  0.011869  0.004343)
 16:    160.13   0.000338    1.71  0.000658  ( 0.002262  0.021407 -0.013963)
 17:    168.34   0.000007    0.04  0.000013  ( 0.001656 -0.000474  0.003168)
 18:    208.95   0.000797    4.03  0.001191  (-0.009314 -0.032874 -0.004822)
 19:    227.52   0.000185    0.94  0.000254  ( 0.011736 -0.006092 -0.008895)
 20:    256.86   0.001713    8.65  0.002081  (-0.022013 -0.034795  0.019629)
 21:    277.27   0.001360    6.87  0.001531  ( 0.026491  0.028268  0.005495)
 22:    315.48   0.000565    2.86  0.000559  (-0.022014 -0.004805  0.007167)
 23:    351.86   0.002995   15.13  0.002656  (-0.013412 -0.012158 -0.048252)
 24:    374.04   0.003385   17.11  0.002824  (-0.016330  0.044921  0.023233)
 25:    384.86   0.001830    9.25  0.001484  (-0.007271  0.018014  0.033261)
 26:    432.58   0.000105    0.53  0.000076  ( 0.001894  0.008513 -0.000018)
 27:    461.79   0.002898   14.65  0.001958  ( 0.043562 -0.005996 -0.004982)
 28:    494.75   0.004616   23.33  0.002911  ( 0.020490  0.039673 -0.030293)
 29:    579.66   0.004194   21.20  0.002258  (-0.023534  0.036496  0.019294)
 30:    600.25   0.002611   13.20  0.001358  ( 0.026195 -0.022555 -0.012754)
 31:    626.35   0.004882   24.67  0.002433  ( 0.026769  0.004846  0.041140)
 32:    687.12   0.002674   13.51  0.001214  ( 0.011947  0.017006 -0.027970)
 33:    699.33   0.000987    4.99  0.000441  (-0.015323 -0.013337 -0.005288)
 34:    741.28   0.001806    9.13  0.000760  ( 0.016582  0.018978 -0.011184)
 35:    760.42   0.003237   16.36  0.001328  (-0.003480  0.033641  0.013587)
 36:    784.64   0.002752   13.91  0.001095  (-0.030750  0.007344 -0.009758)
 37:    831.49   0.004356   22.01  0.001635  ( 0.016895  0.021459  0.029816)
 38:    958.13   0.000546    2.76  0.000178  (-0.009146  0.000066 -0.009706)
 39:    969.24   0.002831   14.31  0.000911  (-0.015349 -0.022249  0.013447)
 40:    991.85   0.001729    8.74  0.000544  ( 0.007222 -0.009194 -0.020179)
 41:   1002.30   0.005579   28.20  0.001737  ( 0.009376  0.014661  0.037871)
 42:   1011.17   0.007393   37.36  0.002281  (-0.038363  0.026459  0.010472)
 43:   1036.04   0.002514   12.71  0.000757  (-0.003332  0.014335  0.023253)
 44:   1048.57   0.006695   33.83  0.001992  ( 0.041770 -0.013396  0.008260)
 45:   1062.61   0.002322   11.73  0.000682  (-0.005267 -0.011487 -0.022853)
 46:   1088.08   0.002766   13.98  0.000793  ( 0.020625 -0.018461  0.005212)
 47:   1101.80   0.003712   18.76  0.001051  (-0.003276  0.003137 -0.032105)
 48:   1134.70   0.000601    3.04  0.000165  (-0.003284  0.012356 -0.001318)
 49:   1168.28   0.016168   81.70  0.004319  (-0.043090 -0.031571 -0.038277)
 50:   1183.81   0.000992    5.01  0.000262  (-0.008212 -0.006564 -0.012288)
 51:   1218.20   0.010584   53.49  0.002711  (-0.001645  0.016390 -0.049396)
 52:   1250.43   0.017163   86.74  0.004283  ( 0.043126 -0.046853  0.015106)
 53:   1284.70   0.007126   36.01  0.001731  ( 0.001140  0.004419  0.041353)
 54:   1289.13   0.024790  125.28  0.006001  ( 0.044047 -0.063163  0.008443)
 55:   1291.46   0.011200   56.60  0.002706  ( 0.005258 -0.048184  0.018895)
 56:   1340.62   0.006035   30.50  0.001405  ( 0.029366 -0.022013  0.007606)
 57:   1371.01   0.000477    2.41  0.000109  ( 0.007436  0.004276  0.005920)
 58:   1384.30   0.000820    4.14  0.000185  ( 0.002871  0.004051 -0.012658)
 59:   1403.59   0.010351   52.31  0.002301  ( 0.047123 -0.004865 -0.007558)
 60:   1416.63   0.004091   20.68  0.000901  ( 0.011114 -0.023449  0.015096)
 61:   1440.65   0.013868   70.09  0.003004  ( 0.015665  0.024670  0.046369)
 62:   1457.10   0.018138   91.66  0.003885  ( 0.001259 -0.051033 -0.035760)
 63:   1473.44   0.043623  220.45  0.009239  ( 0.073224 -0.054716  0.029721)
 64:   1478.27   0.010885   55.01  0.002298  ( 0.033821 -0.033962  0.000669)
 65:   1481.36   0.004657   23.54  0.000981  (-0.030118 -0.005486  0.006627)
 66:   1487.32   0.001487    7.51  0.000312  ( 0.005370 -0.015489 -0.006575)
 67:   1489.74   0.000850    4.29  0.000178  ( 0.004295 -0.008123  0.009672)
 68:   1499.84   0.001761    8.90  0.000366  (-0.015346 -0.009538 -0.006326)
 69:   1503.08   0.003671   18.55  0.000762  ( 0.001531  0.009777 -0.025774)
 70:   1504.12   0.003806   19.24  0.000790  ( 0.006099  0.026487  0.007136)
 71:   1509.06   0.001236    6.25  0.000256  ( 0.008791 -0.012419  0.004905)
 72:   1516.77   0.003797   19.19  0.000781  ( 0.017509  0.021075 -0.005521)
 73:   1528.59   0.008944   45.20  0.001826  (-0.036736  0.004739 -0.021307)
 74:   1532.10   0.006833   34.53  0.001392  (-0.004705 -0.020639  0.030719)
 75:   1554.98   0.017417   88.02  0.003495  ( 0.009095 -0.037621 -0.044690)
 76:   1703.37   0.206215  1042.13  0.037779  ( 0.176149 -0.011807  0.081311)
 77:   1708.49   0.039290  198.56  0.007177  (-0.023428 -0.014801  0.080054)
 78:   3036.27   0.005178   26.17  0.000532  (-0.018121  0.013763 -0.003795)
 79:   3040.76   0.018657   94.29  0.001915  ( 0.001202 -0.006749 -0.043218)
 80:   3066.98   0.000942    4.76  0.000096  (-0.003628 -0.008177  0.003982)
 81:   3067.09   0.004283   21.65  0.000436  (-0.005047  0.013062 -0.015483)
 82:   3085.76   0.006472   32.71  0.000655  ( 0.003203 -0.007838  0.024143)
 83:   3093.28   0.000406    2.05  0.000041  (-0.004660  0.001958 -0.003924)
 84:   3098.86   0.012299   62.15  0.001239  ( 0.024859  0.024892  0.000982)
 85:   3103.20   0.006837   34.55  0.000688  (-0.014266 -0.005833 -0.021213)
 86:   3105.45   0.006752   34.12  0.000679  ( 0.017710  0.018994  0.002033)
 87:   3133.09   0.001856    9.38  0.000185  ( 0.000909 -0.003854 -0.013009)
 88:   3140.29   0.000131    0.66  0.000013  ( 0.003046 -0.001915  0.000328)
 89:   3153.37   0.003310   16.73  0.000328  ( 0.003461 -0.012246 -0.012871)
 90:   3158.81   0.005214   26.35  0.000515  ( 0.000428 -0.020350  0.010040)
 91:   3162.05   0.001191    6.02  0.000118  ( 0.010534  0.002516 -0.000504)
 92:   3168.07   0.001475    7.45  0.000145  (-0.001179  0.011216  0.004252)
 93:   3172.53   0.002647   13.38  0.000260  ( 0.015128 -0.004689  0.003088)
 94:   3191.10   0.001067    5.39  0.000104  (-0.005042  0.007587 -0.004624)
 95:   3194.29   0.000468    2.37  0.000046  ( 0.004402  0.005050 -0.000928)

* The epsilon (eps) is given for a Dirac delta lineshape.
** The dipole moment derivative (T) already includes vibrational overlap.

The first frequency considered to be a vibration is 6
The total number of vibrations considered is 90


--------------------------
THERMOCHEMISTRY AT 298.15K
--------------------------

Temperature         ... 298.15 K
Pressure            ... 1.00 atm
Total Mass          ... 218.31 AMU

Throughout the following assumptions are being made:
  (1) The electronic state is orbitally nondegenerate
  (2) There are no thermally accessible electronically excited states
  (3) Hindered rotations indicated by low frequency modes are not
      treated as such but are treated as vibrations and this may
      cause some error
  (4) All equations used are the standard statistical mechanics
      equations for an ideal gas
  (5) All vibrations are strictly harmonic

freq.      34.78  E(vib)   ...       0.54 
freq.      44.57  E(vib)   ...       0.53 
freq.      50.85  E(vib)   ...       0.52 
freq.      59.90  E(vib)   ...       0.51 
freq.      73.33  E(vib)   ...       0.49 
freq.      85.92  E(vib)   ...       0.48 
freq.     102.23  E(vib)   ...       0.46 
freq.     123.91  E(vib)   ...       0.43 
freq.     134.69  E(vib)   ...       0.42 
freq.     152.76  E(vib)   ...       0.40 
freq.     160.13  E(vib)   ...       0.39 
freq.     168.34  E(vib)   ...       0.38 
freq.     208.95  E(vib)   ...       0.34 
freq.     227.52  E(vib)   ...       0.33 
freq.     256.86  E(vib)   ...       0.30 
freq.     277.27  E(vib)   ...       0.28 
freq.     315.48  E(vib)   ...       0.25 
freq.     351.86  E(vib)   ...       0.23 
freq.     374.04  E(vib)   ...       0.21 
freq.     384.86  E(vib)   ...       0.20 
freq.     432.58  E(vib)   ...       0.18 
freq.     461.79  E(vib)   ...       0.16 
freq.     494.75  E(vib)   ...       0.14 
freq.     579.66  E(vib)   ...       0.11 
freq.     600.25  E(vib)   ...       0.10 
freq.     626.35  E(vib)   ...       0.09 
freq.     687.12  E(vib)   ...       0.07 
freq.     699.33  E(vib)   ...       0.07 
freq.     741.28  E(vib)   ...       0.06 
freq.     760.42  E(vib)   ...       0.06 
freq.     784.64  E(vib)   ...       0.05 
freq.     831.49  E(vib)   ...       0.04 
freq.     958.13  E(vib)   ...       0.03 
freq.     969.24  E(vib)   ...       0.03 
freq.     991.85  E(vib)   ...       0.02 
freq.    1002.30  E(vib)   ...       0.02 
freq.    1011.17  E(vib)   ...       0.02 
freq.    1036.04  E(vib)   ...       0.02 
freq.    1048.57  E(vib)   ...       0.02 
freq.    1062.61  E(vib)   ...       0.02 
freq.    1088.08  E(vib)   ...       0.02 
freq.    1101.80  E(vib)   ...       0.02 
freq.    1134.70  E(vib)   ...       0.01 
freq.    1168.28  E(vib)   ...       0.01 
freq.    1183.81  E(vib)   ...       0.01 
freq.    1218.20  E(vib)   ...       0.01 
freq.    1250.43  E(vib)   ...       0.01 
freq.    1284.70  E(vib)   ...       0.01 
freq.    1289.13  E(vib)   ...       0.01 
freq.    1291.46  E(vib)   ...       0.01 
freq.    1340.62  E(vib)   ...       0.01 
freq.    1371.01  E(vib)   ...       0.01 
freq.    1384.30  E(vib)   ...       0.00 
freq.    1403.59  E(vib)   ...       0.00 
freq.    1416.63  E(vib)   ...       0.00 
freq.    1440.65  E(vib)   ...       0.00 
freq.    1457.10  E(vib)   ...       0.00 
freq.    1473.44  E(vib)   ...       0.00 
freq.    1478.27  E(vib)   ...       0.00 
freq.    1481.36  E(vib)   ...       0.00 
freq.    1487.32  E(vib)   ...       0.00 
freq.    1489.74  E(vib)   ...       0.00 
freq.    1499.84  E(vib)   ...       0.00 
freq.    1503.08  E(vib)   ...       0.00 
freq.    1504.12  E(vib)   ...       0.00 
freq.    1509.06  E(vib)   ...       0.00 
freq.    1516.77  E(vib)   ...       0.00 
freq.    1528.59  E(vib)   ...       0.00 
freq.    1532.10  E(vib)   ...       0.00 
freq.    1554.98  E(vib)   ...       0.00 
freq.    1703.37  E(vib)   ...       0.00 
freq.    1708.49  E(vib)   ...       0.00 
freq.    3036.27  E(vib)   ...       0.00 
freq.    3040.76  E(vib)   ...       0.00 
freq.    3066.98  E(vib)   ...       0.00 
freq.    3067.09  E(vib)   ...       0.00 
freq.    3085.76  E(vib)   ...       0.00 
freq.    3093.28  E(vib)   ...       0.00 
freq.    3098.86  E(vib)   ...       0.00 
freq.    3103.20  E(vib)   ...       0.00 
freq.    3105.45  E(vib)   ...       0.00 
freq.    3133.09  E(vib)   ...       0.00 
freq.    3140.29  E(vib)   ...       0.00 
freq.    3153.37  E(vib)   ...       0.00 
freq.    3158.81  E(vib)   ...       0.00 
freq.    3162.05  E(vib)   ...       0.00 
freq.    3168.07  E(vib)   ...       0.00 
freq.    3172.53  E(vib)   ...       0.00 
freq.    3191.10  E(vib)   ...       0.00 
freq.    3194.29  E(vib)   ...       0.00 

------------
INNER ENERGY
------------

The inner energy is: U= E(el) + E(ZPE) + E(vib) + E(rot) + E(trans)
    E(el)   - is the total energy from the electronic structure calculation
              = E(kin-el) + E(nuc-el) + E(el-el) + E(nuc-nuc)
    E(ZPE)  - the the zero temperature vibrational energy from the frequency calculation
    E(vib)  - the the finite temperature correction to E(ZPE) due to population
              of excited vibrational states
    E(rot)  - is the rotational thermal energy
    E(trans)- is the translational thermal energy

Summary of contributions to the inner energy U:
Electronic energy                ...  -1011.58228328 Eh
Zero point energy                ...      0.27414121 Eh     172.03 kcal/mol
Thermal vibrational correction   ...      0.01467862 Eh       9.21 kcal/mol
Thermal rotational correction    ...      0.00141627 Eh       0.89 kcal/mol
Thermal translational correction ...      0.00141627 Eh       0.89 kcal/mol
-----------------------------------------------------------------------
Total thermal energy                  -1011.29063091 Eh


Summary of corrections to the electronic energy:
(perhaps to be used in another calculation)
Total thermal correction                  0.01751116 Eh      10.99 kcal/mol
Non-thermal (ZPE) correction              0.27414121 Eh     172.03 kcal/mol
-----------------------------------------------------------------------
Total correction                          0.29165238 Eh     183.01 kcal/mol


--------
ENTHALPY
--------

The enthalpy is H = U + kB*T
                kB is Boltzmann's constant
Total free energy                 ...  -1011.29063091 Eh 
Thermal Enthalpy correction       ...      0.00094421 Eh       0.59 kcal/mol
-----------------------------------------------------------------------
Total Enthalpy                    ...  -1011.28968670 Eh


Note: Only C1 symmetry has been detected, increase convergence thresholds 
      if your molecule has a higher symmetry. Symmetry factor of 1.0 is   
      used for the rotational entropy correction. 
 

Note: Rotational entropy computed according to Herzberg 
Infrared and Raman Spectra, Chapter V,1, Van Nostrand Reinhold, 1945 
Point Group:  C1, Symmetry Number:   1  
Rotational constants in cm-1:     0.021326     0.016611     0.011436 

Vibrational entropy computed according to the QRRHO of S. Grimme
Chem.Eur.J. 2012 18 9955


-------
ENTROPY
-------

The entropy contributions are T*S = T*(S(el)+S(vib)+S(rot)+S(trans))
     S(el)   - electronic entropy
     S(vib)  - vibrational entropy
     S(rot)  - rotational entropy
     S(trans)- translational entropy
The entropies will be listed as multiplied by the temperature to get
units of energy

Electronic entropy                ...      0.00000000 Eh      0.00 kcal/mol
Vibrational entropy               ...      0.02670258 Eh     16.76 kcal/mol
Rotational entropy                ...      0.01537254 Eh      9.65 kcal/mol
Translational entropy             ...      0.01997702 Eh     12.54 kcal/mol
-----------------------------------------------------------------------
Final entropy term                ...      0.06205214 Eh     38.94 kcal/mol

In case the symmetry of your molecule has not been determined correctly
or in case you have a reason to use a different symmetry number we print 
out the resulting rotational entropy values for sn=1,12 :
 --------------------------------------------------------
|  sn= 1 | S(rot)=       0.01537254 Eh      9.65 kcal/mol|
|  sn= 2 | S(rot)=       0.01471808 Eh      9.24 kcal/mol|
|  sn= 3 | S(rot)=       0.01433525 Eh      9.00 kcal/mol|
|  sn= 4 | S(rot)=       0.01406363 Eh      8.83 kcal/mol|
|  sn= 5 | S(rot)=       0.01385294 Eh      8.69 kcal/mol|
|  sn= 6 | S(rot)=       0.01368079 Eh      8.58 kcal/mol|
|  sn= 7 | S(rot)=       0.01353525 Eh      8.49 kcal/mol|
|  sn= 8 | S(rot)=       0.01340917 Eh      8.41 kcal/mol|
|  sn= 9 | S(rot)=       0.01329796 Eh      8.34 kcal/mol|
|  sn=10 | S(rot)=       0.01319848 Eh      8.28 kcal/mol|
|  sn=11 | S(rot)=       0.01310849 Eh      8.23 kcal/mol|
|  sn=12 | S(rot)=       0.01302634 Eh      8.17 kcal/mol|
 --------------------------------------------------------


-------------------
GIBBS FREE ENERGY
-------------------

The Gibbs free energy is G = H - T*S

Total enthalpy                    ...  -1011.28968670 Eh 
Total entropy correction          ...     -0.06205214 Eh    -38.94 kcal/mol
-----------------------------------------------------------------------
Final Gibbs free energy         ...  -1011.35173884 Eh

For completeness - the Gibbs free energy minus the electronic energy
G-E(el)                           ...      0.23054444 Eh    144.67 kcal/mol


Timings for individual modules:

Sum of individual times         ...     1445.932 sec (=  24.099 min)
GTO integral calculation        ...       15.619 sec (=   0.260 min)   1.1 %
SCF iterations                  ...      648.217 sec (=  10.804 min)  44.8 %
SCF Gradient evaluation         ...      187.160 sec (=   3.119 min)  12.9 %
Geometry relaxation             ...        1.024 sec (=   0.017 min)   0.1 %
Analytical frequency calculation...      593.913 sec (=   9.899 min)  41.1 %
                             ****ORCA TERMINATED NORMALLY****
TOTAL RUN TIME: 0 days 0 hours 24 minutes 10 seconds 440 msec
