
                                 *****************
                                 * O   R   C   A *
                                 *****************

                                            #,                                       
                                            ###                                      
                                            ####                                     
                                            #####                                    
                                            ######                                   
                                           ########,                                 
                                     ,,################,,,,,                         
                               ,,#################################,,                 
                          ,,##########################################,,             
                       ,#########################################, ''#####,          
                    ,#############################################,,   '####,        
                  ,##################################################,,,,####,       
                ,###########''''           ''''###############################       
              ,#####''   ,,,,##########,,,,          '''####'''          '####       
            ,##' ,,,,###########################,,,                        '##       
           ' ,,###''''                  '''############,,,                           
         ,,##''                                '''############,,,,        ,,,,,,###''
      ,#''                                            '''#######################'''  
     '                                                          ''''####''''         
             ,#######,   #######,   ,#######,      ##                                
            ,#'     '#,  ##    ##  ,#'     '#,    #''#        ######   ,####,        
            ##       ##  ##   ,#'  ##            #'  '#       #        #'  '#        
            ##       ##  #######   ##           ,######,      #####,   #    #        
            '#,     ,#'  ##    ##  '#,     ,#' ,#      #,         ##   #,  ,#        
             '#######'   ##     ##  '#######'  #'      '#     #####' # '####'        



                  #######################################################
                  #                        -***-                        #
                  #          Department of theory and spectroscopy      #
                  #    Directorship and core code : Frank Neese         #
                  #        Max Planck Institute fuer Kohlenforschung    #
                  #                Kaiser Wilhelm Platz 1               #
                  #                 D-45470 Muelheim/Ruhr               #
                  #                      Germany                        #
                  #                                                     #
                  #                  All rights reserved                #
                  #                        -***-                        #
                  #######################################################


                         Program Version 5.0.4 -  RELEASE  -


 With contributions from (in alphabetic order):
   Daniel Aravena         : Magnetic Suceptibility
   Michael Atanasov       : Ab Initio Ligand Field Theory (pilot matlab implementation)
   Alexander A. Auer      : GIAO ZORA, VPT2 properties, NMR spectrum
   Ute Becker             : Parallelization
   Giovanni Bistoni       : ED, misc. LED, open-shell LED, HFLD
   Martin Brehm           : Molecular dynamics
   Dmytro Bykov           : SCF Hessian
   Vijay G. Chilkuri      : MRCI spin determinant printing, contributions to CSF-ICE
   Dipayan Datta          : RHF DLPNO-CCSD density
   Achintya Kumar Dutta   : EOM-CC, STEOM-CC
   Dmitry Ganyushin       : Spin-Orbit,Spin-Spin,Magnetic field MRCI
   Miquel Garcia          : C-PCM and meta-GGA Hessian, CC/C-PCM, Gaussian charge scheme
   Yang Guo               : DLPNO-NEVPT2, F12-NEVPT2, CIM, IAO-localization
   Andreas Hansen         : Spin unrestricted coupled pair/coupled cluster methods
   Benjamin Helmich-Paris : MC-RPA, TRAH-SCF, COSX integrals
   Lee Huntington         : MR-EOM, pCC
   Robert Izsak           : Overlap fitted RIJCOSX, COSX-SCS-MP3, EOM
   Marcus Kettner         : VPT2
   Christian Kollmar      : KDIIS, OOCD, Brueckner-CCSD(T), CCSD density, CASPT2, CASPT2-K
   Simone Kossmann        : Meta GGA functionals, TD-DFT gradient, OOMP2, MP2 Hessian
   Martin Krupicka        : Initial AUTO-CI
   Lucas Lang             : DCDCAS
   Marvin Lechner         : AUTO-CI (C++ implementation), FIC-MRCC
   Dagmar Lenk            : GEPOL surface, SMD
   Dimitrios Liakos       : Extrapolation schemes; Compound Job, initial MDCI parallelization
   Dimitrios Manganas     : Further ROCIS development; embedding schemes
   Dimitrios Pantazis     : SARC Basis sets
   Anastasios Papadopoulos: AUTO-CI, single reference methods and gradients
   Taras Petrenko         : DFT Hessian,TD-DFT gradient, ASA, ECA, R-Raman, ABS, FL, XAS/XES, NRVS
   Peter Pinski           : DLPNO-MP2, DLPNO-MP2 Gradient
   Christoph Reimann      : Effective Core Potentials
   Marius Retegan         : Local ZFS, SOC
   Christoph Riplinger    : Optimizer, TS searches, QM/MM, DLPNO-CCSD(T), (RO)-DLPNO pert. Triples
   Tobias Risthaus        : Range-separated hybrids, TD-DFT gradient, RPA, STAB
   Michael Roemelt        : Original ROCIS implementation
   Masaaki Saitow         : Open-shell DLPNO-CCSD energy and density
   Barbara Sandhoefer     : DKH picture change effects
   Avijit Sen             : IP-ROCIS
   Kantharuban Sivalingam : CASSCF convergence, NEVPT2, FIC-MRCI
   Bernardo de Souza      : ESD, SOC TD-DFT
   Georgi Stoychev        : AutoAux, RI-MP2 NMR, DLPNO-MP2 response
   Willem Van den Heuvel  : Paramagnetic NMR
   Boris Wezisla          : Elementary symmetry handling
   Frank Wennmohs         : Technical directorship


 We gratefully acknowledge several colleagues who have allowed us to
 interface, adapt or use parts of their codes:
   Stefan Grimme, W. Hujo, H. Kruse, P. Pracht,  : VdW corrections, initial TS optimization,
                  C. Bannwarth, S. Ehlert          DFT functionals, gCP, sTDA/sTD-DF
   Ed Valeev, F. Pavosevic, A. Kumar             : LibInt (2-el integral package), F12 methods
   Garnet Chan, S. Sharma, J. Yang, R. Olivares  : DMRG
   Ulf Ekstrom                                   : XCFun DFT Library
   Mihaly Kallay                                 : mrcc  (arbitrary order and MRCC methods)
   Jiri Pittner, Ondrej Demel                    : Mk-CCSD
   Frank Weinhold                                : gennbo (NPA and NBO analysis)
   Christopher J. Cramer and Donald G. Truhlar   : smd solvation model
   Lars Goerigk                                  : TD-DFT with DH, B97 family of functionals
   V. Asgeirsson, H. Jonsson                     : NEB implementation
   FAccTs GmbH                                   : IRC, NEB, NEB-TS, DLPNO-Multilevel, CI-OPT
                                                   MM, QMMM, 2- and 3-layer-ONIOM, Crystal-QMMM,
                                                   LR-CPCM, SF, NACMEs, symmetry and pop. for TD-DFT,
                                                   nearIR, NL-DFT gradient (VV10), updates on ESD,
                                                   ML-optimized integration grids
   S Lehtola, MJT Oliveira, MAL Marques          : LibXC Library
   Liviu Ungur et al                             : ANISO software


 Your calculation uses the libint2 library for the computation of 2-el integrals
 For citations please refer to: http://libint.valeyev.net

 Your ORCA version has been built with support for libXC version: 5.1.0
 For citations please refer to: https://tddft.org/programs/libxc/

 This ORCA versions uses:
   CBLAS   interface :  Fast vector & matrix operations
   LAPACKE interface :  Fast linear algebra routines
   SCALAPACK package :  Parallel linear algebra routines
   Shared memory     :  Shared parallel matrices
   BLAS/LAPACK       :  OpenBLAS 0.3.15  USE64BITINT DYNAMIC_ARCH NO_AFFINITY SkylakeX SINGLE_THREADED
        Core in use  :  SkylakeX
   Copyright (c) 2011-2014, The OpenBLAS Project




***************************************
The coordinates will be read from file: /users/fjb15167/WWenergy/structures/NfeCl.xyz
***************************************


Your calculation utilizes the atom-pairwise dispersion correction
based on tight binding partial charges (D4)
Cite in your paper:
E.Caldeweyher, C.Bannwarth, S.Grimme, J.Chem.Phys., (2017), 147, 034112.
E.Caldeweyher, S.Ehlert, A.Hansen, H.Neugebauer, S.Grimme, J.Chem.Phys., (2018), in progress.
   

================================================================================

----- Orbital basis set information -----
Your calculation utilizes the basis: 6-31G(d)
   H-He, Li-Ne : W. J. Hehre, R. Ditchfield and J.A. Pople, J. Chem. Phys. 56, 2257 (1972).
                 Note: He and Ne are unpublished basis sets taken from the Gaussian program.
                 Note: Li and B from J. D. Dill and J. A. Pople, J. Chem. Phys. 62, 2921 (1975).
   Na - Ar     : M. M. Francl, W. J. Pietro, W. J. Hehre, J. S. Binkley, M. S. Gordon, 
                 D. J. DeFrees and J. A. Pople, J. Chem. Phys. 77, 3654 (1982).
   K - Zn      : V. A. Rassolov, J. A. Pople, M. A. Ratner, and T. L. Windus, J. Chem. Phys. 109, 1223 (1998).

----- AuxJ basis set information -----
Your calculation utilizes the AutoAux generation procedure.
  G. L. Stoychev, A. A. Auer, F. Neese, J. Chem. Theory Comput. 13, 554 (2017)

----- AuxC basis set information -----
Your calculation utilizes the AutoAux generation procedure.
  G. L. Stoychev, A. A. Auer, F. Neese, J. Chem. Theory Comput. 13, 554 (2017)

----- AuxJK basis set information -----
Your calculation utilizes the AutoAux generation procedure.
  G. L. Stoychev, A. A. Auer, F. Neese, J. Chem. Theory Comput. 13, 554 (2017)

================================================================================
                                        WARNINGS
                       Please study these warnings very carefully!
================================================================================


WARNING: Geometry Optimization
  ===> : Switching off AutoStart
         For restart on a previous wavefunction, please use MOREAD

INFO   : the flag for use of the SHARK integral package has been found!

================================================================================
                                       INPUT FILE
================================================================================
NAME = NfeCl_octanol.inp
|  1> ! OPT FREQ B3LYP 6-31G(d) D4 AUTOAUX
|  2> ! CPCM
|  3> 
|  4> %cpcm
|  5> epsilon 9.8629 
|  6> refrac  1.4295 
|  7> end
|  8> 
|  9> %PAL NPROCS 4 END
| 10> 
| 11> %maxcore 3375
| 12> 
| 13> *xyzfile 0 1 /users/fjb15167/WWenergy/structures/NfeCl.xyz
| 14> 
| 15>                          ****END OF INPUT****
================================================================================

                       *****************************
                       * Geometry Optimization Run *
                       *****************************

Geometry optimization settings:
Update method            Update   .... BFGS
Choice of coordinates    CoordSys .... Z-matrix Internals
Initial Hessian          InHess   .... Almoef's Model

Convergence Tolerances:
Energy Change            TolE     ....  5.0000e-06 Eh
Max. Gradient            TolMAXG  ....  3.0000e-04 Eh/bohr
RMS Gradient             TolRMSG  ....  1.0000e-04 Eh/bohr
Max. Displacement        TolMAXD  ....  4.0000e-03 bohr
RMS Displacement         TolRMSD  ....  2.0000e-03 bohr
Strict Convergence                ....  False
------------------------------------------------------------------------------
                        ORCA OPTIMIZATION COORDINATE SETUP
------------------------------------------------------------------------------

The optimization will be done in new redundant internal coordinates
Making redundant internal coordinates   ...  (new redundants) done
Evaluating the initial hessian          ...  (Almloef) done
Evaluating the coordinates              ...  done
Calculating the B-matrix                .... done
Calculating the G-matrix                .... done
Diagonalizing the G-matrix              .... done
Small eigenvalue found = 2.705e-03
Small eigenvalue found = 4.837e-03
Small eigenvalue found = 6.976e-03
Small eigenvalue found = 1.144e-02
Small eigenvalue found = 2.011e-02
Small eigenvalue found = 2.174e-02
Small eigenvalue found = 2.816e-02
The first mode is                       ....   79
The number of degrees of freedom        ....  108

    -----------------------------------------------------------------
                    Redundant Internal Coordinates


    -----------------------------------------------------------------
         Definition                    Initial Value    Approx d2E/dq
    -----------------------------------------------------------------
      1. B(H   1,C   0)                  1.0929         0.356236   
      2. B(H   2,C   0)                  1.0943         0.354463   
      3. B(H   3,C   0)                  1.0894         0.360887   
      4. B(C   4,C   0)                  1.5158         0.393545   
      5. B(O   5,C   4)                  1.2388         0.975396   
      6. B(N   6,C   4)                  1.3734         0.594794   
      7. B(C   7,N   6)                  1.4605         0.431970   
      8. B(H   8,C   7)                  1.0954         0.353079   
      9. B(H   9,C   7)                  1.0896         0.360642   
     10. B(C  10,N   6)                  1.4619         0.429661   
     11. B(H  11,C  10)                  1.0944         0.354375   
     12. B(H  12,C  10)                  1.0945         0.354192   
     13. B(C  13,C  10)                  1.5379         0.362912   
     14. B(H  14,C  13)                  1.0942         0.354553   
     15. B(H  15,C  13)                  1.0960         0.352208   
     16. B(C  16,C  13)                  1.5041         0.410878   
     17. B(C  17,C  16)                  1.4040         0.593464   
     18. B(C  18,C  16)                  1.3993         0.603914   
     19. B(C  19,C  17)                  1.3945         0.614460   
     20. B(H  20,C  17)                  1.0890         0.361457   
     21. B(C  21,C  18)                  1.3965         0.609963   
     22. B(H  22,C  18)                  1.0889         0.361585   
     23. B(C  23,C  21)                  1.3937         0.616341   
     24. B(C  23,C  19)                  1.3960         0.611180   
     25. B(H  24,C  19)                  1.0864         0.364875   
     26. B(H  25,C  21)                  1.0858         0.365748   
     27. B(C  26,C   7)                  1.5253         0.380059   
     28. B(N  27,C  26)                  1.3625         0.619140   
     29. B(O  28,C  26)                  1.2422         0.963236   
     30. B(C  29,N  27)                  1.4559         0.439208   
     31. B(H  30,C  29)                  1.0972         0.350721   
     32. B(H  31,C  29)                  1.0950         0.353496   
     33. B(H  32,C  29)                  1.0881         0.362637   
     34. B(C  33,N  27)                  1.4558         0.439480   
     35. B(H  34,C  33)                  1.0970         0.351003   
     36. B(H  35,C  33)                  1.0882         0.362485   
     37. B(H  36,C  33)                  1.0938         0.355152   
     38. B(Cl 37,C  23)                  1.7597         0.360472   
     39. A(H   2,C   0,C   4)          110.8084         0.326260   
     40. A(H   1,C   0,H   3)          109.4527         0.290447   
     41. A(H   2,C   0,H   3)          108.9701         0.290219   
     42. A(H   1,C   0,H   2)          108.0242         0.289629   
     43. A(H   3,C   0,C   4)          107.1341         0.327227   
     44. A(H   1,C   0,C   4)          112.4035         0.326528   
     45. A(C   0,C   4,O   5)          121.0700         0.431118   
     46. A(C   0,C   4,N   6)          116.9358         0.394883   
     47. A(O   5,C   4,N   6)          121.9874         0.461552   
     48. A(C   7,N   6,C  10)          115.9766         0.376844   
     49. A(C   4,N   6,C  10)          124.8108         0.398455   
     50. A(C   4,N   6,C   7)          119.1338         0.398831   
     51. A(N   6,C   7,H   9)          107.9302         0.330264   
     52. A(H   8,C   7,H   9)          108.9831         0.290010   
     53. A(N   6,C   7,C  26)          111.0273         0.371284   
     54. A(H   8,C   7,C  26)          105.4203         0.324187   
     55. A(N   6,C   7,H   8)          109.5575         0.329109   
     56. A(H   9,C   7,C  26)          113.8495         0.325317   
     57. A(H  12,C  10,C  13)          108.8273         0.321908   
     58. A(H  11,C  10,C  13)          110.0092         0.321935   
     59. A(N   6,C  10,C  13)          113.5596         0.368012   
     60. A(H  11,C  10,H  12)          107.1128         0.289357   
     61. A(N   6,C  10,H  12)          106.8661         0.328989   
     62. A(N   6,C  10,H  11)          110.2095         0.329017   
     63. A(H  15,C  13,C  16)          110.4754         0.328240   
     64. A(H  14,C  13,C  16)          109.7973         0.328600   
     65. A(C  10,C  13,C  16)          110.4780         0.367494   
     66. A(H  14,C  13,H  15)          107.1137         0.289125   
     67. A(C  10,C  13,H  15)          109.9523         0.321612   
     68. A(C  10,C  13,H  14)          108.9514         0.321962   
     69. A(C  17,C  16,C  18)          118.8912         0.428640   
     70. A(C  13,C  16,C  17)          119.3554         0.400287   
     71. A(C  13,C  16,C  18)          121.6793         0.401519   
     72. A(C  16,C  17,C  19)          120.7859         0.429973   
     73. A(C  19,C  17,H  20)          119.9007         0.352598   
     74. A(C  16,C  17,H  20)          119.3124         0.350532   
     75. A(C  21,C  18,H  22)          119.1482         0.352181   
     76. A(C  16,C  18,H  22)          119.7498         0.351588   
     77. A(C  16,C  18,C  21)          121.0943         0.430754   
     78. A(C  23,C  19,H  24)          120.1891         0.352840   
     79. A(C  17,C  19,H  24)          120.7877         0.353160   
     80. A(C  17,C  19,C  23)          119.0230         0.432251   
     81. A(C  23,C  21,H  25)          120.2559         0.353486   
     82. A(C  18,C  21,H  25)          120.9547         0.352864   
     83. A(C  18,C  21,C  23)          118.7894         0.432333   
     84. A(C  19,C  23,C  21)          121.4104         0.432488   
     85. A(C  21,C  23,Cl 37)          119.2418         0.411381   
     86. A(C  19,C  23,Cl 37)          119.3472         0.410768   
     87. A(N  27,C  26,O  28)          122.7353         0.463884   
     88. A(C   7,C  26,O  28)          119.1178         0.427466   
     89. A(C   7,C  26,N  27)          118.1196         0.395247   
     90. A(C  29,N  27,C  33)          115.4010         0.379410   
     91. A(C  26,N  27,C  33)          118.3289         0.402879   
     92. A(C  26,N  27,C  29)          125.3210         0.402835   
     93. A(H  31,C  29,H  32)          108.9099         0.290315   
     94. A(H  30,C  29,H  32)          108.4492         0.289957   
     95. A(N  27,C  29,H  32)          111.9514         0.331476   
     96. A(H  30,C  29,H  31)          108.2290         0.288799   
     97. A(N  27,C  29,H  31)          109.1334         0.330079   
     98. A(N  27,C  29,H  30)          110.0876         0.329649   
     99. A(H  34,C  33,H  36)          108.6572         0.289046   
    100. A(N  27,C  33,H  36)          109.1897         0.330368   
    101. A(H  34,C  33,H  35)          109.3816         0.289974   
    102. A(N  27,C  33,H  35)          108.6519         0.331487   
    103. A(N  27,C  33,H  34)          110.8117         0.329726   
    104. A(H  35,C  33,H  36)          110.1436         0.290509   
    105. D(N   6,C   4,C   0,H   2)    -67.6275         0.011512   
    106. D(O   5,C   4,C   0,H   1)   -127.5771         0.011512   
    107. D(N   6,C   4,C   0,H   1)     53.3498         0.011512   
    108. D(O   5,C   4,C   0,H   2)    111.4457         0.011512   
    109. D(O   5,C   4,C   0,H   3)     -7.3097         0.011512   
    110. D(N   6,C   4,C   0,H   3)    173.6172         0.011512   
    111. D(C   7,N   6,C   4,O   5)     -5.4228         0.028472   
    112. D(C  10,N   6,C   4,C   0)     -2.9940         0.028472   
    113. D(C  10,N   6,C   4,O   5)    177.9420         0.028472   
    114. D(C   7,N   6,C   4,C   0)    173.6412         0.028472   
    115. D(C  26,C   7,N   6,C   4)    126.7246         0.015909   
    116. D(H   8,C   7,N   6,C   4)   -117.2436         0.015909   
    117. D(H   9,C   7,N   6,C  10)    178.2237         0.015909   
    118. D(H   8,C   7,N   6,C  10)     59.6835         0.015909   
    119. D(H   9,C   7,N   6,C   4)      1.2966         0.015909   
    120. D(C  26,C   7,N   6,C  10)    -56.3483         0.015909   
    121. D(C  13,C  10,N   6,C   7)     95.2003         0.015739   
    122. D(C  13,C  10,N   6,C   4)    -88.0691         0.015739   
    123. D(H  12,C  10,N   6,C   7)    -24.8055         0.015739   
    124. D(H  11,C  10,N   6,C   7)   -140.8620         0.015739   
    125. D(H  11,C  10,N   6,C   4)     35.8687         0.015739   
    126. D(H  12,C  10,N   6,C   4)    151.9252         0.015739   
    127. D(C  16,C  13,C  10,N   6)   -165.9890         0.010555   
    128. D(C  16,C  13,C  10,H  11)     69.9645         0.010555   
    129. D(H  15,C  13,C  10,H  12)   -169.2976         0.010555   
    130. D(H  15,C  13,C  10,H  11)    -52.2314         0.010555   
    131. D(H  15,C  13,C  10,N   6)     71.8151         0.010555   
    132. D(H  14,C  13,C  10,H  12)     73.5951         0.010555   
    133. D(H  14,C  13,C  10,H  11)   -169.3387         0.010555   
    134. D(C  16,C  13,C  10,H  12)    -47.1017         0.010555   
    135. D(H  14,C  13,C  10,N   6)    -45.2921         0.010555   
    136. D(C  18,C  16,C  13,H  15)     22.8222         0.012501   
    137. D(C  18,C  16,C  13,H  14)    140.7433         0.012501   
    138. D(C  18,C  16,C  13,C  10)    -99.0660         0.012501   
    139. D(C  17,C  16,C  13,H  15)   -160.3447         0.012501   
    140. D(C  17,C  16,C  13,H  14)    -42.4236         0.012501   
    141. D(C  17,C  16,C  13,C  10)     77.7671         0.012501   
    142. D(H  20,C  17,C  16,C  18)    179.5171         0.024252   
    143. D(H  20,C  17,C  16,C  13)      2.5951         0.024252   
    144. D(C  19,C  17,C  16,C  18)     -0.8418         0.024252   
    145. D(C  19,C  17,C  16,C  13)   -177.7638         0.024252   
    146. D(H  22,C  18,C  16,C  17)    179.8343         0.025160   
    147. D(H  22,C  18,C  16,C  13)     -3.3183         0.025160   
    148. D(C  21,C  18,C  16,C  17)      0.8543         0.025160   
    149. D(C  21,C  18,C  16,C  13)    177.7017         0.025160   
    150. D(H  24,C  19,C  17,H  20)      0.0364         0.026098   
    151. D(H  24,C  19,C  17,C  16)   -179.6026         0.026098   
    152. D(C  23,C  19,C  17,H  20)   -179.8249         0.026098   
    153. D(C  23,C  19,C  17,C  16)      0.5361         0.026098   
    154. D(H  25,C  21,C  18,H  22)      0.5160         0.025696   
    155. D(H  25,C  21,C  18,C  16)    179.5021         0.025696   
    156. D(C  23,C  21,C  18,H  22)   -179.5442         0.025696   
    157. D(C  23,C  21,C  18,C  16)     -0.5581         0.025696   
    158. D(Cl 37,C  23,C  21,H  25)     -0.1064         0.026268   
    159. D(Cl 37,C  23,C  21,C  18)    179.9533         0.026268   
    160. D(C  19,C  23,C  21,H  25)   -179.8182         0.026268   
    161. D(C  19,C  23,C  21,C  18)      0.2415         0.026268   
    162. D(Cl 37,C  23,C  19,H  24)      0.1938         0.025804   
    163. D(Cl 37,C  23,C  19,C  17)   -179.9441         0.025804   
    164. D(C  21,C  23,C  19,H  24)    179.9053         0.025804   
    165. D(C  21,C  23,C  19,C  17)     -0.2326         0.025804   
    166. D(N  27,C  26,C   7,H   8)    162.1720         0.010778   
    167. D(N  27,C  26,C   7,N   6)    -79.2693         0.010778   
    168. D(O  28,C  26,C   7,H   9)   -139.0723         0.010778   
    169. D(O  28,C  26,C   7,H   8)    -19.6739         0.010778   
    170. D(O  28,C  26,C   7,N   6)     98.8847         0.010778   
    171. D(N  27,C  26,C   7,H   9)     42.7737         0.010778   
    172. D(C  33,N  27,C  26,O  28)     -2.0972         0.031034   
    173. D(C  33,N  27,C  26,C   7)    175.9856         0.031034   
    174. D(C  29,N  27,C  26,O  28)   -170.4046         0.031034   
    175. D(C  29,N  27,C  26,C   7)      7.6782         0.031034   
    176. D(H  32,C  29,N  27,C  33)    178.0397         0.016449   
    177. D(H  32,C  29,N  27,C  26)    -13.3499         0.016449   
    178. D(H  31,C  29,N  27,C  33)     57.3977         0.016449   
    179. D(H  31,C  29,N  27,C  26)   -133.9919         0.016449   
    180. D(H  30,C  29,N  27,C  33)    -61.2504         0.016449   
    181. D(H  30,C  29,N  27,C  26)    107.3600         0.016449   
    182. D(H  36,C  33,N  27,C  29)    -52.1728         0.016469   
    183. D(H  36,C  33,N  27,C  26)    138.3748         0.016469   
    184. D(H  35,C  33,N  27,C  29)   -172.3268         0.016469   
    185. D(H  35,C  33,N  27,C  26)     18.2208         0.016469   
    186. D(H  34,C  33,N  27,C  29)     67.4744         0.016469   
    187. D(H  34,C  33,N  27,C  26)   -101.9781         0.016469   
    -----------------------------------------------------------------

Number of atoms                         .... 38
Number of degrees of freedom            .... 187

         *************************************************************
         *                GEOMETRY OPTIMIZATION CYCLE   1            *
         *************************************************************
---------------------------------
CARTESIAN COORDINATES (ANGSTROEM)
---------------------------------
  C      3.113000    3.180000    0.302000
  H      2.358000    2.998000    1.071000
  H      2.647000    3.762000   -0.499000
  H      3.933000    3.757000    0.728000
  C      3.706000    1.895000   -0.241000
  O      4.932000    1.721000   -0.275000
  N      2.824000    0.951000   -0.707000
  C      3.344000   -0.243000   -1.368000
  H      2.998000   -0.267000   -2.407000
  H      4.432000   -0.185000   -1.358000
  C      1.368000    1.073000   -0.658000
  H      1.070000    2.113000   -0.823000
  H      0.972000    0.488000   -1.494000
  C      0.751000    0.550000    0.650000
  H      1.206000   -0.414000    0.897000
  H      0.982000    1.236000    1.473000
  C     -0.737000    0.388000    0.502000
  C     -1.243000   -0.727000   -0.185000
  C     -1.632000    1.354000    0.975000
  C     -2.615000   -0.883000   -0.380000
  H     -0.552000   -1.479000   -0.563000
  C     -3.009000    1.214000    0.789000
  H     -1.255000    2.223000    1.512000
  C     -3.484000    0.094000    0.109000
  H     -3.007000   -1.749000   -0.906000
  H     -3.702000    1.961000    1.164000
  C      2.788000   -1.510000   -0.726000
  N      3.348000   -1.938000    0.440000
  O      1.828000   -2.088000   -1.262000
  C      4.335000   -1.204000    1.219000
  H      3.875000   -0.808000    2.133000
  H      5.142000   -1.885000    1.509000
  H      4.759000   -0.373000    0.659000
  C      2.764000   -3.095000    1.103000
  H      2.141000   -2.785000    1.951000
  H      2.152000   -3.636000    0.384000
  H      3.566000   -3.739000    1.475000
  Cl    -5.217000   -0.095000   -0.131000

----------------------------
CARTESIAN COORDINATES (A.U.)
----------------------------
  NO LB      ZA    FRAG     MASS         X           Y           Z
   0 C     6.0000    0    12.011    5.882717    6.009329    0.570697
   1 H     1.0000    0     1.008    4.455974    5.665399    2.023897
   2 H     1.0000    0     1.008    5.002105    7.109150   -0.942973
   3 H     1.0000    0     1.008    7.432293    7.099701    1.375721
   4 C     6.0000    0    12.011    7.003325    3.581031   -0.455424
   5 O     8.0000    0    15.999    9.320129    3.252219   -0.519675
   6 N     7.0000    0    14.007    5.336587    1.797130   -1.336036
   7 C     6.0000    0    12.011    6.319244   -0.459203   -2.585145
   8 H     1.0000    0     1.008    5.665399   -0.504557   -4.548571
   9 H     1.0000    0     1.008    8.375266   -0.349599   -2.566248
  10 C     6.0000    0    12.011    2.585145    2.027676   -1.243440
  11 H     1.0000    0     1.008    2.022007    3.992991   -1.555245
  12 H     1.0000    0     1.008    1.836814    0.922186   -2.823251
  13 C     6.0000    0    12.011    1.419184    1.039349    1.228322
  14 H     1.0000    0     1.008    2.279010   -0.782347    1.695084
  15 H     1.0000    0     1.008    1.855711    2.335702    2.783567
  16 C     6.0000    0    12.011   -1.392728    0.733214    0.948643
  17 C     6.0000    0    12.011   -2.348930   -1.373831   -0.349599
  18 C     6.0000    0    12.011   -3.084033    2.558689    1.842483
  19 C     6.0000    0    12.011   -4.941634   -1.668628   -0.718096
  20 H     1.0000    0     1.008   -1.043129   -2.794905   -1.063916
  21 C     6.0000    0    12.011   -5.686186    2.294128    1.490994
  22 H     1.0000    0     1.008   -2.371606    4.200861    2.857266
  23 C     6.0000    0    12.011   -6.583806    0.177634    0.205980
  24 H     1.0000    0     1.008   -5.682406   -3.305131   -1.712092
  25 H     1.0000    0     1.008   -6.995766    3.705753    2.199641
  26 C     6.0000    0    12.011    5.268556   -2.853486   -1.371941
  27 N     7.0000    0    14.007    6.326803   -3.662289    0.831479
  28 O     8.0000    0    15.999    3.454419   -3.945748   -2.384834
  29 C     6.0000    0    12.011    8.191963   -2.275230    2.303576
  30 H     1.0000    0     1.008    7.322689   -1.526899    4.030786
  31 H     1.0000    0     1.008    9.716972   -3.562134    2.851597
  32 H     1.0000    0     1.008    8.993207   -0.704868    1.245330
  33 C     6.0000    0    12.011    5.223203   -5.848702    2.084368
  34 H     1.0000    0     1.008    4.045904   -5.262887    3.686856
  35 H     1.0000    0     1.008    4.066691   -6.871044    0.725655
  36 H     1.0000    0     1.008    6.738763   -7.065686    2.787346
  37 Cl   17.0000    0    35.453   -9.858701   -0.179524   -0.247554

--------------------------------
INTERNAL COORDINATES (ANGSTROEM)
--------------------------------
 C      0   0   0     0.000000000000     0.00000000     0.00000000
 H      1   0   0     1.092936411691     0.00000000     0.00000000
 H      1   2   0     1.094294750056   108.02419775     0.00000000
 H      1   2   3     1.089405801343   109.45265545   118.52024246
 C      1   2   3     1.515824198250   112.40347563   237.43786826
 O      5   1   2     1.238752598383   121.07004512   232.42293999
 N      5   1   2     1.373395791460   116.93584778    53.34979849
 C      7   5   1     1.460464652089   119.13375764   173.64121198
 H      8   7   5     1.095359758253   109.55748733   242.75635820
 H      8   7   5     1.089590748859   107.93022362     1.29657983
 C      7   5   1     1.461923732621   124.81082092   357.00603334
 H     11   7   5     1.094362371429   110.20951267    35.86871493
 H     11   7   5     1.094503083595   106.86614245   151.92515781
 C     11   7   5     1.537882310192   113.55958721   271.93093446
 H     14  11   7     1.094225753672   108.95139457   314.70787119
 H     14  11   7     1.096031933841   109.95228531    71.81510137
 C     14  11   7     1.504091752520   110.47799087   194.01102817
 C     17  14  11     1.404004985746   119.35537807    77.76707876
 C     17  14  11     1.399253372338   121.67931565   260.93400469
 C     18  17  14     1.394541143172   120.78591046   182.23624462
 H     18  17  14     1.088976124623   119.31244163     2.59513766
 C     19  17  14     1.396540368196   121.09425032   177.70168845
 H     19  17  14     1.088879699508   119.74979684   356.68168596
 C     22  19  17     1.393709080117   118.78937270   359.44185367
 H     20  18  17     1.086414285620   120.78766232   180.39736638
 H     22  19  17     1.085763786466   120.95469784   179.50205367
 C      8   7   5     1.525316032827   111.02728837   126.72457197
 N     27   8   7     1.362475687856   118.11963785   280.73065820
 O     27   8   7     1.242167460530   119.11783728    98.88466875
 C     28  27   8     1.455941619709   125.32104110     7.67817802
 H     30  28  27     1.097183667396   110.08762005   107.35999687
 H     30  28  27     1.095038812098   109.13337150   226.00807317
 H     30  28  27     1.088088691238   111.95135143   346.65006211
 C     28  27   8     1.455772647085   118.32892263   175.98559846
 H     34  28  27     1.096965359526   110.81167834   258.02193576
 H     34  28  27     1.088203106042   108.65191480    18.22076762
 H     34  28  27     1.093765971312   109.18971239   138.37476357
 Cl    24  22  19     1.759718727524   119.24180236   179.95333439

---------------------------
INTERNAL COORDINATES (A.U.)
---------------------------
 C      0   0   0     0.000000000000     0.00000000     0.00000000
 H      1   0   0     2.065350499887     0.00000000     0.00000000
 H      1   2   0     2.067917387394   108.02419775     0.00000000
 H      1   2   3     2.058678613243   109.45265545   118.52024246
 C      1   2   3     2.864492601863   112.40347563   237.43786826
 O      5   1   2     2.340903158627   121.07004512   232.42293999
 N      5   1   2     2.595341919339   116.93584778    53.34979849
 C      7   5   1     2.759878220720   119.13375764   173.64121198
 H      8   7   5     2.069929961216   109.55748733   242.75635820
 H      8   7   5     2.059028113398   107.93022362     1.29657983
 C      7   5   1     2.762635483333   124.81082092   357.00603334
 H     11   7   5     2.068045173270   110.20951267    35.86871493
 H     11   7   5     2.068311080728   106.86614245   151.92515781
 C     11   7   5     2.906176392464   113.55958721   271.93093446
 H     14  11   7     2.067787003124   108.95139457   314.70787119
 H     14  11   7     2.071200188992   109.95228531    71.81510137
 C     14  11   7     2.842321492553   110.47799087   194.01102817
 C     17  14  11     2.653184913720   119.35537807    77.76707876
 C     17  14  11     2.644205665685   121.67931565   260.93400469
 C     18  17  14     2.635300843081   120.78591046   182.23624462
 H     18  17  14     2.057866641917   119.31244163     2.59513766
 C     19  17  14     2.639078830855   121.09425032   177.70168845
 H     19  17  14     2.057684424856   119.74979684   356.68168596
 C     22  19  17     2.633728471780   118.78937270   359.44185367
 H     20  18  17     2.053025467802   120.78766232   180.39736638
 H     22  19  17     2.051796202549   120.95469784   179.50205367
 C      8   7   5     2.882429569723   111.02728837   126.72457197
 N     27   8   7     2.574705914175   118.11963785   280.73065820
 O     27   8   7     2.347356312870   119.11783728    98.88466875
 C     28  27   8     2.751330928227   125.32104110     7.67817802
 H     30  28  27     2.073376649989   110.08762005   107.35999687
 H     30  28  27     2.069323460879   109.13337150   226.00807317
 H     30  28  27     2.056189635857   111.95135143   346.65006211
 C     28  27   8     2.751011616244   118.32892263   175.98559846
 H     34  28  27     2.072964107903   110.81167834   258.02193576
 H     34  28  27     2.056405848502   108.65191480    18.22076762
 H     34  28  27     2.066918140382   109.18971239   138.37476357
 Cl    24  22  19     3.325386467753   119.24180236   179.95333439

---------------------
BASIS SET INFORMATION
---------------------
There are 5 groups of distinct atoms

 Group   1 Type C   : 10s4p1d contracted to 3s2p1d pattern {631/31/1}
 Group   2 Type H   : 4s contracted to 2s pattern {31}
 Group   3 Type O   : 10s4p1d contracted to 3s2p1d pattern {631/31/1}
 Group   4 Type N   : 10s4p1d contracted to 3s2p1d pattern {631/31/1}
 Group   5 Type Cl  : 16s10p1d contracted to 4s3p1d pattern {6631/631/1}

Atom   0C    basis set group =>   1
Atom   1H    basis set group =>   2
Atom   2H    basis set group =>   2
Atom   3H    basis set group =>   2
Atom   4C    basis set group =>   1
Atom   5O    basis set group =>   3
Atom   6N    basis set group =>   4
Atom   7C    basis set group =>   1
Atom   8H    basis set group =>   2
Atom   9H    basis set group =>   2
Atom  10C    basis set group =>   1
Atom  11H    basis set group =>   2
Atom  12H    basis set group =>   2
Atom  13C    basis set group =>   1
Atom  14H    basis set group =>   2
Atom  15H    basis set group =>   2
Atom  16C    basis set group =>   1
Atom  17C    basis set group =>   1
Atom  18C    basis set group =>   1
Atom  19C    basis set group =>   1
Atom  20H    basis set group =>   2
Atom  21C    basis set group =>   1
Atom  22H    basis set group =>   2
Atom  23C    basis set group =>   1
Atom  24H    basis set group =>   2
Atom  25H    basis set group =>   2
Atom  26C    basis set group =>   1
Atom  27N    basis set group =>   4
Atom  28O    basis set group =>   3
Atom  29C    basis set group =>   1
Atom  30H    basis set group =>   2
Atom  31H    basis set group =>   2
Atom  32H    basis set group =>   2
Atom  33C    basis set group =>   1
Atom  34H    basis set group =>   2
Atom  35H    basis set group =>   2
Atom  36H    basis set group =>   2
Atom  37Cl   basis set group =>   5
---------------------------------
AUXILIARY/J BASIS SET INFORMATION
---------------------------------
There are 5 groups of distinct atoms

 Group   1 Type C   : 13s11p10d2f contracted to 13s11p10d2f pattern {1111111111111/11111111111/1111111111/11}
 Group   2 Type H   : 9s2p contracted to 9s2p pattern {111111111/11}
 Group   3 Type O   : 14s11p10d2f contracted to 14s11p10d2f pattern {11111111111111/11111111111/1111111111/11}
 Group   4 Type N   : 14s11p10d2f contracted to 14s11p10d2f pattern {11111111111111/11111111111/1111111111/11}
 Group   5 Type Cl  : 17s14p13d4f contracted to 17s14p13d4f pattern {11111111111111111/11111111111111/1111111111111/1111}

Atom   0C    basis set group =>   1
Atom   1H    basis set group =>   2
Atom   2H    basis set group =>   2
Atom   3H    basis set group =>   2
Atom   4C    basis set group =>   1
Atom   5O    basis set group =>   3
Atom   6N    basis set group =>   4
Atom   7C    basis set group =>   1
Atom   8H    basis set group =>   2
Atom   9H    basis set group =>   2
Atom  10C    basis set group =>   1
Atom  11H    basis set group =>   2
Atom  12H    basis set group =>   2
Atom  13C    basis set group =>   1
Atom  14H    basis set group =>   2
Atom  15H    basis set group =>   2
Atom  16C    basis set group =>   1
Atom  17C    basis set group =>   1
Atom  18C    basis set group =>   1
Atom  19C    basis set group =>   1
Atom  20H    basis set group =>   2
Atom  21C    basis set group =>   1
Atom  22H    basis set group =>   2
Atom  23C    basis set group =>   1
Atom  24H    basis set group =>   2
Atom  25H    basis set group =>   2
Atom  26C    basis set group =>   1
Atom  27N    basis set group =>   4
Atom  28O    basis set group =>   3
Atom  29C    basis set group =>   1
Atom  30H    basis set group =>   2
Atom  31H    basis set group =>   2
Atom  32H    basis set group =>   2
Atom  33C    basis set group =>   1
Atom  34H    basis set group =>   2
Atom  35H    basis set group =>   2
Atom  36H    basis set group =>   2
Atom  37Cl   basis set group =>   5
---------------------------------
AUXILIARY/C BASIS SET INFORMATION
---------------------------------
There are 5 groups of distinct atoms

 Group   1 Type C   : 13s11p10d2f contracted to 13s11p10d2f pattern {1111111111111/11111111111/1111111111/11}
 Group   2 Type H   : 9s2p contracted to 9s2p pattern {111111111/11}
 Group   3 Type O   : 14s11p10d2f contracted to 14s11p10d2f pattern {11111111111111/11111111111/1111111111/11}
 Group   4 Type N   : 14s11p10d2f contracted to 14s11p10d2f pattern {11111111111111/11111111111/1111111111/11}
 Group   5 Type Cl  : 17s14p13d4f contracted to 17s14p13d4f pattern {11111111111111111/11111111111111/1111111111111/1111}

Atom   0C    basis set group =>   1
Atom   1H    basis set group =>   2
Atom   2H    basis set group =>   2
Atom   3H    basis set group =>   2
Atom   4C    basis set group =>   1
Atom   5O    basis set group =>   3
Atom   6N    basis set group =>   4
Atom   7C    basis set group =>   1
Atom   8H    basis set group =>   2
Atom   9H    basis set group =>   2
Atom  10C    basis set group =>   1
Atom  11H    basis set group =>   2
Atom  12H    basis set group =>   2
Atom  13C    basis set group =>   1
Atom  14H    basis set group =>   2
Atom  15H    basis set group =>   2
Atom  16C    basis set group =>   1
Atom  17C    basis set group =>   1
Atom  18C    basis set group =>   1
Atom  19C    basis set group =>   1
Atom  20H    basis set group =>   2
Atom  21C    basis set group =>   1
Atom  22H    basis set group =>   2
Atom  23C    basis set group =>   1
Atom  24H    basis set group =>   2
Atom  25H    basis set group =>   2
Atom  26C    basis set group =>   1
Atom  27N    basis set group =>   4
Atom  28O    basis set group =>   3
Atom  29C    basis set group =>   1
Atom  30H    basis set group =>   2
Atom  31H    basis set group =>   2
Atom  32H    basis set group =>   2
Atom  33C    basis set group =>   1
Atom  34H    basis set group =>   2
Atom  35H    basis set group =>   2
Atom  36H    basis set group =>   2
Atom  37Cl   basis set group =>   5
----------------------------------
AUXILIARY/JK BASIS SET INFORMATION
----------------------------------
There are 5 groups of distinct atoms

 Group   1 Type C   : 13s11p10d2f contracted to 13s11p10d2f pattern {1111111111111/11111111111/1111111111/11}
 Group   2 Type H   : 9s2p contracted to 9s2p pattern {111111111/11}
 Group   3 Type O   : 14s11p10d2f contracted to 14s11p10d2f pattern {11111111111111/11111111111/1111111111/11}
 Group   4 Type N   : 14s11p10d2f contracted to 14s11p10d2f pattern {11111111111111/11111111111/1111111111/11}
 Group   5 Type Cl  : 17s14p13d4f contracted to 17s14p13d4f pattern {11111111111111111/11111111111111/1111111111111/1111}

Atom   0C    basis set group =>   1
Atom   1H    basis set group =>   2
Atom   2H    basis set group =>   2
Atom   3H    basis set group =>   2
Atom   4C    basis set group =>   1
Atom   5O    basis set group =>   3
Atom   6N    basis set group =>   4
Atom   7C    basis set group =>   1
Atom   8H    basis set group =>   2
Atom   9H    basis set group =>   2
Atom  10C    basis set group =>   1
Atom  11H    basis set group =>   2
Atom  12H    basis set group =>   2
Atom  13C    basis set group =>   1
Atom  14H    basis set group =>   2
Atom  15H    basis set group =>   2
Atom  16C    basis set group =>   1
Atom  17C    basis set group =>   1
Atom  18C    basis set group =>   1
Atom  19C    basis set group =>   1
Atom  20H    basis set group =>   2
Atom  21C    basis set group =>   1
Atom  22H    basis set group =>   2
Atom  23C    basis set group =>   1
Atom  24H    basis set group =>   2
Atom  25H    basis set group =>   2
Atom  26C    basis set group =>   1
Atom  27N    basis set group =>   4
Atom  28O    basis set group =>   3
Atom  29C    basis set group =>   1
Atom  30H    basis set group =>   2
Atom  31H    basis set group =>   2
Atom  32H    basis set group =>   2
Atom  33C    basis set group =>   1
Atom  34H    basis set group =>   2
Atom  35H    basis set group =>   2
Atom  36H    basis set group =>   2
Atom  37Cl   basis set group =>   5


           ************************************************************
           *        Program running with 4 parallel MPI-processes     *
           *              working on a common directory               *
           ************************************************************
------------------------------------------------------------------------------
                           ORCA GTO INTEGRAL CALCULATION
                           -- RI-GTO INTEGRALS CHOSEN --
------------------------------------------------------------------------------
------------------------------------------------------------------------------
                   ___                                                        
                  /   \      - P O W E R E D   B Y -                         
                 /     \                                                     
                 |  |  |   _    _      __       _____    __    __             
                 |  |  |  | |  | |    /  \     |  _  \  |  |  /  |          
                  \  \/   | |  | |   /    \    | | | |  |  | /  /          
                 / \  \   | |__| |  /  /\  \   | |_| |  |  |/  /          
                |  |  |   |  __  | /  /__\  \  |    /   |      \           
                |  |  |   | |  | | |   __   |  |    \   |  |\   \          
                \     /   | |  | | |  |  |  |  | |\  \  |  | \   \       
                 \___/    |_|  |_| |__|  |__|  |_| \__\ |__|  \__/        
                                                                              
                      - O R C A' S   B I G   F R I E N D -                    
                                      &                                       
                       - I N T E G R A L  F E E D E R -                       
                                                                              
 v1 FN, 2020, v2 2021                                                         
------------------------------------------------------------------------------


Reading SHARK input file NfeCl_octanol.SHARKINP.tmp ... ok
----------------------
SHARK INTEGRAL PACKAGE
----------------------

Number of atoms                             ...     38
Number of basis functions                   ...    308
Number of shells                            ...    154
Maximum angular momentum                    ...      2
Integral batch strategy                     ... SHARK/LIBINT Hybrid
RI-J (if used) integral strategy            ... SPLIT-RIJ (Revised 2003 algorithm where possible)
Printlevel                                  ...      1
Contraction scheme used                     ... SEGMENTED contraction
Coulomb Range Separation                    ... NOT USED
Exchange Range Separation                   ... NOT USED
Finite Nucleus Model                        ... NOT USED
Auxiliary Coulomb fitting basis             ... AVAILABLE
   # of basis functions in Aux-J            ...   2421
   # of shells in Aux-J                     ...    909
   Maximum angular momentum in Aux-J        ...      3
Auxiliary J/K fitting basis                 ... AVAILABLE
   # of basis functions in Aux-JK           ...   2421
   # of shells in Aux-JK                    ...    909
   Maximum angular momentum in Aux-JK       ...      3
Auxiliary Correlation fitting basis         ... AVAILABLE
   # of basis functions in Aux-C            ...   2421
   # of shells in Aux-C                     ...    909
   Maximum angular momentum in Aux-C        ...      3
Auxiliary 'external' fitting basis          ... NOT available
Integral threshold                          ...     2.500000e-11
Primitive cut-off                           ...     2.500000e-12
Primitive pair pre-selection threshold      ...     2.500000e-12

Calculating pre-screening integrals         ... done (  0.1 sec) Dimension = 154
Organizing shell pair data                  ... done (  0.1 sec)
Shell pair information
Total number of shell pairs                 ...     11935
Shell pairs after pre-screening             ...      9122
Total number of primitive shell pairs       ...     70237
Primitive shell pairs kept                  ...     29226
          la=0 lb=0:   3444 shell pairs
          la=1 lb=0:   3035 shell pairs
          la=1 lb=1:    678 shell pairs
          la=2 lb=0:   1266 shell pairs
          la=2 lb=1:    574 shell pairs
          la=2 lb=2:    125 shell pairs

Calculating one electron integrals          ... done (  0.0 sec)
Calculating RI/J V-Matrix + Cholesky decomp.... done (  0.6 sec)
Calculating RI/JK V-Matrix + Cholesky decomp... done (  0.4 sec)
Calculating RI/C V-Matrix + Cholesky decomp.... done (  0.3 sec)
Calculating Nuclear repulsion               ... done (  0.0 sec) ENN=   1560.868659841466 Eh

SHARK setup successfully completed in   1.9 seconds

Maximum memory used throughout the entire GTOINT-calculation: 48.6 MB


           ************************************************************
           *        Program running with 4 parallel MPI-processes     *
           *              working on a common directory               *
           ************************************************************
-------------------------------------------------------------------------------
                                 ORCA SCF
-------------------------------------------------------------------------------

------------
SCF SETTINGS
------------
Hamiltonian:
 Density Functional     Method          .... DFT(GTOs)
 Exchange Functional    Exchange        .... B88
   X-Alpha parameter    XAlpha          ....  0.666667
   Becke's b parameter  XBeta           ....  0.004200
 Correlation Functional Correlation     .... LYP
 LDA part of GGA corr.  LDAOpt          .... VWN-5
 Gradients option       PostSCFGGA      .... off
 Hybrid DFT is turned on
   Fraction HF Exchange ScalHFX         ....  0.200000
   Scaling of DF-GGA-X  ScalDFX         ....  0.720000
   Scaling of DF-GGA-C  ScalDFC         ....  0.810000
   Scaling of DF-LDA-C  ScalLDAC        ....  1.000000
   Perturbative correction              ....  0.000000
   Density functional embedding theory  .... OFF
   NL short-range parameter             ....  4.800000
 RI-approximation to the Coulomb term is turned on
   Number of AuxJ basis functions       .... 2421
   RIJ-COSX (HFX calculated with COS-X)).... on


General Settings:
 Integral files         IntName         .... NfeCl_octanol
 Hartree-Fock type      HFTyp           .... RHF
 Total Charge           Charge          ....    0
 Multiplicity           Mult            ....    1
 Number of Electrons    NEL             ....  150
 Basis Dimension        Dim             ....  308
 Nuclear Repulsion      ENuc            ....   1560.8686598415 Eh

Convergence Acceleration:
 DIIS                   CNVDIIS         .... on
   Start iteration      DIISMaxIt       ....    12
   Startup error        DIISStart       ....  0.200000
   # of expansion vecs  DIISMaxEq       ....     5
   Bias factor          DIISBfac        ....   1.050
   Max. coefficient     DIISMaxC        ....  10.000
 Trust-Rad. Augm. Hess. CNVTRAH         .... auto
   Auto Start mean grad. ratio tolernc. ....  1.125000
   Auto Start start iteration           ....    20
   Auto Start num. interpolation iter.  ....    10
   Max. Number of Micro iterations      ....    16
   Max. Number of Macro iterations      .... Maxiter - #DIIS iter
   Number of Davidson start vectors     ....     2
   Converg. threshold I  (grad. norm)   ....   1.000e-05
   Converg. threshold II (energy diff.) ....   1.000e-08
   Grad. Scal. Fac. for Micro threshold ....   0.100
   Minimum threshold for Micro iter.    ....   0.010
   NR start threshold (gradient norm)   ....   0.001
   Initial trust radius                 ....   0.400
   Minimum AH scaling param. (alpha)    ....   1.000
   Maximum AH scaling param. (alpha)    .... 1000.000
   Orbital update algorithm             .... Taylor
   White noise on init. David. guess    .... on
   Maximum white noise                  ....   0.010
   Quad. conv. algorithm                .... NR
 SOSCF                  CNVSOSCF        .... on
   Start iteration      SOSCFMaxIt      ....   150
   Startup grad/error   SOSCFStart      ....  0.003300
 Level Shifting         CNVShift        .... on
   Level shift para.    LevelShift      ....    0.2500
   Turn off err/grad.   ShiftErr        ....    0.0010
 Zerner damping         CNVZerner       .... off
 Static damping         CNVDamp         .... on
   Fraction old density DampFac         ....    0.7000
   Max. Damping (<1)    DampMax         ....    0.9800
   Min. Damping (>=0)   DampMin         ....    0.0000
   Turn off err/grad.   DampErr         ....    0.1000
 Fernandez-Rico         CNVRico         .... off

SCF Procedure:
 Maximum # iterations   MaxIter         ....   125
 SCF integral mode      SCFMode         .... Direct
   Integral package                     .... SHARK and LIBINT hybrid scheme
 Reset frequency        DirectResetFreq ....    20
 Integral Threshold     Thresh          ....  2.500e-11 Eh
 Primitive CutOff       TCut            ....  2.500e-12 Eh

Convergence Tolerance:
 Convergence Check Mode ConvCheckMode   .... Total+1el-Energy
 Convergence forced     ConvForced      .... 0
 Energy Change          TolE            ....  1.000e-08 Eh
 1-El. energy change                    ....  1.000e-05 Eh
 Orbital Gradient       TolG            ....  1.000e-05
 Orbital Rotation angle TolX            ....  1.000e-05
 DIIS Error             TolErr          ....  5.000e-07


Diagonalization of the overlap matrix:
Smallest eigenvalue                        ... 4.532e-04
Time for diagonalization                   ...    0.224 sec
Threshold for overlap eigenvalues          ... 1.000e-08
Number of eigenvalues below threshold      ... 0
Time for construction of square roots      ...    0.011 sec
Total time needed                          ...    0.236 sec

Time for model grid setup =    0.368 sec

------------------------------
INITIAL GUESS: MODEL POTENTIAL
------------------------------
Loading Hartree-Fock densities                     ... done
Calculating cut-offs                               ... done
Initializing the effective Hamiltonian             ... done
Setting up the integral package (SHARK)            ... done
Starting the Coulomb interaction                   ... done (   0.4 sec)
Reading the grid                                   ... done
Mapping shells                                     ... done
Starting the XC term evaluation                    ... done (   0.2 sec)
  promolecular density results
     # of electrons  =    149.993913519
     EX              =   -134.726758073
     EC              =     -5.201921738
     EX+EC           =   -139.928679811
Transforming the Hamiltonian                       ... done (   0.0 sec)
Diagonalizing the Hamiltonian                      ... done (   0.0 sec)
Back transforming the eigenvectors                 ... done (   0.0 sec)
Now organizing SCF variables                       ... done
                      ------------------
                      INITIAL GUESS DONE (   1.3 sec)
                      ------------------
-------------------
DFT GRID GENERATION
-------------------

General Integration Accuracy     IntAcc      ... 4.388
Radial Grid Type                 RadialGrid  ... OptM3 with GC (2021)
Angular Grid (max. ang.)         AngularGrid ... 4 (Lebedev-302)
Angular grid pruning method      GridPruning ... 4 (adaptive)
Weight generation scheme         WeightScheme... Becke
Basis function cutoff            BFCut       ... 1.0000e-11
Integration weight cutoff        WCut        ... 1.0000e-14
Angular grids for H and He will be reduced by one unit
Partially contracted basis set               ... off
Rotationally invariant grid construction     ... off

Total number of grid points                  ...   174979
Total number of batches                      ...     2754
Average number of points per batch           ...       63
Average number of grid points per atom       ...     4605
Time for grid setup =    1.316 sec

--------------------
COSX GRID GENERATION
--------------------

GRIDX 1
-------
General Integration Accuracy     IntAcc      ... 3.816
Radial Grid Type                 RadialGrid  ... OptM3 with GC (2021)
Angular Grid (max. ang.)         AngularGrid ... 1 (Lebedev-50)
Angular grid pruning method      GridPruning ... 4 (adaptive)
Weight generation scheme         WeightScheme... Becke
Basis function cutoff            BFCut       ... 1.0000e-11
Integration weight cutoff        WCut        ... 1.0000e-14
Angular grids for H and He will be reduced by one unit
Partially contracted basis set               ... on
Rotationally invariant grid construction     ... off

Total number of grid points                  ...    22149
Total number of batches                      ...      367
Average number of points per batch           ...       60
Average number of grid points per atom       ...      583
UseSFitting                                  ... on

GRIDX 2
-------
General Integration Accuracy     IntAcc      ... 4.020
Radial Grid Type                 RadialGrid  ... OptM3 with GC (2021)
Angular Grid (max. ang.)         AngularGrid ... 2 (Lebedev-110)
Angular grid pruning method      GridPruning ... 4 (adaptive)
Weight generation scheme         WeightScheme... Becke
Basis function cutoff            BFCut       ... 1.0000e-11
Integration weight cutoff        WCut        ... 1.0000e-14
Angular grids for H and He will be reduced by one unit
Partially contracted basis set               ... on
Rotationally invariant grid construction     ... off

Total number of grid points                  ...    47384
Total number of batches                      ...      758
Average number of points per batch           ...       62
Average number of grid points per atom       ...     1247
UseSFitting                                  ... on

GRIDX 3
-------
General Integration Accuracy     IntAcc      ... 4.338
Radial Grid Type                 RadialGrid  ... OptM3 with GC (2021)
Angular Grid (max. ang.)         AngularGrid ... 3 (Lebedev-194)
Angular grid pruning method      GridPruning ... 4 (adaptive)
Weight generation scheme         WeightScheme... Becke
Basis function cutoff            BFCut       ... 1.0000e-11
Integration weight cutoff        WCut        ... 1.0000e-14
Angular grids for H and He will be reduced by one unit
Partially contracted basis set               ... on
Rotationally invariant grid construction     ... off

Total number of grid points                  ...   103932
Total number of batches                      ...     1645
Average number of points per batch           ...       63
Average number of grid points per atom       ...     2735
UseSFitting                                  ... on

Time for X-Grid setup             =    3.282 sec


--------------------
CPCM SOLVATION MODEL
--------------------
CPCM parameters:
  Epsilon                                         ...       9.8629
  Refrac                                          ...       1.4295
  Rsolv                                           ...       1.3000
  Surface type                                    ... GAUSSIAN VDW
  Epsilon function type                           ...         CPCM
Radii:
 Radius for C  used is    3.8550 Bohr (=   2.0400 Ang.)
 Radius for H  used is    2.4944 Bohr (=   1.3200 Ang.)
 Radius for O  used is    3.4469 Bohr (=   1.8240 Ang.)
 Radius for N  used is    3.5149 Bohr (=   1.8600 Ang.)
 Radius for Cl used is    3.9684 Bohr (=   2.1000 Ang.)
Calculating surface                               ...        done! (  0.0s)
GEPOL surface points                              ...         2006
GEPOL Volume                                      ...    2280.7686
GEPOL Surface-area                                ...    1163.9664
Calculating surface distance matrix               ...        done! (  0.0s)
Performing Cholesky decomposition & store         ...        done! (  0.1s)
Overall time for CPCM initialization              ...                 0.2s
--------------
SCF ITERATIONS
--------------
ITER       Energy         Delta-E        Max-DP      RMS-DP      [F,P]     Damp
               ***  Starting incremental Fock matrix formation  ***
  0  -1264.0680616070   0.000000000000 0.09717193  0.00175296  0.2744961 0.7000
  1  -1264.2897745624  -0.221712955387 0.05601767  0.00119179  0.1117655 0.7000
                               ***Turning on DIIS***
  2  -1264.3777938840  -0.088019321657 0.06325605  0.00192388  0.0380439 0.0000
  3  -1264.5164633698  -0.138669485808 0.03765971  0.00081847  0.0549900 0.0000
  4  -1264.5456233164  -0.029159946517 0.00911364  0.00027533  0.0142264 0.0000
  5  -1264.5476182382  -0.001994921875 0.00416645  0.00008826  0.0068389 0.0000
                      *** Initiating the SOSCF procedure ***
                           *** Shutting down DIIS ***
                      *** Re-Reading the Fockian *** 
                      *** Removing any level shift *** 
ITER      Energy       Delta-E        Grad      Rot      Max-DP    RMS-DP
  6  -1264.54778311  -0.0001648751  0.000282  0.000282  0.001472  0.000038
               *** Restarting incremental Fock matrix formation ***
  7  -1264.54782828  -0.0000451651  0.000283  0.001125  0.001750  0.000025
  8  -1264.54782061   0.0000076695  0.000541  0.000782  0.001130  0.000016
  9  -1264.54783241  -0.0000117996  0.000071  0.000192  0.000323  0.000005
 10  -1264.54783204   0.0000003648  0.000139  0.000126  0.000226  0.000003
 11  -1264.54783255  -0.0000005069  0.000005  0.000020  0.000025  0.000001
 12  -1264.54783255   0.0000000034  0.000009  0.000015  0.000017  0.000000
                  ***Gradient check signals convergence***
              ***Rediagonalizing the Fockian in SOSCF/NRSCF***

               *****************************************************
               *                     SUCCESS                       *
               *           SCF CONVERGED AFTER  13 CYCLES          *
               *****************************************************

Old exchange energy                            =    -27.341313686 Eh
New exchange energy                            =    -27.341291027 Eh
Exchange energy change after final integration =      0.000022659 Eh
Total energy after final integration           =  -1264.547809889 Eh
Final COS-X integration done in                =    12.753 sec

----------------
TOTAL SCF ENERGY
----------------

Total Energy       :        -1264.54780989 Eh          -34410.09528 eV

Components:
Nuclear Repulsion  :         1560.86865984 Eh           42473.39554 eV
Electronic Energy  :        -2825.41646973 Eh          -76883.49082 eV
One Electron Energy:        -4829.88424911 Eh         -131427.83208 eV
Two Electron Energy:         2004.46777938 Eh           54544.34126 eV
Max COSX asymmetry :            0.00000309 Eh               0.00008 eV
CPCM Dielectric    :           -0.01874211 Eh              -0.51000 eV

Virial components:
Potential Energy   :        -2523.60983712 Eh          -68670.91483 eV
Kinetic Energy     :         1259.06202723 Eh           34260.81955 eV
Virial Ratio       :            2.00435704


DFT components:
N(Alpha)           :       74.999841547325 electrons
N(Beta)            :       74.999841547325 electrons
N(Total)           :      149.999683094649 electrons
E(X)               :     -108.538429999335 Eh       
E(C)               :       -6.120091067556 Eh       
E(XC)              :     -114.658521066891 Eh       
DFET-embed. en.    :        0.000000000000 Eh       
CPCM Solvation Model Properties:
Surface-charge          :           -0.02293073
Charge-correction       :           -0.00007552 Eh              -0.00205 eV
Free-energy (cav+disp)  :  This term is not implemented in the current solvation scheme

---------------
SCF CONVERGENCE
---------------

  Last Energy change         ...   -1.0743e-09  Tolerance :   1.0000e-08
  Last MAX-Density change    ...    7.5495e-15  Tolerance :   1.0000e-07
  Last RMS-Density change    ...    5.9593e-17  Tolerance :   5.0000e-09
  Last Orbital Gradient      ...    1.4354e-06  Tolerance :   1.0000e-05
  Last Orbital Rotation      ...    3.5346e-06  Tolerance :   1.0000e-05

             **** THE GBW FILE WAS UPDATED (NfeCl_octanol.gbw) ****
             **** DENSITY NfeCl_octanol.scfp WAS UPDATED ****
             **** ENERGY FILE WAS UPDATED (NfeCl_octanol.en.tmp) ****
             **** THE GBW FILE WAS UPDATED (NfeCl_octanol.gbw) ****
             **** DENSITY NfeCl_octanol.scfp WAS UPDATED ****
----------------
ORBITAL ENERGIES
----------------

  NO   OCC          E(Eh)            E(eV) 
   0   2.0000    -101.528304     -2762.7256 
   1   2.0000     -19.111822      -520.0591 
   2   2.0000     -19.110856      -520.0328 
   3   2.0000     -14.362231      -390.8162 
   4   2.0000     -14.361923      -390.8078 
   5   2.0000     -10.285853      -279.8923 
   6   2.0000     -10.281768      -279.7811 
   7   2.0000     -10.241949      -278.6976 
   8   2.0000     -10.213929      -277.9351 
   9   2.0000     -10.212086      -277.8850 
  10   2.0000     -10.200094      -277.5587 
  11   2.0000     -10.196586      -277.4632 
  12   2.0000     -10.193013      -277.3660 
  13   2.0000     -10.191757      -277.3318 
  14   2.0000     -10.191371      -277.3213 
  15   2.0000     -10.187325      -277.2112 
  16   2.0000     -10.184679      -277.1392 
  17   2.0000     -10.179250      -276.9915 
  18   2.0000     -10.174372      -276.8587 
  19   2.0000      -9.460506      -257.4335 
  20   2.0000      -7.223439      -196.5598 
  21   2.0000      -7.214088      -196.3053 
  22   2.0000      -7.213760      -196.2964 
  23   2.0000      -1.034111       -28.1396 
  24   2.0000      -1.026868       -27.9425 
  25   2.0000      -0.936520       -25.4840 
  26   2.0000      -0.929690       -25.2981 
  27   2.0000      -0.886699       -24.1283 
  28   2.0000      -0.839090       -22.8328 
  29   2.0000      -0.780424       -21.2364 
  30   2.0000      -0.759514       -20.6674 
  31   2.0000      -0.750912       -20.4334 
  32   2.0000      -0.724312       -19.7095 
  33   2.0000      -0.713943       -19.4274 
  34   2.0000      -0.705023       -19.1846 
  35   2.0000      -0.671433       -18.2706 
  36   2.0000      -0.642878       -17.4936 
  37   2.0000      -0.615378       -16.7453 
  38   2.0000      -0.578591       -15.7443 
  39   2.0000      -0.552952       -15.0466 
  40   2.0000      -0.539523       -14.6812 
  41   2.0000      -0.515134       -14.0175 
  42   2.0000      -0.503881       -13.7113 
  43   2.0000      -0.488322       -13.2879 
  44   2.0000      -0.481291       -13.0966 
  45   2.0000      -0.469874       -12.7859 
  46   2.0000      -0.465264       -12.6605 
  47   2.0000      -0.462405       -12.5827 
  48   2.0000      -0.455512       -12.3951 
  49   2.0000      -0.446474       -12.1492 
  50   2.0000      -0.428223       -11.6525 
  51   2.0000      -0.419853       -11.4248 
  52   2.0000      -0.417597       -11.3634 
  53   2.0000      -0.411099       -11.1866 
  54   2.0000      -0.404539       -11.0081 
  55   2.0000      -0.398408       -10.8412 
  56   2.0000      -0.397013       -10.8033 
  57   2.0000      -0.396001       -10.7757 
  58   2.0000      -0.394219       -10.7272 
  59   2.0000      -0.386030       -10.5044 
  60   2.0000      -0.380759       -10.3610 
  61   2.0000      -0.374863       -10.2005 
  62   2.0000      -0.367713       -10.0060 
  63   2.0000      -0.360678        -9.8146 
  64   2.0000      -0.349944        -9.5225 
  65   2.0000      -0.344998        -9.3879 
  66   2.0000      -0.335309        -9.1242 
  67   2.0000      -0.325002        -8.8438 
  68   2.0000      -0.312306        -8.4983 
  69   2.0000      -0.261423        -7.1137 
  70   2.0000      -0.256946        -6.9919 
  71   2.0000      -0.254244        -6.9183 
  72   2.0000      -0.243701        -6.6314 
  73   2.0000      -0.239716        -6.5230 
  74   2.0000      -0.231007        -6.2860 
  75   0.0000      -0.009215        -0.2508 
  76   0.0000      -0.006368        -0.1733 
  77   0.0000       0.011618         0.3161 
  78   0.0000       0.025693         0.6992 
  79   0.0000       0.033573         0.9136 
  80   0.0000       0.087800         2.3892 
  81   0.0000       0.098281         2.6744 
  82   0.0000       0.117569         3.1992 
  83   0.0000       0.131424         3.5762 
  84   0.0000       0.135790         3.6950 
  85   0.0000       0.140546         3.8245 
  86   0.0000       0.145000         3.9457 
  87   0.0000       0.151206         4.1145 
  88   0.0000       0.158541         4.3141 
  89   0.0000       0.159358         4.3363 
  90   0.0000       0.163142         4.4393 
  91   0.0000       0.169086         4.6011 
  92   0.0000       0.176369         4.7992 
  93   0.0000       0.177783         4.8377 
  94   0.0000       0.186815         5.0835 
  95   0.0000       0.191520         5.2115 
  96   0.0000       0.196833         5.3561 
  97   0.0000       0.200069         5.4442 
  98   0.0000       0.203581         5.5397 
  99   0.0000       0.212073         5.7708 
 100   0.0000       0.221602         6.0301 
 101   0.0000       0.227978         6.2036 
 102   0.0000       0.231325         6.2947 
 103   0.0000       0.240657         6.5486 
 104   0.0000       0.243385         6.6229 
 105   0.0000       0.259170         7.0524 
 106   0.0000       0.269114         7.3230 
 107   0.0000       0.285305         7.7635 
 108   0.0000       0.292700         7.9648 
 109   0.0000       0.296580         8.0703 
 110   0.0000       0.329859         8.9759 
 111   0.0000       0.333636         9.0787 
 112   0.0000       0.347344         9.4517 
 113   0.0000       0.362198         9.8559 
 114   0.0000       0.379475        10.3260 
 115   0.0000       0.406852        11.0710 
 116   0.0000       0.421096        11.4586 
 117   0.0000       0.422039        11.4843 
 118   0.0000       0.426268        11.5994 
 119   0.0000       0.441026        12.0009 
 120   0.0000       0.466838        12.7033 
 121   0.0000       0.476803        12.9745 
 122   0.0000       0.500264        13.6129 
 123   0.0000       0.511638        13.9224 
 124   0.0000       0.514792        14.0082 
 125   0.0000       0.521232        14.1835 
 126   0.0000       0.523778        14.2527 
 127   0.0000       0.533794        14.5253 
 128   0.0000       0.548478        14.9248 
 129   0.0000       0.561751        15.2860 
 130   0.0000       0.567154        15.4331 
 131   0.0000       0.575361        15.6564 
 132   0.0000       0.585624        15.9356 
 133   0.0000       0.590839        16.0775 
 134   0.0000       0.593590        16.1524 
 135   0.0000       0.594064        16.1653 
 136   0.0000       0.602403        16.3922 
 137   0.0000       0.610098        16.6016 
 138   0.0000       0.616027        16.7630 
 139   0.0000       0.619561        16.8591 
 140   0.0000       0.631403        17.1813 
 141   0.0000       0.638322        17.3696 
 142   0.0000       0.647946        17.6315 
 143   0.0000       0.655720        17.8430 
 144   0.0000       0.662559        18.0291 
 145   0.0000       0.665778        18.1167 
 146   0.0000       0.674186        18.3455 
 147   0.0000       0.696882        18.9631 
 148   0.0000       0.719836        19.5877 
 149   0.0000       0.722740        19.6668 
 150   0.0000       0.727267        19.7900 
 151   0.0000       0.742316        20.1995 
 152   0.0000       0.754559        20.5326 
 153   0.0000       0.767040        20.8722 
 154   0.0000       0.768649        20.9160 
 155   0.0000       0.779723        21.2173 
 156   0.0000       0.801486        21.8095 
 157   0.0000       0.804183        21.8829 
 158   0.0000       0.818435        22.2707 
 159   0.0000       0.826344        22.4860 
 160   0.0000       0.836025        22.7494 
 161   0.0000       0.841607        22.9013 
 162   0.0000       0.846455        23.0332 
 163   0.0000       0.853285        23.2191 
 164   0.0000       0.859948        23.4004 
 165   0.0000       0.870049        23.6752 
 166   0.0000       0.873137        23.7593 
 167   0.0000       0.876162        23.8416 
 168   0.0000       0.881402        23.9842 
 169   0.0000       0.890134        24.2218 
 170   0.0000       0.896136        24.3851 
 171   0.0000       0.902792        24.5662 
 172   0.0000       0.909822        24.7575 
 173   0.0000       0.914682        24.8898 
 174   0.0000       0.918797        25.0017 
 175   0.0000       0.930101        25.3093 
 176   0.0000       0.932858        25.3844 
 177   0.0000       0.939615        25.5682 
 178   0.0000       0.947536        25.7838 
 179   0.0000       0.964285        26.2395 
 180   0.0000       0.971071        26.4242 
 181   0.0000       0.980817        26.6894 
 182   0.0000       0.990725        26.9590 
 183   0.0000       0.998048        27.1583 
 184   0.0000       1.005447        27.3596 
 185   0.0000       1.012690        27.5567 
 186   0.0000       1.019528        27.7428 
 187   0.0000       1.029080        28.0027 
 188   0.0000       1.048210        28.5232 
 189   0.0000       1.055754        28.7285 
 190   0.0000       1.069448        29.1011 
 191   0.0000       1.088559        29.6212 
 192   0.0000       1.102850        30.0101 
 193   0.0000       1.123715        30.5778 
 194   0.0000       1.143262        31.1097 
 195   0.0000       1.153927        31.3999 
 196   0.0000       1.182345        32.1732 
 197   0.0000       1.185343        32.2548 
 198   0.0000       1.204113        32.7656 
 199   0.0000       1.233920        33.5767 
 200   0.0000       1.248118        33.9630 
 201   0.0000       1.255214        34.1561 
 202   0.0000       1.269848        34.5543 
 203   0.0000       1.303159        35.4608 
 204   0.0000       1.329114        36.1670 
 205   0.0000       1.343077        36.5470 
 206   0.0000       1.351288        36.7704 
 207   0.0000       1.365497        37.1571 
 208   0.0000       1.382439        37.6181 
 209   0.0000       1.404006        38.2050 
 210   0.0000       1.410252        38.3749 
 211   0.0000       1.426114        38.8065 
 212   0.0000       1.431524        38.9538 
 213   0.0000       1.434562        39.0364 
 214   0.0000       1.438273        39.1374 
 215   0.0000       1.454585        39.5813 
 216   0.0000       1.466698        39.9109 
 217   0.0000       1.468056        39.9478 
 218   0.0000       1.496414        40.7195 
 219   0.0000       1.506789        41.0018 
 220   0.0000       1.511786        41.1378 
 221   0.0000       1.536378        41.8070 
 222   0.0000       1.557334        42.3772 
 223   0.0000       1.611884        43.8616 
 224   0.0000       1.634737        44.4835 
 225   0.0000       1.666145        45.3381 
 226   0.0000       1.715589        46.6835 
 227   0.0000       1.730972        47.1021 
 228   0.0000       1.749616        47.6095 
 229   0.0000       1.768744        48.1300 
 230   0.0000       1.775940        48.3258 
 231   0.0000       1.801315        49.0163 
 232   0.0000       1.817197        49.4484 
 233   0.0000       1.823083        49.6086 
 234   0.0000       1.826456        49.7004 
 235   0.0000       1.836939        49.9856 
 236   0.0000       1.846370        50.2423 
 237   0.0000       1.859914        50.6108 
 238   0.0000       1.869399        50.8689 
 239   0.0000       1.892512        51.4979 
 240   0.0000       1.898823        51.6696 
 241   0.0000       1.919848        52.2417 
 242   0.0000       1.936535        52.6958 
 243   0.0000       1.944928        52.9242 
 244   0.0000       1.956098        53.2281 
 245   0.0000       1.965395        53.4811 
 246   0.0000       1.969768        53.6001 
 247   0.0000       1.979944        53.8770 
 248   0.0000       1.985466        54.0273 
 249   0.0000       1.993731        54.2522 
 250   0.0000       2.021208        54.9999 
 251   0.0000       2.043704        55.6120 
 252   0.0000       2.054837        55.9150 
 253   0.0000       2.064442        56.1763 
 254   0.0000       2.075770        56.4846 
 255   0.0000       2.082115        56.6572 
 256   0.0000       2.085234        56.7421 
 257   0.0000       2.088201        56.8228 
 258   0.0000       2.104838        57.2756 
 259   0.0000       2.126883        57.8754 
 260   0.0000       2.137047        58.1520 
 261   0.0000       2.145146        58.3724 
 262   0.0000       2.155128        58.6440 
 263   0.0000       2.196709        59.7755 
 264   0.0000       2.203751        59.9671 
 265   0.0000       2.218840        60.3777 
 266   0.0000       2.228996        60.6541 
 267   0.0000       2.250373        61.2358 
 268   0.0000       2.267986        61.7150 
 269   0.0000       2.273731        61.8714 
 270   0.0000       2.287252        62.2393 
 271   0.0000       2.299215        62.5648 
 272   0.0000       2.303759        62.6885 
 273   0.0000       2.333581        63.5000 
 274   0.0000       2.348081        63.8945 
 275   0.0000       2.364821        64.3500 
 276   0.0000       2.386193        64.9316 
 277   0.0000       2.397203        65.2312 
 278   0.0000       2.414251        65.6951 
 279   0.0000       2.429248        66.1032 
 280   0.0000       2.443454        66.4898 
 281   0.0000       2.493753        67.8585 
 282   0.0000       2.521775        68.6210 
 283   0.0000       2.552851        69.4666 
 284   0.0000       2.561785        69.7097 
 285   0.0000       2.589974        70.4768 
 286   0.0000       2.600245        70.7563 
 287   0.0000       2.622670        71.3665 
 288   0.0000       2.637289        71.7643 
 289   0.0000       2.654804        72.2409 
 290   0.0000       2.660687        72.4010 
 291   0.0000       2.675243        72.7971 
 292   0.0000       2.694746        73.3278 
 293   0.0000       2.709520        73.7298 
 294   0.0000       2.732305        74.3498 
 295   0.0000       2.745066        74.6970 
 296   0.0000       2.771326        75.4116 
 297   0.0000       2.772634        75.4472 
 298   0.0000       2.791653        75.9647 
 299   0.0000       2.916557        79.3635 
 300   0.0000       2.945833        80.1602 
 301   0.0000       2.963493        80.6408 
 302   0.0000       3.004470        81.7558 
 303   0.0000       3.018109        82.1269 
 304   0.0000       3.058575        83.2281 
 305   0.0000       3.164627        86.1139 
 306   0.0000       3.184089        86.6435 
 307   0.0000       3.387278        92.1725 

                    ********************************
                    * MULLIKEN POPULATION ANALYSIS *
                    ********************************

-----------------------
MULLIKEN ATOMIC CHARGES
-----------------------
   0 C :   -0.561013
   1 H :    0.191984
   2 H :    0.197872
   3 H :    0.182976
   4 C :    0.529309
   5 O :   -0.529168
   6 N :   -0.371284
   7 C :   -0.245810
   8 H :    0.182685
   9 H :    0.205471
  10 C :   -0.168355
  11 H :    0.181378
  12 H :    0.182035
  13 C :   -0.369489
  14 H :    0.180501
  15 H :    0.167412
  16 C :    0.147717
  17 C :   -0.190641
  18 C :   -0.190589
  19 C :   -0.141944
  20 H :    0.168878
  21 C :   -0.139400
  22 H :    0.157483
  23 C :   -0.079627
  24 H :    0.172696
  25 H :    0.172368
  26 C :    0.519241
  27 N :   -0.358107
  28 O :   -0.533328
  29 C :   -0.348636
  30 H :    0.171225
  31 H :    0.172836
  32 H :    0.199281
  33 C :   -0.330423
  34 H :    0.171161
  35 H :    0.187326
  36 H :    0.171817
  37 Cl:   -0.055842
Sum of atomic charges:   -0.0000000

--------------------------------
MULLIKEN REDUCED ORBITAL CHARGES
--------------------------------
  0 C s       :     3.323341  s :     3.323341
      pz      :     1.085046  p :     3.205760
      px      :     1.104014
      py      :     1.016701
      dz2     :     0.002891  d :     0.031912
      dxz     :     0.009815
      dyz     :     0.007075
      dx2y2   :     0.004378
[...]
    107       0.015327  -0.000672   0.504895   0.406982  -0.000177  -0.000396
    108       0.004545  -0.000297   0.153053   0.119222  -0.000083   0.000010
    109      -0.003465   0.000231  -0.115602  -0.088282   0.000058  -0.000025
    110       0.002249  -0.000153   0.075147   0.058125  -0.000039   0.000022
    111       0.000010  -0.000002   0.000000  -0.000001   0.000050  -0.000255
    112       0.000013   0.000013   0.000000   0.000000   0.000031  -0.000022
    113       0.000005   0.000009  -0.000000  -0.000001   0.000020  -0.000027


-----------
IR SPECTRUM
-----------

 Mode   freq       eps      Int      T**2         TX        TY        TZ
       cm**-1   L/(mol*cm) km/mol    a.u.
----------------------------------------------------------------------------
  6:     20.60   0.000105    0.53  0.001592  ( 0.031453  0.024516  0.001301)
  7:     33.43   0.000024    0.12  0.000226  (-0.000083 -0.014966 -0.001487)
  8:     38.49   0.000480    2.43  0.003892  ( 0.061517 -0.002083  0.010146)
  9:     53.95   0.001133    5.73  0.006555  ( 0.043406 -0.011411 -0.067387)
 10:     67.44   0.000930    4.70  0.004305  (-0.024278  0.052552  0.030889)
 11:     79.35   0.000510    2.58  0.002004  (-0.030351  0.029441  0.014698)
 12:     81.71   0.000600    3.03  0.002293  (-0.015467  0.043351  0.013221)
 13:    104.76   0.001156    5.84  0.003443  (-0.006720  0.037840 -0.044338)
 14:    113.84   0.001636    8.27  0.004485  ( 0.007740  0.048848 -0.045160)
 15:    125.53   0.000862    4.36  0.002144  (-0.017688  0.042347 -0.006122)
 16:    148.29   0.000247    1.25  0.000521  ( 0.001150 -0.021130 -0.008546)
 17:    160.66   0.000342    1.73  0.000663  (-0.001967  0.025126 -0.005306)
 18:    165.92   0.000126    0.63  0.000236  (-0.001797 -0.007917 -0.013049)
 19:    219.25   0.000189    0.95  0.000269  (-0.012141  0.005114  0.009745)
 20:    249.32   0.001335    6.75  0.001671  (-0.021377  0.031237  0.015444)
 21:    260.72   0.000341    1.73  0.000409  (-0.011162  0.016209  0.004627)
 22:    275.17   0.001996   10.09  0.002264  ( 0.036224 -0.030412  0.005171)
 23:    320.73   0.000621    3.14  0.000604  ( 0.004859 -0.024012  0.002024)
 24:    342.20   0.000765    3.87  0.000698  ( 0.009195  0.001642  0.024709)
 25:    368.13   0.002251   11.37  0.001908  (-0.013490  0.026761 -0.031779)
 26:    380.91   0.000404    2.04  0.000331  ( 0.005004 -0.011080  0.013524)
 27:    391.75   0.001720    8.69  0.001370  (-0.005306 -0.010140  0.035202)
 28:    420.97   0.000011    0.06  0.000008  ( 0.002376 -0.001122 -0.001167)
 29:    426.12   0.005385   27.21  0.003944  (-0.055227 -0.028706  0.008347)
 30:    436.34   0.000580    2.93  0.000415  (-0.020122  0.003142 -0.000253)
 31:    464.43   0.002484   12.55  0.001669  ( 0.038878  0.011289 -0.005460)
 32:    493.67   0.004346   21.96  0.002747  ( 0.026158 -0.040135 -0.021268)
 33:    524.81   0.004952   25.02  0.002944  ( 0.004320 -0.012934  0.052520)
 34:    580.23   0.003819   19.30  0.002054  (-0.009862 -0.037082  0.024114)
 35:    598.62   0.002354   11.90  0.001227  ( 0.015156  0.025184 -0.019062)
 36:    620.24   0.002540   12.84  0.001278  (-0.009756 -0.002214  0.034320)
 37:    645.66   0.000082    0.41  0.000040  ( 0.005454  0.001461  0.002773)
 38:    667.32   0.007072   35.74  0.003307  (-0.052025 -0.010506 -0.022134)
 39:    700.78   0.000318    1.61  0.000142  (-0.007871  0.005859 -0.006732)
 40:    728.04   0.000940    4.75  0.000403  ( 0.011246  0.012955 -0.010431)
 41:    765.07   0.003383   17.10  0.001380  ( 0.000805 -0.031044  0.020387)
 42:    785.75   0.002020   10.21  0.000802  (-0.019958  0.016048  0.012105)
 43:    817.86   0.007220   36.49  0.002755  ( 0.045638 -0.006303  0.025143)
 44:    830.47   0.004846   24.49  0.001821  ( 0.002726 -0.019216  0.038005)
 45:    847.71   0.000260    1.31  0.000096  (-0.001038 -0.001487  0.009615)
 46:    870.62   0.004859   24.55  0.001742  ( 0.004489  0.022556 -0.034824)
 47:    960.35   0.000467    2.36  0.000152  (-0.006873  0.004898 -0.008977)
 48:    966.50   0.000191    0.96  0.000062  ( 0.006378 -0.002840  0.003576)
 49:    982.99   0.000000    0.00  0.000000  ( 0.000333 -0.000019  0.000001)
 50:   1002.45   0.004572   23.10  0.001423  (-0.023734  0.008231 -0.028145)
 51:   1010.62   0.006150   31.08  0.001899  ( 0.027536  0.023754 -0.024008)
 52:   1027.38   0.009291   46.95  0.002822  (-0.053084 -0.001826  0.000979)
 53:   1031.14   0.010323   52.17  0.003124  ( 0.038765  0.040090 -0.003772)
 54:   1032.63   0.005112   25.83  0.001545  ( 0.009508  0.010792  0.036577)
 55:   1061.86   0.001989   10.05  0.000585  (-0.001453  0.010095 -0.021922)
 56:   1088.90   0.003154   15.94  0.000904  (-0.023031 -0.017346 -0.008515)
 57:   1096.01   0.002523   12.75  0.000718  (-0.009791  0.007424 -0.023819)
 58:   1103.14   0.011599   58.62  0.003281  ( 0.056314  0.008097  0.006656)
 59:   1135.16   0.000583    2.94  0.000160  ( 0.002251  0.012428  0.000824)
 60:   1139.68   0.002456   12.41  0.000673  (-0.011410 -0.006532 -0.022354)
 61:   1170.92   0.013777   69.62  0.003672  (-0.041910  0.023900 -0.036661)
 62:   1184.76   0.000956    4.83  0.000252  ( 0.009419 -0.004411  0.011986)
 63:   1208.19   0.000044    0.22  0.000011  ( 0.002174  0.000566  0.002533)
 64:   1218.81   0.009628   48.65  0.002465  (-0.004444 -0.018823 -0.045727)
 65:   1236.28   0.003731   18.86  0.000942  ( 0.025158  0.017361  0.002748)
 66:   1251.07   0.012578   63.56  0.003137  ( 0.036038  0.042142  0.007918)
 67:   1285.58   0.007241   36.59  0.001758  (-0.009136 -0.007228  0.040272)
 68:   1290.26   0.031495  159.16  0.007617  (-0.020553 -0.083340 -0.015790)
 69:   1333.08   0.000145    0.73  0.000034  ( 0.000926  0.005021  0.002813)
 70:   1335.37   0.001275    6.45  0.000298  (-0.010081 -0.013972 -0.001107)
 71:   1336.94   0.002304   11.64  0.000538  ( 0.016360  0.016092  0.003349)
 72:   1362.64   0.000472    2.38  0.000108  (-0.006526 -0.006856 -0.004289)
 73:   1372.75   0.000384    1.94  0.000087  (-0.006127  0.004985 -0.004990)
 74:   1406.58   0.012310   62.21  0.002731  (-0.050328 -0.005167  0.013096)
 75:   1415.91   0.007579   38.30  0.001670  (-0.027522 -0.028465 -0.010132)
 76:   1442.88   0.014701   74.29  0.003179  (-0.018103  0.022985 -0.048202)
 77:   1451.90   0.001675    8.47  0.000360  (-0.005008 -0.015622 -0.009538)
 78:   1457.98   0.016793   84.86  0.003594  (-0.004196  0.048389 -0.035145)
 79:   1475.75   0.046347  234.22  0.009801  (-0.067222 -0.068818 -0.023367)
 80:   1483.65   0.003352   16.94  0.000705  ( 0.023610 -0.011826 -0.002777)
 81:   1490.52   0.000742    3.75  0.000155  (-0.006438 -0.001638  0.010550)
 82:   1500.96   0.001597    8.07  0.000332  ( 0.004007 -0.001240  0.017734)
 83:   1505.43   0.003173   16.04  0.000658  (-0.005782  0.020083  0.014868)
 84:   1511.09   0.002746   13.88  0.000567  ( 0.008979  0.022006  0.001487)
 85:   1514.07   0.002575   13.01  0.000531  (-0.007017 -0.021915  0.001071)
 86:   1519.09   0.003966   20.04  0.000815  ( 0.025096 -0.013281 -0.002923)
 87:   1531.47   0.005905   29.84  0.001203  (-0.028492 -0.005311 -0.019059)
 88:   1534.74   0.006505   32.87  0.001323  (-0.011963  0.019373  0.028359)
 89:   1536.20   0.022611  114.27  0.004593  ( 0.066993  0.005492  0.008662)
 90:   1556.18   0.016445   83.11  0.003298  (-0.004208 -0.034396  0.045793)
 91:   1630.87   0.000337    1.70  0.000064  (-0.000414  0.007523  0.002773)
 92:   1651.33   0.000379    1.92  0.000072  ( 0.008307  0.000757  0.001428)
 93:   1706.05   0.187484  947.47  0.034294  ( 0.151314  0.037773  0.099855)
 94:   1711.48   0.047318  239.13  0.008628  (-0.083707 -0.000435  0.040258)
 95:   3034.57   0.004858   24.55  0.000500  (-0.015464 -0.015506 -0.004472)
 96:   3039.21   0.018043   91.18  0.001853  (-0.001698 -0.004868  0.042733)
 97:   3065.79   0.000657    3.32  0.000067  (-0.006489  0.004969  0.000235)
 98:   3076.37   0.003614   18.27  0.000367  (-0.010098 -0.008548 -0.013842)
 99:   3084.93   0.004096   20.70  0.000414  (-0.003419  0.009383  0.017738)
100:   3089.99   0.011472   57.98  0.001159  ( 0.020025 -0.003240  0.027333)
101:   3097.34   0.010629   53.71  0.001071  ( 0.025752 -0.020159  0.001154)
102:   3104.11   0.006564   33.17  0.000660  ( 0.019202 -0.016997  0.001517)
103:   3121.63   0.000798    4.03  0.000080  ( 0.004990 -0.007368  0.000788)
104:   3132.14   0.001923    9.72  0.000192  ( 0.001376  0.003128 -0.013412)
105:   3142.21   0.007439   37.59  0.000739  (-0.000426  0.026674  0.005203)
106:   3167.71   0.001465    7.40  0.000144  (-0.000519  0.011045 -0.004697)
107:   3172.17   0.002748   13.89  0.000270  (-0.014343 -0.007449 -0.003020)
108:   3191.45   0.000374    1.89  0.000037  (-0.003584  0.004624  0.001532)
109:   3193.34   0.002752   13.91  0.000269  ( 0.008972  0.011595  0.007347)
110:   3194.11   0.001065    5.38  0.000104  (-0.000565 -0.009657 -0.003238)
111:   3195.32   0.000435    2.20  0.000042  (-0.006358  0.000330 -0.001390)
112:   3223.83   0.001273    6.43  0.000123  (-0.001688  0.009623  0.005272)
113:   3224.76   0.000324    1.64  0.000031  ( 0.005416  0.001340  0.000478)

* The epsilon (eps) is given for a Dirac delta lineshape.
** The dipole moment derivative (T) already includes vibrational overlap.

The first frequency considered to be a vibration is 6
The total number of vibrations considered is 108


--------------------------
THERMOCHEMISTRY AT 298.15K
--------------------------

Temperature         ... 298.15 K
Pressure            ... 1.00 atm
Total Mass          ... 282.77 AMU

Throughout the following assumptions are being made:
  (1) The electronic state is orbitally nondegenerate
  (2) There are no thermally accessible electronically excited states
  (3) Hindered rotations indicated by low frequency modes are not
      treated as such but are treated as vibrations and this may
      cause some error
  (4) All equations used are the standard statistical mechanics
      equations for an ideal gas
  (5) All vibrations are strictly harmonic

freq.      20.60  E(vib)   ...       0.56 
freq.      33.43  E(vib)   ...       0.55 
freq.      38.49  E(vib)   ...       0.54 
freq.      53.95  E(vib)   ...       0.52 
freq.      67.44  E(vib)   ...       0.50 
freq.      79.35  E(vib)   ...       0.49 
freq.      81.71  E(vib)   ...       0.48 
freq.     104.76  E(vib)   ...       0.46 
freq.     113.84  E(vib)   ...       0.44 
freq.     125.53  E(vib)   ...       0.43 
freq.     148.29  E(vib)   ...       0.41 
freq.     160.66  E(vib)   ...       0.39 
freq.     165.92  E(vib)   ...       0.39 
freq.     219.25  E(vib)   ...       0.33 
freq.     249.32  E(vib)   ...       0.31 
freq.     260.72  E(vib)   ...       0.30 
freq.     275.17  E(vib)   ...       0.28 
freq.     320.73  E(vib)   ...       0.25 
freq.     342.20  E(vib)   ...       0.23 
freq.     368.13  E(vib)   ...       0.21 
freq.     380.91  E(vib)   ...       0.21 
freq.     391.75  E(vib)   ...       0.20 
freq.     420.97  E(vib)   ...       0.18 
freq.     426.12  E(vib)   ...       0.18 
freq.     436.34  E(vib)   ...       0.17 
freq.     464.43  E(vib)   ...       0.16 
freq.     493.67  E(vib)   ...       0.14 
freq.     524.81  E(vib)   ...       0.13 
freq.     580.23  E(vib)   ...       0.11 
freq.     598.62  E(vib)   ...       0.10 
freq.     620.24  E(vib)   ...       0.09 
freq.     645.66  E(vib)   ...       0.09 
freq.     667.32  E(vib)   ...       0.08 
freq.     700.78  E(vib)   ...       0.07 
freq.     728.04  E(vib)   ...       0.06 
freq.     765.07  E(vib)   ...       0.06 
freq.     785.75  E(vib)   ...       0.05 
freq.     817.86  E(vib)   ...       0.05 
freq.     830.47  E(vib)   ...       0.04 
freq.     847.71  E(vib)   ...       0.04 
freq.     870.62  E(vib)   ...       0.04 
freq.     960.35  E(vib)   ...       0.03 
freq.     966.50  E(vib)   ...       0.03 
freq.     982.99  E(vib)   ...       0.02 
freq.    1002.45  E(vib)   ...       0.02 
freq.    1010.62  E(vib)   ...       0.02 
freq.    1027.38  E(vib)   ...       0.02 
freq.    1031.14  E(vib)   ...       0.02 
freq.    1032.63  E(vib)   ...       0.02 
freq.    1061.86  E(vib)   ...       0.02 
freq.    1088.90  E(vib)   ...       0.02 
freq.    1096.01  E(vib)   ...       0.02 
freq.    1103.14  E(vib)   ...       0.02 
freq.    1135.16  E(vib)   ...       0.01 
freq.    1139.68  E(vib)   ...       0.01 
freq.    1170.92  E(vib)   ...       0.01 
freq.    1184.76  E(vib)   ...       0.01 
freq.    1208.19  E(vib)   ...       0.01 
freq.    1218.81  E(vib)   ...       0.01 
freq.    1236.28  E(vib)   ...       0.01 
freq.    1251.07  E(vib)   ...       0.01 
freq.    1285.58  E(vib)   ...       0.01 
freq.    1290.26  E(vib)   ...       0.01 
freq.    1333.08  E(vib)   ...       0.01 
freq.    1335.37  E(vib)   ...       0.01 
freq.    1336.94  E(vib)   ...       0.01 
freq.    1362.64  E(vib)   ...       0.01 
freq.    1372.75  E(vib)   ...       0.01 
freq.    1406.58  E(vib)   ...       0.00 
freq.    1415.91  E(vib)   ...       0.00 
freq.    1442.88  E(vib)   ...       0.00 
freq.    1451.90  E(vib)   ...       0.00 
freq.    1457.98  E(vib)   ...       0.00 
freq.    1475.75  E(vib)   ...       0.00 
freq.    1483.65  E(vib)   ...       0.00 
freq.    1490.52  E(vib)   ...       0.00 
freq.    1500.96  E(vib)   ...       0.00 
freq.    1505.43  E(vib)   ...       0.00 
freq.    1511.09  E(vib)   ...       0.00 
freq.    1514.07  E(vib)   ...       0.00 
freq.    1519.09  E(vib)   ...       0.00 
freq.    1531.47  E(vib)   ...       0.00 
freq.    1534.74  E(vib)   ...       0.00 
freq.    1536.20  E(vib)   ...       0.00 
freq.    1556.18  E(vib)   ...       0.00 
freq.    1630.87  E(vib)   ...       0.00 
freq.    1651.33  E(vib)   ...       0.00 
freq.    1706.05  E(vib)   ...       0.00 
freq.    1711.48  E(vib)   ...       0.00 
freq.    3034.57  E(vib)   ...       0.00 
freq.    3039.21  E(vib)   ...       0.00 
freq.    3065.79  E(vib)   ...       0.00 
freq.    3076.37  E(vib)   ...       0.00 
freq.    3084.93  E(vib)   ...       0.00 
freq.    3089.99  E(vib)   ...       0.00 
freq.    3097.34  E(vib)   ...       0.00 
freq.    3104.11  E(vib)   ...       0.00 
freq.    3121.63  E(vib)   ...       0.00 
freq.    3132.14  E(vib)   ...       0.00 
freq.    3142.21  E(vib)   ...       0.00 
freq.    3167.71  E(vib)   ...       0.00 
freq.    3172.17  E(vib)   ...       0.00 
freq.    3191.45  E(vib)   ...       0.00 
freq.    3193.34  E(vib)   ...       0.00 
freq.    3194.11  E(vib)   ...       0.00 
freq.    3195.32  E(vib)   ...       0.00 
freq.    3223.83  E(vib)   ...       0.00 
freq.    3224.76  E(vib)   ...       0.00 

------------
INNER ENERGY
------------

The inner energy is: U= E(el) + E(ZPE) + E(vib) + E(rot) + E(trans)
    E(el)   - is the total energy from the electronic structure calculation
              = E(kin-el) + E(nuc-el) + E(el-el) + E(nuc-nuc)
    E(ZPE)  - the the zero temperature vibrational energy from the frequency calculation
    E(vib)  - the the finite temperature correction to E(ZPE) due to population
              of excited vibrational states
    E(rot)  - is the rotational thermal energy
    E(trans)- is the translational thermal energy

Summary of contributions to the inner energy U:
Electronic energy                ...  -1264.62388704 Eh
Zero point energy                ...      0.31675063 Eh     198.76 kcal/mol
Thermal vibrational correction   ...      0.01714456 Eh      10.76 kcal/mol
Thermal rotational correction    ...      0.00141627 Eh       0.89 kcal/mol
Thermal translational correction ...      0.00141627 Eh       0.89 kcal/mol
-----------------------------------------------------------------------
Total thermal energy                  -1264.28715930 Eh


Summary of corrections to the electronic energy:
(perhaps to be used in another calculation)
Total thermal correction                  0.01997711 Eh      12.54 kcal/mol
Non-thermal (ZPE) correction              0.31675063 Eh     198.76 kcal/mol
-----------------------------------------------------------------------
Total correction                          0.33672774 Eh     211.30 kcal/mol


--------
ENTHALPY
--------

The enthalpy is H = U + kB*T
                kB is Boltzmann's constant
Total free energy                 ...  -1264.28715930 Eh 
Thermal Enthalpy correction       ...      0.00094421 Eh       0.59 kcal/mol
-----------------------------------------------------------------------
Total Enthalpy                    ...  -1264.28621509 Eh


Note: Only C1 symmetry has been detected, increase convergence thresholds 
      if your molecule has a higher symmetry. Symmetry factor of 1.0 is   
      used for the rotational entropy correction. 
 

Note: Rotational entropy computed according to Herzberg 
Infrared and Raman Spectra, Chapter V,1, Van Nostrand Reinhold, 1945 
Point Group:  C1, Symmetry Number:   1  
Rotational constants in cm-1:     0.019552     0.005285     0.004550 

Vibrational entropy computed according to the QRRHO of S. Grimme
Chem.Eur.J. 2012 18 9955


-------
ENTROPY
-------

The entropy contributions are T*S = T*(S(el)+S(vib)+S(rot)+S(trans))
     S(el)   - electronic entropy
     S(vib)  - vibrational entropy
     S(rot)  - rotational entropy
     S(trans)- translational entropy
The entropies will be listed as multiplied by the temperature to get
units of energy

Electronic entropy                ...      0.00000000 Eh      0.00 kcal/mol
Vibrational entropy               ...      0.03102842 Eh     19.47 kcal/mol
Rotational entropy                ...      0.01638922 Eh     10.28 kcal/mol
Translational entropy             ...      0.02034341 Eh     12.77 kcal/mol
-----------------------------------------------------------------------
Final entropy term                ...      0.06776104 Eh     42.52 kcal/mol

In case the symmetry of your molecule has not been determined correctly
or in case you have a reason to use a different symmetry number we print 
out the resulting rotational entropy values for sn=1,12 :
 --------------------------------------------------------
|  sn= 1 | S(rot)=       0.01638922 Eh     10.28 kcal/mol|
|  sn= 2 | S(rot)=       0.01573476 Eh      9.87 kcal/mol|
|  sn= 3 | S(rot)=       0.01535193 Eh      9.63 kcal/mol|
|  sn= 4 | S(rot)=       0.01508030 Eh      9.46 kcal/mol|
|  sn= 5 | S(rot)=       0.01486962 Eh      9.33 kcal/mol|
|  sn= 6 | S(rot)=       0.01469747 Eh      9.22 kcal/mol|
|  sn= 7 | S(rot)=       0.01455193 Eh      9.13 kcal/mol|
|  sn= 8 | S(rot)=       0.01442585 Eh      9.05 kcal/mol|
|  sn= 9 | S(rot)=       0.01431464 Eh      8.98 kcal/mol|
|  sn=10 | S(rot)=       0.01421516 Eh      8.92 kcal/mol|
|  sn=11 | S(rot)=       0.01412517 Eh      8.86 kcal/mol|
|  sn=12 | S(rot)=       0.01404301 Eh      8.81 kcal/mol|
 --------------------------------------------------------


-------------------
GIBBS FREE ENERGY
-------------------

The Gibbs free energy is G = H - T*S

Total enthalpy                    ...  -1264.28621509 Eh 
Total entropy correction          ...     -0.06776104 Eh    -42.52 kcal/mol
-----------------------------------------------------------------------
Final Gibbs free energy         ...  -1264.35397614 Eh

For completeness - the Gibbs free energy minus the electronic energy
G-E(el)                           ...      0.26991091 Eh    169.37 kcal/mol


Timings for individual modules:

Sum of individual times         ...     2576.382 sec (=  42.940 min)
GTO integral calculation        ...       24.120 sec (=   0.402 min)   0.9 %
SCF iterations                  ...     1116.348 sec (=  18.606 min)  43.3 %
SCF Gradient evaluation         ...      351.750 sec (=   5.862 min)  13.7 %
Geometry relaxation             ...        1.438 sec (=   0.024 min)   0.1 %
Analytical frequency calculation...     1082.726 sec (=  18.045 min)  42.0 %
                             ****ORCA TERMINATED NORMALLY****
TOTAL RUN TIME: 0 days 0 hours 43 minutes 1 seconds 873 msec
