
                                 *****************
                                 * O   R   C   A *
                                 *****************

                                            #,                                       
                                            ###                                      
                                            ####                                     
                                            #####                                    
                                            ######                                   
                                           ########,                                 
                                     ,,################,,,,,                         
                               ,,#################################,,                 
                          ,,##########################################,,             
                       ,#########################################, ''#####,          
                    ,#############################################,,   '####,        
                  ,##################################################,,,,####,       
                ,###########''''           ''''###############################       
              ,#####''   ,,,,##########,,,,          '''####'''          '####       
            ,##' ,,,,###########################,,,                        '##       
           ' ,,###''''                  '''############,,,                           
         ,,##''                                '''############,,,,        ,,,,,,###''
      ,#''                                            '''#######################'''  
     '                                                          ''''####''''         
             ,#######,   #######,   ,#######,      ##                                
            ,#'     '#,  ##    ##  ,#'     '#,    #''#        ######   ,####,        
            ##       ##  ##   ,#'  ##            #'  '#       #        #'  '#        
            ##       ##  #######   ##           ,######,      #####,   #    #        
            '#,     ,#'  ##    ##  '#,     ,#' ,#      #,         ##   #,  ,#        
             '#######'   ##     ##  '#######'  #'      '#     #####' # '####'        



                  #######################################################
                  #                        -***-                        #
                  #          Department of theory and spectroscopy      #
                  #    Directorship and core code : Frank Neese         #
                  #        Max Planck Institute fuer Kohlenforschung    #
                  #                Kaiser Wilhelm Platz 1               #
                  #                 D-45470 Muelheim/Ruhr               #
                  #                      Germany                        #
                  #                                                     #
                  #                  All rights reserved                #
                  #                        -***-                        #
                  #######################################################


                         Program Version 5.0.4 -  RELEASE  -


 With contributions from (in alphabetic order):
   Daniel Aravena         : Magnetic Suceptibility
   Michael Atanasov       : Ab Initio Ligand Field Theory (pilot matlab implementation)
   Alexander A. Auer      : GIAO ZORA, VPT2 properties, NMR spectrum
   Ute Becker             : Parallelization
   Giovanni Bistoni       : ED, misc. LED, open-shell LED, HFLD
   Martin Brehm           : Molecular dynamics
   Dmytro Bykov           : SCF Hessian
   Vijay G. Chilkuri      : MRCI spin determinant printing, contributions to CSF-ICE
   Dipayan Datta          : RHF DLPNO-CCSD density
   Achintya Kumar Dutta   : EOM-CC, STEOM-CC
   Dmitry Ganyushin       : Spin-Orbit,Spin-Spin,Magnetic field MRCI
   Miquel Garcia          : C-PCM and meta-GGA Hessian, CC/C-PCM, Gaussian charge scheme
   Yang Guo               : DLPNO-NEVPT2, F12-NEVPT2, CIM, IAO-localization
   Andreas Hansen         : Spin unrestricted coupled pair/coupled cluster methods
   Benjamin Helmich-Paris : MC-RPA, TRAH-SCF, COSX integrals
   Lee Huntington         : MR-EOM, pCC
   Robert Izsak           : Overlap fitted RIJCOSX, COSX-SCS-MP3, EOM
   Marcus Kettner         : VPT2
   Christian Kollmar      : KDIIS, OOCD, Brueckner-CCSD(T), CCSD density, CASPT2, CASPT2-K
   Simone Kossmann        : Meta GGA functionals, TD-DFT gradient, OOMP2, MP2 Hessian
   Martin Krupicka        : Initial AUTO-CI
   Lucas Lang             : DCDCAS
   Marvin Lechner         : AUTO-CI (C++ implementation), FIC-MRCC
   Dagmar Lenk            : GEPOL surface, SMD
   Dimitrios Liakos       : Extrapolation schemes; Compound Job, initial MDCI parallelization
   Dimitrios Manganas     : Further ROCIS development; embedding schemes
   Dimitrios Pantazis     : SARC Basis sets
   Anastasios Papadopoulos: AUTO-CI, single reference methods and gradients
   Taras Petrenko         : DFT Hessian,TD-DFT gradient, ASA, ECA, R-Raman, ABS, FL, XAS/XES, NRVS
   Peter Pinski           : DLPNO-MP2, DLPNO-MP2 Gradient
   Christoph Reimann      : Effective Core Potentials
   Marius Retegan         : Local ZFS, SOC
   Christoph Riplinger    : Optimizer, TS searches, QM/MM, DLPNO-CCSD(T), (RO)-DLPNO pert. Triples
   Tobias Risthaus        : Range-separated hybrids, TD-DFT gradient, RPA, STAB
   Michael Roemelt        : Original ROCIS implementation
   Masaaki Saitow         : Open-shell DLPNO-CCSD energy and density
   Barbara Sandhoefer     : DKH picture change effects
   Avijit Sen             : IP-ROCIS
   Kantharuban Sivalingam : CASSCF convergence, NEVPT2, FIC-MRCI
   Bernardo de Souza      : ESD, SOC TD-DFT
   Georgi Stoychev        : AutoAux, RI-MP2 NMR, DLPNO-MP2 response
   Willem Van den Heuvel  : Paramagnetic NMR
   Boris Wezisla          : Elementary symmetry handling
   Frank Wennmohs         : Technical directorship


 We gratefully acknowledge several colleagues who have allowed us to
 interface, adapt or use parts of their codes:
   Stefan Grimme, W. Hujo, H. Kruse, P. Pracht,  : VdW corrections, initial TS optimization,
                  C. Bannwarth, S. Ehlert          DFT functionals, gCP, sTDA/sTD-DF
   Ed Valeev, F. Pavosevic, A. Kumar             : LibInt (2-el integral package), F12 methods
   Garnet Chan, S. Sharma, J. Yang, R. Olivares  : DMRG
   Ulf Ekstrom                                   : XCFun DFT Library
   Mihaly Kallay                                 : mrcc  (arbitrary order and MRCC methods)
   Jiri Pittner, Ondrej Demel                    : Mk-CCSD
   Frank Weinhold                                : gennbo (NPA and NBO analysis)
   Christopher J. Cramer and Donald G. Truhlar   : smd solvation model
   Lars Goerigk                                  : TD-DFT with DH, B97 family of functionals
   V. Asgeirsson, H. Jonsson                     : NEB implementation
   FAccTs GmbH                                   : IRC, NEB, NEB-TS, DLPNO-Multilevel, CI-OPT
                                                   MM, QMMM, 2- and 3-layer-ONIOM, Crystal-QMMM,
                                                   LR-CPCM, SF, NACMEs, symmetry and pop. for TD-DFT,
                                                   nearIR, NL-DFT gradient (VV10), updates on ESD,
                                                   ML-optimized integration grids
   S Lehtola, MJT Oliveira, MAL Marques          : LibXC Library
   Liviu Ungur et al                             : ANISO software


 Your calculation uses the libint2 library for the computation of 2-el integrals
 For citations please refer to: http://libint.valeyev.net

 Your ORCA version has been built with support for libXC version: 5.1.0
 For citations please refer to: https://tddft.org/programs/libxc/

 This ORCA versions uses:
   CBLAS   interface :  Fast vector & matrix operations
   LAPACKE interface :  Fast linear algebra routines
   SCALAPACK package :  Parallel linear algebra routines
   Shared memory     :  Shared parallel matrices
   BLAS/LAPACK       :  OpenBLAS 0.3.15  USE64BITINT DYNAMIC_ARCH NO_AFFINITY SkylakeX SINGLE_THREADED
        Core in use  :  SkylakeX
   Copyright (c) 2011-2014, The OpenBLAS Project




***************************************
The coordinates will be read from file: /users/fjb15167/WWenergy/structures/Nfer.xyz
***************************************


Your calculation utilizes the atom-pairwise dispersion correction
based on tight binding partial charges (D4)
Cite in your paper:
E.Caldeweyher, C.Bannwarth, S.Grimme, J.Chem.Phys., (2017), 147, 034112.
E.Caldeweyher, S.Ehlert, A.Hansen, H.Neugebauer, S.Grimme, J.Chem.Phys., (2018), in progress.
   

================================================================================

----- Orbital basis set information -----
Your calculation utilizes the basis: 6-31G(d)
   H-He, Li-Ne : W. J. Hehre, R. Ditchfield and J.A. Pople, J. Chem. Phys. 56, 2257 (1972).
                 Note: He and Ne are unpublished basis sets taken from the Gaussian program.
                 Note: Li and B from J. D. Dill and J. A. Pople, J. Chem. Phys. 62, 2921 (1975).
   Na - Ar     : M. M. Francl, W. J. Pietro, W. J. Hehre, J. S. Binkley, M. S. Gordon, 
                 D. J. DeFrees and J. A. Pople, J. Chem. Phys. 77, 3654 (1982).
   K - Zn      : V. A. Rassolov, J. A. Pople, M. A. Ratner, and T. L. Windus, J. Chem. Phys. 109, 1223 (1998).

----- AuxJ basis set information -----
Your calculation utilizes the AutoAux generation procedure.
  G. L. Stoychev, A. A. Auer, F. Neese, J. Chem. Theory Comput. 13, 554 (2017)

----- AuxC basis set information -----
Your calculation utilizes the AutoAux generation procedure.
  G. L. Stoychev, A. A. Auer, F. Neese, J. Chem. Theory Comput. 13, 554 (2017)

----- AuxJK basis set information -----
Your calculation utilizes the AutoAux generation procedure.
  G. L. Stoychev, A. A. Auer, F. Neese, J. Chem. Theory Comput. 13, 554 (2017)

================================================================================
                                        WARNINGS
                       Please study these warnings very carefully!
================================================================================


WARNING: Geometry Optimization
  ===> : Switching off AutoStart
         For restart on a previous wavefunction, please use MOREAD

INFO   : the flag for use of the SHARK integral package has been found!

================================================================================
                                       INPUT FILE
================================================================================
NAME = Nfer_water.inp
|  1> ! OPT FREQ B3LYP 6-31G(d) D4 AUTOAUX CPCM(water)
|  2> 
|  3> %PAL NPROCS 4 END
|  4> 
|  5> %maxcore 3375
|  6> 
|  7> *xyzfile 0 1 /users/fjb15167/WWenergy/structures/Nfer.xyz
|  8> 
|  9>                          ****END OF INPUT****
================================================================================

                       *****************************
                       * Geometry Optimization Run *
                       *****************************

Geometry optimization settings:
Update method            Update   .... BFGS
Choice of coordinates    CoordSys .... Z-matrix Internals
Initial Hessian          InHess   .... Almoef's Model

Convergence Tolerances:
Energy Change            TolE     ....  5.0000e-06 Eh
Max. Gradient            TolMAXG  ....  3.0000e-04 Eh/bohr
RMS Gradient             TolRMSG  ....  1.0000e-04 Eh/bohr
Max. Displacement        TolMAXD  ....  4.0000e-03 bohr
RMS Displacement         TolRMSD  ....  2.0000e-03 bohr
Strict Convergence                ....  False
------------------------------------------------------------------------------
                        ORCA OPTIMIZATION COORDINATE SETUP
------------------------------------------------------------------------------

The optimization will be done in new redundant internal coordinates
Making redundant internal coordinates   ...  (new redundants) done
Evaluating the initial hessian          ...  (Almloef) done
Evaluating the coordinates              ...  done
Calculating the B-matrix                .... done
Calculating the G-matrix                .... done
Diagonalizing the G-matrix              .... done
Small eigenvalue found = 4.500e-03
Small eigenvalue found = 6.722e-03
Small eigenvalue found = 1.024e-02
Small eigenvalue found = 1.712e-02
Small eigenvalue found = 2.442e-02
The first mode is                       ....   80
The number of degrees of freedom        ....  108

    -----------------------------------------------------------------
                    Redundant Internal Coordinates


    -----------------------------------------------------------------
         Definition                    Initial Value    Approx d2E/dq
    -----------------------------------------------------------------
      1. B(H   1,C   0)                  1.0918         0.357776   
      2. B(H   2,C   0)                  1.0903         0.359692   
      3. B(H   3,C   0)                  1.0935         0.355505   
      4. B(C   4,C   0)                  1.5141         0.396019   
      5. B(N   5,C   4)                  1.3849         0.570260   
      6. B(C   6,N   5)                  1.4805         0.401347   
      7. B(H   7,C   6)                  1.0925         0.356752   
      8. B(C   8,C   6)                  1.5119         0.399232   
      9. B(C   9,C   8)                  1.4029         0.595897   
     10. B(C  10,C   8)                  1.4009         0.600273   
     11. B(C  11,C   9)                  1.3940         0.615606   
     12. B(H  12,C   9)                  1.0900         0.360098   
     13. B(C  13,C  10)                  1.3989         0.604603   
     14. B(H  14,C  10)                  1.0873         0.363677   
     15. B(C  15,C  11)                  1.3988         0.604895   
     16. B(C  15,C  13)                  1.3949         0.613650   
     17. B(H  16,C  11)                  1.0875         0.363392   
     18. B(H  17,C  13)                  1.0878         0.362958   
     19. B(H  18,C  15)                  1.0871         0.363948   
     20. B(C  19,N   5)                  1.4608         0.431421   
     21. B(H  20,C  19)                  1.0963         0.351807   
     22. B(H  21,C  19)                  1.0971         0.350825   
     23. B(C  22,C  19)                  1.5317         0.371183   
     24. B(N  23,C  22)                  1.3634         0.616979   
     25. B(O  24,C  22)                  1.2383         0.977112   
     26. B(O  25,C   4)                  1.2373         0.980506   
     27. B(C  26,N  23)                  1.4533         0.443434   
     28. B(H  27,C  26)                  1.0967         0.351323   
     29. B(H  28,C  26)                  1.0944         0.354313   
     30. B(H  29,C  26)                  1.0856         0.365995   
     31. B(H  29,H  18)                  4.1752         0.000001   
     32. B(C  30,N  23)                  1.4553         0.440184   
     33. B(H  31,C  30)                  1.0957         0.352577   
     34. B(H  32,C  30)                  1.0959         0.352338   
     35. B(H  33,C  30)                  1.0879         0.362832   
     36. B(C  34,C   6)                  1.5262         0.378827   
     37. B(H  35,C  34)                  1.0935         0.355533   
     38. B(H  36,C  34)                  1.0942         0.354527   
     39. B(H  37,C  34)                  1.0930         0.356201   
     40. A(H   2,C   0,H   3)          108.5797         0.290202   
     41. A(H   1,C   0,C   4)          113.1129         0.327098   
     42. A(H   3,C   0,C   4)          110.6494         0.326755   
     43. A(H   1,C   0,H   3)          107.6971         0.289959   
     44. A(H   1,C   0,H   2)          110.1521         0.290492   
     45. A(H   2,C   0,C   4)          106.5830         0.327386   
     46. A(C   0,C   4,N   5)          118.1358         0.392411   
     47. A(C   0,C   4,O  25)          120.5482         0.432009   
     48. A(N   5,C   4,O  25)          121.3091         0.458453   
     49. A(C   4,N   5,C  19)          124.4232         0.395803   
     50. A(C   6,N   5,C  19)          116.4663         0.372355   
     51. A(C   4,N   5,C   6)          116.7084         0.390826   
     52. A(C   8,C   6,C  34)          115.1507         0.368389   
     53. A(N   5,C   6,C  34)          111.5421         0.366421   
     54. A(H   7,C   6,C   8)          107.4256         0.327379   
     55. A(N   5,C   6,C   8)          110.2227         0.369735   
     56. A(H   7,C   6,C  34)          107.8892         0.324565   
     57. A(N   5,C   6,H   7)          103.8775         0.325700   
     58. A(C   9,C   8,C  10)          118.8605         0.428489   
     59. A(C   6,C   8,C  10)          123.2058         0.399067   
     60. A(C   6,C   8,C   9)          117.8596         0.398554   
     61. A(C   8,C   9,C  11)          120.7901         0.430433   
     62. A(C  11,C   9,H  12)          120.4669         0.352484   
     63. A(C   8,C   9,H  12)          118.7374         0.350551   
     64. A(C  13,C  10,H  14)          119.1322         0.351999   
     65. A(C   8,C  10,H  14)          120.4345         0.351571   
     66. A(C   8,C  10,C  13)          120.4200         0.429606   
     67. A(C  15,C  11,H  16)          120.0827         0.351981   
     68. A(C   9,C  11,H  16)          119.9496         0.353028   
     69. A(C   9,C  11,C  15)          119.9670         0.431593   
     70. A(C  15,C  13,H  17)          120.0235         0.352766   
     71. A(C  10,C  13,H  17)          119.7310         0.351881   
     72. A(C  10,C  13,C  15)          120.2452         0.431309   
     73. A(C  13,C  15,H  18)          120.1479         0.352929   
     74. A(C  11,C  15,H  18)          120.1371         0.352072   
     75. A(C  11,C  15,C  13)          119.7104         0.431346   
     76. A(H  21,C  19,C  22)          107.7751         0.322593   
     77. A(H  20,C  19,C  22)          104.3834         0.322741   
     78. A(N   5,C  19,C  22)          117.7685         0.369698   
     79. A(H  20,C  19,H  21)          107.5570         0.288596   
     80. A(N   5,C  19,H  21)          106.6117         0.328693   
     81. A(N   5,C  19,H  20)          112.3104         0.328844   
     82. A(N  23,C  22,O  24)          122.8996         0.464802   
     83. A(C  19,C  22,O  24)          118.4286         0.426752   
     84. A(C  19,C  22,N  23)          118.6457         0.393372   
     85. A(C  26,N  23,C  30)          115.9717         0.380145   
     86. A(C  22,N  23,C  30)          118.6365         0.402744   
     87. A(C  22,N  23,C  26)          125.3642         0.403267   
     88. A(H  28,C  26,H  29)          108.3099         0.290841   
     89. A(H  27,C  26,H  29)          108.6093         0.290454   
     90. A(N  23,C  26,H  29)          111.2790         0.332509   
     91. A(H  27,C  26,H  28)          108.6294         0.288981   
     92. A(N  23,C  26,H  28)          108.2560         0.330728   
     93. A(N  23,C  26,H  27)          111.6672         0.330265   
     94. A(H  32,C  30,H  33)          110.0954         0.290190   
     95. A(H  31,C  30,H  33)          109.5356         0.290221   
     96. A(N  23,C  30,H  33)          108.4675         0.331627   
     97. A(H  31,C  30,H  32)          108.6407         0.288889   
     98. A(N  23,C  30,H  32)          109.8305         0.330021   
     99. A(N  23,C  30,H  31)          110.2654         0.330058   
    100. A(H  35,C  34,H  36)          108.4282         0.289548   
    101. A(C   6,C  34,H  36)          109.6189         0.324232   
    102. A(C   6,C  34,H  35)          109.5597         0.324383   
    103. A(H  36,C  34,H  37)          107.9807         0.289633   
    104. A(H  35,C  34,H  37)          108.1064         0.289762   
    105. A(C   6,C  34,H  37)          113.0308         0.324483   
    106. D(O  25,C   4,C   0,H   3)   -102.2214         0.011650   
    107. D(N   5,C   4,C   0,H   2)   -165.2957         0.011650   
    108. D(N   5,C   4,C   0,H   1)    -44.1020         0.011650   
    109. D(O  25,C   4,C   0,H   2)     15.6509         0.011650   
    110. D(N   5,C   4,C   0,H   3)     76.8321         0.011650   
    111. D(O  25,C   4,C   0,H   1)    136.8446         0.011650   
    112. D(C   6,N   5,C   4,C   0)    166.1240         0.026027   
    113. D(C  19,N   5,C   4,O  25)   -176.5643         0.026027   
    114. D(C   6,N   5,C   4,O  25)    -14.8301         0.026027   
    115. D(C  19,N   5,C   4,C   0)      4.3899         0.026027   
    116. D(C   8,C   6,N   5,C   4)    120.5375         0.013751   
    117. D(C   8,C   6,N   5,C  19)    -76.2491         0.013751   
    118. D(C  34,C   6,N   5,C   4)   -110.2384         0.013751   
    119. D(C  34,C   6,N   5,C  19)     52.9749         0.013751   
    120. D(H   7,C   6,N   5,C  19)    168.9323         0.013751   
    121. D(H   7,C   6,N   5,C   4)      5.7190         0.013751   
    122. D(C  10,C   8,C   6,C  34)    -30.1389         0.011831   
    123. D(C  10,C   8,C   6,H   7)   -150.3402         0.011831   
    124. D(C   9,C   8,C   6,C  34)    153.0334         0.011831   
    125. D(C  10,C   8,C   6,N   5)     97.1079         0.011831   
    126. D(C   9,C   8,C   6,H   7)     32.8321         0.011831   
    127. D(C   9,C   8,C   6,N   5)    -79.7198         0.011831   
    128. D(H  12,C   9,C   8,C   6)     -2.8225         0.024461   
    129. D(C  11,C   9,C   8,C  10)     -0.6411         0.024461   
    130. D(H  12,C   9,C   8,C  10)   -179.7919         0.024461   
    131. D(C  11,C   9,C   8,C   6)    176.3282         0.024461   
    132. D(H  14,C  10,C   8,C   9)   -177.9468         0.024841   
    133. D(C  13,C  10,C   8,C   9)      0.7159         0.024841   
    134. D(C  13,C  10,C   8,C   6)   -176.0817         0.024841   
    135. D(H  14,C  10,C   8,C   6)      5.2556         0.024841   
    136. D(C  15,C  11,C   9,C   8)     -0.0575         0.026201   
    137. D(H  16,C  11,C   9,H  12)     -1.2171         0.026201   
    138. D(H  16,C  11,C   9,C   8)    179.6468         0.026201   
    139. D(C  15,C  11,C   9,H  12)    179.0786         0.026201   
    140. D(H  17,C  13,C  10,H  14)     -1.2242         0.025221   
    141. D(C  15,C  13,C  10,H  14)    178.5852         0.025221   
    142. D(C  15,C  13,C  10,C   8)     -0.0948         0.025221   
    143. D(H  17,C  13,C  10,C   8)   -179.9042         0.025221   
    144. D(H  18,C  15,C  13,H  17)     -0.0159         0.026025   
    145. D(H  18,C  15,C  13,C  10)   -179.8247         0.026025   
    146. D(C  11,C  15,C  13,H  17)    179.1964         0.026025   
    147. D(C  11,C  15,C  13,C  10)     -0.6124         0.026025   
    148. D(H  18,C  15,C  11,H  16)      0.1960         0.025247   
    149. D(C  13,C  15,C  11,H  16)   -179.0164         0.025247   
    150. D(C  13,C  15,C  11,C   9)      0.6875         0.025247   
    151. D(H  18,C  15,C  11,C   9)    179.8999         0.025247   
    152. D(C  22,C  19,N   5,C   6)    151.9473         0.015868   
    153. D(C  22,C  19,N   5,C   4)    -46.2786         0.015868   
    154. D(H  21,C  19,N   5,C   6)     30.8076         0.015868   
    155. D(H  21,C  19,N   5,C   4)   -167.4183         0.015868   
    156. D(H  20,C  19,N   5,C   6)    -86.7529         0.015868   
    157. D(H  20,C  19,N   5,C   4)     75.0212         0.015868   
    158. D(O  24,C  22,C  19,H  21)   -113.7889         0.010313   
    159. D(O  24,C  22,C  19,H  20)      0.3683         0.010313   
    160. D(O  24,C  22,C  19,N   5)    125.6744         0.010313   
    161. D(N  23,C  22,C  19,H  21)     64.4103         0.010313   
    162. D(N  23,C  22,C  19,H  20)    178.5674         0.010313   
    163. D(N  23,C  22,C  19,N   5)    -56.1264         0.010313   
    164. D(C  30,N  23,C  22,O  24)     -6.4115         0.030801   
    165. D(C  30,N  23,C  22,C  19)    175.4748         0.030801   
    166. D(C  26,N  23,C  22,O  24)    175.5803         0.030801   
    167. D(C  26,N  23,C  22,C  19)     -2.5335         0.030801   
    168. D(H  27,C  26,N  23,C  22)     99.0732         0.016769   
    169. D(H  29,C  26,N  23,C  30)    159.4688         0.016769   
    170. D(H  29,C  26,N  23,C  22)    -22.4757         0.016769   
    171. D(H  28,C  26,N  23,C  30)     40.5558         0.016769   
    172. D(H  28,C  26,N  23,C  22)   -141.3887         0.016769   
    173. D(H  27,C  26,N  23,C  30)    -78.9824         0.016769   
    174. D(H  33,C  30,N  23,C  26)    175.4964         0.016522   
    175. D(H  33,C  30,N  23,C  22)     -2.6969         0.016522   
    176. D(H  32,C  30,N  23,C  26)     55.1313         0.016522   
    177. D(H  32,C  30,N  23,C  22)   -123.0621         0.016522   
    178. D(H  31,C  30,N  23,C  26)    -64.5619         0.016522   
    179. D(H  31,C  30,N  23,C  22)    117.2448         0.016522   
    180. D(H  37,C  34,C   6,C   8)     64.2172         0.011441   
    181. D(H  37,C  34,C   6,H   7)   -175.8364         0.011441   
    182. D(H  37,C  34,C   6,N   5)    -62.3595         0.011441   
    183. D(H  36,C  34,C   6,C   8)    -56.2895         0.011441   
    184. D(H  36,C  34,C   6,H   7)     63.6569         0.011441   
    185. D(H  36,C  34,C   6,N   5)    177.1339         0.011441   
    186. D(H  35,C  34,C   6,C   8)   -175.1578         0.011441   
    187. D(H  35,C  34,C   6,H   7)    -55.2113         0.011441   
    188. D(H  35,C  34,C   6,N   5)     58.2656         0.011441   
    -----------------------------------------------------------------

Number of atoms                         .... 38
Number of degrees of freedom            .... 188

         *************************************************************
         *                GEOMETRY OPTIMIZATION CYCLE   1            *
         *************************************************************
---------------------------------
CARTESIAN COORDINATES (ANGSTROEM)
---------------------------------
  C     -2.747000   -1.384000   -0.969000
  H     -3.218000   -1.472000    0.012000
  H     -3.188000   -2.100000   -1.663000
  H     -2.940000   -0.374000   -1.341000
  C     -1.260000   -1.668000   -0.942000
  N     -0.508000   -1.115000    0.081000
  C      0.858000   -1.654000    0.269000
  H      0.986000   -2.342000   -0.570000
  C      1.881000   -0.552000    0.111000
  C      2.233000   -0.166000   -1.191000
  C      2.439000    0.138000    1.195000
  C      3.112000    0.894000   -1.408000
  H      1.795000   -0.702000   -2.033000
  C      3.320000    1.203000    0.979000
  H      2.210000   -0.161000    2.215000
  C      3.653000    1.587000   -0.320000
  H      3.380000    1.178000   -2.423000
  H      3.748000    1.730000    1.829000
  H      4.340000    2.413000   -0.486000
  C     -1.064000   -0.348000    1.193000
  H     -1.563000   -0.987000    1.931000
  H     -0.217000    0.137000    1.694000
  C     -2.097000    0.735000    0.867000
  N     -1.758000    1.717000   -0.016000
  O     -3.192000    0.698000    1.444000
  O     -0.736000   -2.361000   -1.823000
  C     -0.460000    1.864000   -0.653000
  H     -0.460000    1.456000   -1.671000
  H     -0.222000    2.931000   -0.704000
  H      0.318000    1.368000   -0.081000
  C     -2.771000    2.688000   -0.402000
  H     -2.472000    3.694000   -0.087000
  H     -2.894000    2.684000   -1.491000
  H     -3.708000    2.419000    0.081000
  C      0.969000   -2.462000    1.559000
  H      0.247000   -3.283000    1.540000
  H      1.974000   -2.887000    1.641000
  H      0.781000   -1.865000    2.455000

----------------------------
CARTESIAN COORDINATES (A.U.)
----------------------------
  NO LB      ZA    FRAG     MASS         X           Y           Z
   0 C     6.0000    0    12.011   -5.191078   -2.615381   -1.831145
   1 H     1.0000    0     1.008   -6.081139   -2.781677    0.022677
   2 H     1.0000    0     1.008   -6.024447   -3.968425   -3.142615
   3 H     1.0000    0     1.008   -5.555795   -0.706758   -2.534123
   4 C     6.0000    0    12.011   -2.381055   -3.152063   -1.780122
   5 N     7.0000    0    14.007   -0.959981   -2.107045    0.153068
   6 C     6.0000    0    12.011    1.621385   -3.125607    0.508336
   7 H     1.0000    0     1.008    1.863270   -4.425739   -1.077144
   8 C     6.0000    0    12.011    3.554575   -1.043129    0.209760
   9 C     6.0000    0    12.011    4.219758   -0.313695   -2.250664
  10 C     6.0000    0    12.011    4.609042    0.260782    2.258223
  11 C     6.0000    0    12.011    5.880828    1.689415   -2.660734
  12 H     1.0000    0     1.008    3.392058   -1.326588   -3.841813
  13 C     6.0000    0    12.011    6.273891    2.273341    1.850042
  14 H     1.0000    0     1.008    4.176295   -0.304246    4.185743
  15 C     6.0000    0    12.011    6.903170    2.998995   -0.604712
  16 H     1.0000    0     1.008    6.387274    2.226097   -4.578806
  17 H     1.0000    0     1.008    7.082694    3.269226    3.456309
  18 H     1.0000    0     1.008    8.201411    4.559909   -0.918407
  19 C     6.0000    0    12.011   -2.010669   -0.657625    2.254443
  20 H     1.0000    0     1.008   -2.953642   -1.865160    3.649061
  21 H     1.0000    0     1.008   -0.410071    0.258892    3.201196
  22 C     6.0000    0    12.011   -3.962756    1.388949    1.638393
  23 N     7.0000    0    14.007   -3.322139    3.244660   -0.030236
  24 O     8.0000    0    15.999   -6.032006    1.319029    2.728765
  25 O     8.0000    0    15.999   -1.390838   -4.461643   -3.444971
  26 C     6.0000    0    12.011   -0.869274    3.522450   -1.233991
  27 H     1.0000    0     1.008   -0.869274    2.751441   -3.157732
  28 H     1.0000    0     1.008   -0.419519    5.538787   -1.330367
  29 H     1.0000    0     1.008    0.600933    2.585145   -0.153068
  30 C     6.0000    0    12.011   -5.236431    5.079584   -0.759670
  31 H     1.0000    0     1.008   -4.671403    6.980648   -0.164406
  32 H     1.0000    0     1.008   -5.468867    5.072025   -2.817582
  33 H     1.0000    0     1.008   -7.007105    4.571248    0.153068
  34 C     6.0000    0    12.011    1.831145   -4.652506    2.946083
  35 H     1.0000    0     1.008    0.466762   -6.203971    2.910178
  36 H     1.0000    0     1.008    3.730319   -5.455639    3.101041
  37 H     1.0000    0     1.008    1.475876   -3.524339    4.639278

--------------------------------
INTERNAL COORDINATES (ANGSTROEM)
--------------------------------
 C      0   0   0     0.000000000000     0.00000000     0.00000000
 H      1   0   0     1.091762794750     0.00000000     0.00000000
 H      1   2   0     1.090308671891   110.15212373     0.00000000
 H      1   2   3     1.093495770454   107.69711736   118.25257576
 C      1   2   3     1.514118225239   113.11288824   240.84491349
 N      5   1   2     1.384861725950   118.13576418   315.89804126
 C      6   5   1     1.480479989733   116.70838979   166.12399638
 H      7   6   5     1.092542447688   103.87745708     5.71898555
 C      7   6   5     1.511918317899   110.22271226   120.53754794
 C      9   7   6     1.402891300137   117.85960487   280.28021078
 C      9   7   6     1.400899710900   123.20575272    97.10785859
 C     10   9   7     1.394033715518   120.79014853   176.32824677
 H     10   9   7     1.090001834861   118.73743839   357.17749006
 C     11   9   7     1.398943172541   120.41998759   183.91833299
 H     11   9   7     1.087309523549   120.43452432     5.25560620
 C     14  11   9     1.394899996416   120.24522800   359.90521867
 H     12  10   9     1.087522413562   119.94963283   179.64684782
 H     14  11   9     1.087847875394   119.73101622   180.09581227
 H     16  14  11     1.087106710494   120.14785723   180.17525088
 C      6   5   1     1.460811076081   124.42316187     4.38986855
 H     20   6   5     1.096342099894   112.31042071    75.02121748
 H     20   6   5     1.097103003368   106.61169996   192.58166237
 C     20   6   5     1.531748673902   117.76852139   313.72135481
 N     23  20   6     1.363427299125   118.64574214   303.87358463
 O     23  20   6     1.238274202267   118.42863492   125.67443173
 O      5   1   2     1.237330190370   120.54821483   136.84461766
 C     24  23  20     1.453334785932   125.36424755   357.46650169
 H     27  24  23     1.096716918808   111.66718828    99.07317216
 H     27  24  23     1.094410343518   108.25603077   218.61130586
 H     27  24  23     1.085580029293   111.27904902   337.52433885
 C     24  23  20     1.455337074358   118.63652724   175.47476014
 H     31  24  23     1.095747233626   110.26541531   117.24475892
 H     31  24  23     1.095931567207   109.83050941   236.93789561
 H     31  24  23     1.087942553630   108.46749918   357.30306882
 C      7   6   5     1.526199528240   111.54212986   249.76158135
 H     35   7   6     1.093474279533   109.55970959    58.26560645
 H     35   7   6     1.094245859028   109.61887648   177.13386492
 H     35   7   6     1.092963402864   113.03079295   297.64053440

---------------------------
INTERNAL COORDINATES (A.U.)
---------------------------
 C      0   0   0     0.000000000000     0.00000000     0.00000000
 H      1   0   0     2.063132685282     0.00000000     0.00000000
 H      1   2   0     2.060384791313   110.15212373     0.00000000
 H      1   2   3     2.066407534759   107.69711736   118.25257576
 C      1   2   3     2.861268780080   113.11288824   240.84491349
 N      5   1   2     2.617009395394   118.13576418   315.89804126
 C      6   5   1     2.797701727346   116.70838979   166.12399638
 H      7   6   5     2.064606015814   103.87745708     5.71898555
 C      7   6   5     2.857111557689   110.22271226   120.53754794
 C      9   7   6     2.651080352920   117.85960487   280.28021078
 C      9   7   6     2.647316794691   123.20575272    97.10785859
 C     10   9   7     2.634341943781   120.79014853   176.32824677
 H     10   9   7     2.059804953359   118.73743839   357.17749006
 C     11   9   7     2.643619473022   120.41998759   183.91833299
 H     11   9   7     2.054717222312   120.43452432     5.25560620
 C     14  11   9     2.635978977433   120.24522800   359.90521867
 H     12  10   9     2.055119526133   119.94963283   179.64684782
 H     14  11   9     2.055734559863   119.73101622   180.09581227
 H     16  14  11     2.054333961181   120.14785723   180.17525088
 C      6   5   1     2.760532867191   124.42316187     4.38986855
 H     20   6   5     2.071786317888   112.31042071    75.02121748
 H     20   6   5     2.073224217069   106.61169996   192.58166237
 C     20   6   5     2.894585499671   117.76852139   313.72135481
 N     23  20   6     2.576504198859   118.64574214   303.87358463
 O     23  20   6     2.339999120984   118.42863492   125.67443173
 O      5   1   2     2.338215197031   120.54821483   136.84461766
 C     24  23  20     2.746404726313   125.36424755   357.46650169
 H     27  24  23     2.072494622985   111.66718828    99.07317216
 H     27  24  23     2.068135827380   108.25603077   218.61130586
 H     27  24  23     2.051448951818   111.27904902   337.52433885
 C     24  23  20     2.750188503078   118.63652724   175.47476014
 H     31  24  23     2.070662183556   110.26541531   117.24475892
 H     31  24  23     2.071010523540   109.83050941   236.93789561
 H     31  24  23     2.055913475801   108.46749918   357.30306882
 C      7   6   5     2.884099134093   111.54212986   249.76158135
 H     35   7   6     2.066366922804   109.55970959    58.26560645
 H     35   7   6     2.067824996740   109.61887648   177.13386492
 H     35   7   6     2.065401505812   113.03079295   297.64053440

---------------------
BASIS SET INFORMATION
---------------------
There are 4 groups of distinct atoms

 Group   1 Type C   : 10s4p1d contracted to 3s2p1d pattern {631/31/1}
 Group   2 Type H   : 4s contracted to 2s pattern {31}
 Group   3 Type N   : 10s4p1d contracted to 3s2p1d pattern {631/31/1}
 Group   4 Type O   : 10s4p1d contracted to 3s2p1d pattern {631/31/1}

Atom   0C    basis set group =>   1
Atom   1H    basis set group =>   2
Atom   2H    basis set group =>   2
Atom   3H    basis set group =>   2
Atom   4C    basis set group =>   1
Atom   5N    basis set group =>   3
Atom   6C    basis set group =>   1
Atom   7H    basis set group =>   2
Atom   8C    basis set group =>   1
Atom   9C    basis set group =>   1
Atom  10C    basis set group =>   1
Atom  11C    basis set group =>   1
Atom  12H    basis set group =>   2
Atom  13C    basis set group =>   1
Atom  14H    basis set group =>   2
Atom  15C    basis set group =>   1
Atom  16H    basis set group =>   2
Atom  17H    basis set group =>   2
Atom  18H    basis set group =>   2
Atom  19C    basis set group =>   1
Atom  20H    basis set group =>   2
Atom  21H    basis set group =>   2
Atom  22C    basis set group =>   1
Atom  23N    basis set group =>   3
Atom  24O    basis set group =>   4
Atom  25O    basis set group =>   4
Atom  26C    basis set group =>   1
Atom  27H    basis set group =>   2
Atom  28H    basis set group =>   2
Atom  29H    basis set group =>   2
Atom  30C    basis set group =>   1
Atom  31H    basis set group =>   2
Atom  32H    basis set group =>   2
Atom  33H    basis set group =>   2
Atom  34C    basis set group =>   1
Atom  35H    basis set group =>   2
Atom  36H    basis set group =>   2
Atom  37H    basis set group =>   2
---------------------------------
AUXILIARY/J BASIS SET INFORMATION
---------------------------------
There are 4 groups of distinct atoms

 Group   1 Type C   : 13s11p10d2f contracted to 13s11p10d2f pattern {1111111111111/11111111111/1111111111/11}
 Group   2 Type H   : 9s2p contracted to 9s2p pattern {111111111/11}
 Group   3 Type N   : 14s11p10d2f contracted to 14s11p10d2f pattern {11111111111111/11111111111/1111111111/11}
 Group   4 Type O   : 14s11p10d2f contracted to 14s11p10d2f pattern {11111111111111/11111111111/1111111111/11}

Atom   0C    basis set group =>   1
Atom   1H    basis set group =>   2
Atom   2H    basis set group =>   2
Atom   3H    basis set group =>   2
Atom   4C    basis set group =>   1
Atom   5N    basis set group =>   3
Atom   6C    basis set group =>   1
Atom   7H    basis set group =>   2
Atom   8C    basis set group =>   1
Atom   9C    basis set group =>   1
Atom  10C    basis set group =>   1
Atom  11C    basis set group =>   1
Atom  12H    basis set group =>   2
Atom  13C    basis set group =>   1
Atom  14H    basis set group =>   2
Atom  15C    basis set group =>   1
Atom  16H    basis set group =>   2
Atom  17H    basis set group =>   2
Atom  18H    basis set group =>   2
Atom  19C    basis set group =>   1
Atom  20H    basis set group =>   2
Atom  21H    basis set group =>   2
Atom  22C    basis set group =>   1
Atom  23N    basis set group =>   3
Atom  24O    basis set group =>   4
Atom  25O    basis set group =>   4
Atom  26C    basis set group =>   1
Atom  27H    basis set group =>   2
Atom  28H    basis set group =>   2
Atom  29H    basis set group =>   2
Atom  30C    basis set group =>   1
Atom  31H    basis set group =>   2
Atom  32H    basis set group =>   2
Atom  33H    basis set group =>   2
Atom  34C    basis set group =>   1
Atom  35H    basis set group =>   2
Atom  36H    basis set group =>   2
Atom  37H    basis set group =>   2
---------------------------------
AUXILIARY/C BASIS SET INFORMATION
---------------------------------
There are 4 groups of distinct atoms

 Group   1 Type C   : 13s11p10d2f contracted to 13s11p10d2f pattern {1111111111111/11111111111/1111111111/11}
 Group   2 Type H   : 9s2p contracted to 9s2p pattern {111111111/11}
 Group   3 Type N   : 14s11p10d2f contracted to 14s11p10d2f pattern {11111111111111/11111111111/1111111111/11}
 Group   4 Type O   : 14s11p10d2f contracted to 14s11p10d2f pattern {11111111111111/11111111111/1111111111/11}

Atom   0C    basis set group =>   1
Atom   1H    basis set group =>   2
Atom   2H    basis set group =>   2
Atom   3H    basis set group =>   2
Atom   4C    basis set group =>   1
Atom   5N    basis set group =>   3
Atom   6C    basis set group =>   1
Atom   7H    basis set group =>   2
Atom   8C    basis set group =>   1
Atom   9C    basis set group =>   1
Atom  10C    basis set group =>   1
Atom  11C    basis set group =>   1
Atom  12H    basis set group =>   2
Atom  13C    basis set group =>   1
Atom  14H    basis set group =>   2
Atom  15C    basis set group =>   1
Atom  16H    basis set group =>   2
Atom  17H    basis set group =>   2
Atom  18H    basis set group =>   2
Atom  19C    basis set group =>   1
Atom  20H    basis set group =>   2
Atom  21H    basis set group =>   2
Atom  22C    basis set group =>   1
Atom  23N    basis set group =>   3
Atom  24O    basis set group =>   4
Atom  25O    basis set group =>   4
Atom  26C    basis set group =>   1
Atom  27H    basis set group =>   2
Atom  28H    basis set group =>   2
Atom  29H    basis set group =>   2
Atom  30C    basis set group =>   1
Atom  31H    basis set group =>   2
Atom  32H    basis set group =>   2
Atom  33H    basis set group =>   2
Atom  34C    basis set group =>   1
Atom  35H    basis set group =>   2
Atom  36H    basis set group =>   2
Atom  37H    basis set group =>   2
----------------------------------
AUXILIARY/JK BASIS SET INFORMATION
----------------------------------
There are 4 groups of distinct atoms

 Group   1 Type C   : 13s11p10d2f contracted to 13s11p10d2f pattern {1111111111111/11111111111/1111111111/11}
 Group   2 Type H   : 9s2p contracted to 9s2p pattern {111111111/11}
 Group   3 Type N   : 14s11p10d2f contracted to 14s11p10d2f pattern {11111111111111/11111111111/1111111111/11}
 Group   4 Type O   : 14s11p10d2f contracted to 14s11p10d2f pattern {11111111111111/11111111111/1111111111/11}

Atom   0C    basis set group =>   1
Atom   1H    basis set group =>   2
Atom   2H    basis set group =>   2
Atom   3H    basis set group =>   2
Atom   4C    basis set group =>   1
Atom   5N    basis set group =>   3
Atom   6C    basis set group =>   1
Atom   7H    basis set group =>   2
Atom   8C    basis set group =>   1
Atom   9C    basis set group =>   1
Atom  10C    basis set group =>   1
Atom  11C    basis set group =>   1
Atom  12H    basis set group =>   2
Atom  13C    basis set group =>   1
Atom  14H    basis set group =>   2
Atom  15C    basis set group =>   1
Atom  16H    basis set group =>   2
Atom  17H    basis set group =>   2
Atom  18H    basis set group =>   2
Atom  19C    basis set group =>   1
Atom  20H    basis set group =>   2
Atom  21H    basis set group =>   2
Atom  22C    basis set group =>   1
Atom  23N    basis set group =>   3
Atom  24O    basis set group =>   4
Atom  25O    basis set group =>   4
Atom  26C    basis set group =>   1
Atom  27H    basis set group =>   2
Atom  28H    basis set group =>   2
Atom  29H    basis set group =>   2
Atom  30C    basis set group =>   1
Atom  31H    basis set group =>   2
Atom  32H    basis set group =>   2
Atom  33H    basis set group =>   2
Atom  34C    basis set group =>   1
Atom  35H    basis set group =>   2
Atom  36H    basis set group =>   2
Atom  37H    basis set group =>   2


           ************************************************************
           *        Program running with 4 parallel MPI-processes     *
           *              working on a common directory               *
           ************************************************************
------------------------------------------------------------------------------
                           ORCA GTO INTEGRAL CALCULATION
                           -- RI-GTO INTEGRALS CHOSEN --
------------------------------------------------------------------------------
------------------------------------------------------------------------------
                   ___                                                        
                  /   \      - P O W E R E D   B Y -                         
                 /     \                                                     
                 |  |  |   _    _      __       _____    __    __             
                 |  |  |  | |  | |    /  \     |  _  \  |  |  /  |          
                  \  \/   | |  | |   /    \    | | | |  |  | /  /          
                 / \  \   | |__| |  /  /\  \   | |_| |  |  |/  /          
                |  |  |   |  __  | /  /__\  \  |    /   |      \           
                |  |  |   | |  | | |   __   |  |    \   |  |\   \          
                \     /   | |  | | |  |  |  |  | |\  \  |  | \   \       
                 \___/    |_|  |_| |__|  |__|  |_| \__\ |__|  \__/        
                                                                              
                      - O R C A' S   B I G   F R I E N D -                    
                                      &                                       
                       - I N T E G R A L  F E E D E R -                       
                                                                              
 v1 FN, 2020, v2 2021                                                         
------------------------------------------------------------------------------


Reading SHARK input file Nfer_water.SHARKINP.tmp ... ok
----------------------
SHARK INTEGRAL PACKAGE
----------------------

Number of atoms                             ...     38
Number of basis functions                   ...    292
Number of shells                            ...    148
Maximum angular momentum                    ...      2
Integral batch strategy                     ... SHARK/LIBINT Hybrid
RI-J (if used) integral strategy            ... SPLIT-RIJ (Revised 2003 algorithm where possible)
Printlevel                                  ...      1
Contraction scheme used                     ... SEGMENTED contraction
Coulomb Range Separation                    ... NOT USED
Exchange Range Separation                   ... NOT USED
Finite Nucleus Model                        ... NOT USED
Auxiliary Coulomb fitting basis             ... AVAILABLE
   # of basis functions in Aux-J            ...   2284
   # of shells in Aux-J                     ...    872
   Maximum angular momentum in Aux-J        ...      3
Auxiliary J/K fitting basis                 ... AVAILABLE
   # of basis functions in Aux-JK           ...   2284
   # of shells in Aux-JK                    ...    872
   Maximum angular momentum in Aux-JK       ...      3
Auxiliary Correlation fitting basis         ... AVAILABLE
   # of basis functions in Aux-C            ...   2284
   # of shells in Aux-C                     ...    872
   Maximum angular momentum in Aux-C        ...      3
Auxiliary 'external' fitting basis          ... NOT available
Integral threshold                          ...     2.500000e-11
Primitive cut-off                           ...     2.500000e-12
Primitive pair pre-selection threshold      ...     2.500000e-12

Calculating pre-screening integrals         ... done (  0.1 sec) Dimension = 148
Organizing shell pair data                  ... done (  0.1 sec)
Shell pair information
Total number of shell pairs                 ...     11026
Shell pairs after pre-screening             ...      9267
Total number of primitive shell pairs       ...     61863
Primitive shell pairs kept                  ...     29594
          la=0 lb=0:   3612 shell pairs
          la=1 lb=0:   3020 shell pairs
          la=1 lb=1:    630 shell pairs
          la=2 lb=0:   1303 shell pairs
          la=2 lb=1:    575 shell pairs
          la=2 lb=2:    127 shell pairs

Calculating one electron integrals          ... done (  0.0 sec)
Calculating RI/J V-Matrix + Cholesky decomp.... done (  0.4 sec)
Calculating RI/JK V-Matrix + Cholesky decomp... done (  0.3 sec)
Calculating RI/C V-Matrix + Cholesky decomp.... done (  0.3 sec)
Calculating Nuclear repulsion               ... done (  0.0 sec) ENN=   1404.007709709377 Eh

SHARK setup successfully completed in   1.6 seconds

Maximum memory used throughout the entire GTOINT-calculation: 44.9 MB


           ************************************************************
           *        Program running with 4 parallel MPI-processes     *
           *              working on a common directory               *
           ************************************************************
-------------------------------------------------------------------------------
                                 ORCA SCF
-------------------------------------------------------------------------------

------------
SCF SETTINGS
------------
Hamiltonian:
 Density Functional     Method          .... DFT(GTOs)
 Exchange Functional    Exchange        .... B88
   X-Alpha parameter    XAlpha          ....  0.666667
   Becke's b parameter  XBeta           ....  0.004200
 Correlation Functional Correlation     .... LYP
 LDA part of GGA corr.  LDAOpt          .... VWN-5
 Gradients option       PostSCFGGA      .... off
 Hybrid DFT is turned on
   Fraction HF Exchange ScalHFX         ....  0.200000
   Scaling of DF-GGA-X  ScalDFX         ....  0.720000
   Scaling of DF-GGA-C  ScalDFC         ....  0.810000
   Scaling of DF-LDA-C  ScalLDAC        ....  1.000000
   Perturbative correction              ....  0.000000
   Density functional embedding theory  .... OFF
   NL short-range parameter             ....  4.800000
 RI-approximation to the Coulomb term is turned on
   Number of AuxJ basis functions       .... 2284
   RIJ-COSX (HFX calculated with COS-X)).... on


General Settings:
 Integral files         IntName         .... Nfer_water
 Hartree-Fock type      HFTyp           .... RHF
 Total Charge           Charge          ....    0
 Multiplicity           Mult            ....    1
 Number of Electrons    NEL             ....  134
 Basis Dimension        Dim             ....  292
 Nuclear Repulsion      ENuc            ....   1404.0077097094 Eh

Convergence Acceleration:
 DIIS                   CNVDIIS         .... on
   Start iteration      DIISMaxIt       ....    12
   Startup error        DIISStart       ....  0.200000
   # of expansion vecs  DIISMaxEq       ....     5
   Bias factor          DIISBfac        ....   1.050
   Max. coefficient     DIISMaxC        ....  10.000
 Trust-Rad. Augm. Hess. CNVTRAH         .... auto
   Auto Start mean grad. ratio tolernc. ....  1.125000
   Auto Start start iteration           ....    20
   Auto Start num. interpolation iter.  ....    10
   Max. Number of Micro iterations      ....    16
   Max. Number of Macro iterations      .... Maxiter - #DIIS iter
   Number of Davidson start vectors     ....     2
   Converg. threshold I  (grad. norm)   ....   1.000e-05
   Converg. threshold II (energy diff.) ....   1.000e-08
   Grad. Scal. Fac. for Micro threshold ....   0.100
   Minimum threshold for Micro iter.    ....   0.010
   NR start threshold (gradient norm)   ....   0.001
   Initial trust radius                 ....   0.400
   Minimum AH scaling param. (alpha)    ....   1.000
   Maximum AH scaling param. (alpha)    .... 1000.000
   Orbital update algorithm             .... Taylor
   White noise on init. David. guess    .... on
   Maximum white noise                  ....   0.010
   Quad. conv. algorithm                .... NR
 SOSCF                  CNVSOSCF        .... on
   Start iteration      SOSCFMaxIt      ....   150
   Startup grad/error   SOSCFStart      ....  0.003300
 Level Shifting         CNVShift        .... on
   Level shift para.    LevelShift      ....    0.2500
   Turn off err/grad.   ShiftErr        ....    0.0010
 Zerner damping         CNVZerner       .... off
 Static damping         CNVDamp         .... on
   Fraction old density DampFac         ....    0.7000
   Max. Damping (<1)    DampMax         ....    0.9800
   Min. Damping (>=0)   DampMin         ....    0.0000
   Turn off err/grad.   DampErr         ....    0.1000
 Fernandez-Rico         CNVRico         .... off

SCF Procedure:
 Maximum # iterations   MaxIter         ....   125
 SCF integral mode      SCFMode         .... Direct
   Integral package                     .... SHARK and LIBINT hybrid scheme
 Reset frequency        DirectResetFreq ....    20
 Integral Threshold     Thresh          ....  2.500e-11 Eh
 Primitive CutOff       TCut            ....  2.500e-12 Eh

Convergence Tolerance:
 Convergence Check Mode ConvCheckMode   .... Total+1el-Energy
 Convergence forced     ConvForced      .... 0
 Energy Change          TolE            ....  1.000e-08 Eh
 1-El. energy change                    ....  1.000e-05 Eh
 Orbital Gradient       TolG            ....  1.000e-05
 Orbital Rotation angle TolX            ....  1.000e-05
 DIIS Error             TolErr          ....  5.000e-07


Diagonalization of the overlap matrix:
Smallest eigenvalue                        ... 4.788e-04
Time for diagonalization                   ...    0.015 sec
Threshold for overlap eigenvalues          ... 1.000e-08
Number of eigenvalues below threshold      ... 0
Time for construction of square roots      ...    0.007 sec
Total time needed                          ...    0.023 sec

Time for model grid setup =    0.346 sec

------------------------------
INITIAL GUESS: MODEL POTENTIAL
------------------------------
Loading Hartree-Fock densities                     ... done
Calculating cut-offs                               ... done
Initializing the effective Hamiltonian             ... done
Setting up the integral package (SHARK)            ... done
Starting the Coulomb interaction                   ... done (   0.4 sec)
Reading the grid                                   ... done
Mapping shells                                     ... done
Starting the XC term evaluation                    ... done (   0.2 sec)
  promolecular density results
     # of electrons  =    133.987691645
     EX              =   -107.482778686
     EC              =     -4.513739913
     EX+EC           =   -111.996518599
Transforming the Hamiltonian                       ... done (   0.0 sec)
Diagonalizing the Hamiltonian                      ... done (   0.0 sec)
Back transforming the eigenvectors                 ... done (   0.0 sec)
Now organizing SCF variables                       ... done
                      ------------------
                      INITIAL GUESS DONE (   1.0 sec)
                      ------------------
-------------------
DFT GRID GENERATION
-------------------

General Integration Accuracy     IntAcc      ... 4.388
Radial Grid Type                 RadialGrid  ... OptM3 with GC (2021)
Angular Grid (max. ang.)         AngularGrid ... 4 (Lebedev-302)
Angular grid pruning method      GridPruning ... 4 (adaptive)
Weight generation scheme         WeightScheme... Becke
Basis function cutoff            BFCut       ... 1.0000e-11
Integration weight cutoff        WCut        ... 1.0000e-14
Angular grids for H and He will be reduced by one unit
Partially contracted basis set               ... off
Rotationally invariant grid construction     ... off

Total number of grid points                  ...   170594
Total number of batches                      ...     2684
Average number of points per batch           ...       63
Average number of grid points per atom       ...     4489
Time for grid setup =    1.515 sec

--------------------
COSX GRID GENERATION
--------------------

GRIDX 1
-------
General Integration Accuracy     IntAcc      ... 3.816
Radial Grid Type                 RadialGrid  ... OptM3 with GC (2021)
Angular Grid (max. ang.)         AngularGrid ... 1 (Lebedev-50)
Angular grid pruning method      GridPruning ... 4 (adaptive)
Weight generation scheme         WeightScheme... Becke
Basis function cutoff            BFCut       ... 1.0000e-11
Integration weight cutoff        WCut        ... 1.0000e-14
Angular grids for H and He will be reduced by one unit
Partially contracted basis set               ... on
Rotationally invariant grid construction     ... off

Total number of grid points                  ...    21713
Total number of batches                      ...      360
Average number of points per batch           ...       60
Average number of grid points per atom       ...      571
UseSFitting                                  ... on

GRIDX 2
-------
General Integration Accuracy     IntAcc      ... 4.020
Radial Grid Type                 RadialGrid  ... OptM3 with GC (2021)
Angular Grid (max. ang.)         AngularGrid ... 2 (Lebedev-110)
Angular grid pruning method      GridPruning ... 4 (adaptive)
Weight generation scheme         WeightScheme... Becke
Basis function cutoff            BFCut       ... 1.0000e-11
Integration weight cutoff        WCut        ... 1.0000e-14
Angular grids for H and He will be reduced by one unit
Partially contracted basis set               ... on
Rotationally invariant grid construction     ... off

Total number of grid points                  ...    46055
Total number of batches                      ...      740
Average number of points per batch           ...       62
Average number of grid points per atom       ...     1212
UseSFitting                                  ... on

GRIDX 3
-------
General Integration Accuracy     IntAcc      ... 4.338
Radial Grid Type                 RadialGrid  ... OptM3 with GC (2021)
Angular Grid (max. ang.)         AngularGrid ... 3 (Lebedev-194)
Angular grid pruning method      GridPruning ... 4 (adaptive)
Weight generation scheme         WeightScheme... Becke
Basis function cutoff            BFCut       ... 1.0000e-11
Integration weight cutoff        WCut        ... 1.0000e-14
Angular grids for H and He will be reduced by one unit
Partially contracted basis set               ... on
Rotationally invariant grid construction     ... off

Total number of grid points                  ...   100269
Total number of batches                      ...     1587
Average number of points per batch           ...       63
Average number of grid points per atom       ...     2639
UseSFitting                                  ... on

Time for X-Grid setup             =    1.638 sec


--------------------
CPCM SOLVATION MODEL
--------------------
CPCM parameters:
  Epsilon                                         ...      80.4000
  Refrac                                          ...       1.3300
  Rsolv                                           ...       1.3000
  Surface type                                    ... GAUSSIAN VDW
  Epsilon function type                           ...         CPCM
Radii:
 Radius for C  used is    3.8550 Bohr (=   2.0400 Ang.)
 Radius for H  used is    2.4944 Bohr (=   1.3200 Ang.)
 Radius for N  used is    3.5149 Bohr (=   1.8600 Ang.)
 Radius for O  used is    3.4469 Bohr (=   1.8240 Ang.)
Calculating surface                               ...        done! (  0.0s)
GEPOL surface points                              ...         1920
GEPOL Volume                                      ...    2103.1574
GEPOL Surface-area                                ...    1054.9054
Calculating surface distance matrix               ...        done! (  0.0s)
Performing Cholesky decomposition & store         ...        done! (  0.1s)
Overall time for CPCM initialization              ...                 0.2s
--------------
SCF ITERATIONS
--------------
ITER       Energy         Delta-E        Max-DP      RMS-DP      [F,P]     Damp
               ***  Starting incremental Fock matrix formation  ***
  0   -804.5161958623   0.000000000000 0.09153392  0.00184339  0.2730892 0.7000
  1   -804.7426310480  -0.226435185686 0.05109845  0.00124303  0.1081299 0.7000
                               ***Turning on DIIS***
  2   -804.8330448678  -0.090413819810 0.06476053  0.00199227  0.0391797 0.0000
  3   -804.9763520478  -0.143307180023 0.03509351  0.00084633  0.0552646 0.0000
  4   -805.0054243488  -0.029072300998 0.00889617  0.00028001  0.0113200 0.0000
  5   -805.0074438043  -0.002019455458 0.00366891  0.00008785  0.0060408 0.0000
                      *** Initiating the SOSCF procedure ***
                           *** Shutting down DIIS ***
                      *** Re-Reading the Fockian *** 
                      *** Removing any level shift *** 
ITER      Energy       Delta-E        Grad      Rot      Max-DP    RMS-DP
  6   -805.00758106  -0.0001372582  0.000228  0.000228  0.001498  0.000038
               *** Restarting incremental Fock matrix formation ***
  7   -805.00754180   0.0000392596  0.000277  0.001082  0.001858  0.000025
  8   -805.00753404   0.0000077605  0.000544  0.000761  0.001223  0.000016
  9   -805.00754570  -0.0000116548  0.000052  0.000147  0.000324  0.000006
 10   -805.00754525   0.0000004443  0.000107  0.000099  0.000220  0.000004
 11   -805.00754585  -0.0000005956  0.000004  0.000007  0.000033  0.000001
 12   -805.00754585  -0.0000000047  0.000004  0.000004  0.000018  0.000000
                  ***Gradient check signals convergence***
              ***Rediagonalizing the Fockian in SOSCF/NRSCF***

               *****************************************************
               *                     SUCCESS                       *
               *           SCF CONVERGED AFTER  13 CYCLES          *
               *****************************************************

Old exchange energy                            =    -21.902127659 Eh
New exchange energy                            =    -21.902160950 Eh
Exchange energy change after final integration =     -0.000033291 Eh
Total energy after final integration           =   -805.007579142 Eh
Final COS-X integration done in                =    15.454 sec

----------------
TOTAL SCF ENERGY
----------------

Total Energy       :         -805.00757914 Eh          -21905.36988 eV

Components:
Nuclear Repulsion  :         1404.00770971 Eh           38204.99209 eV
Electronic Energy  :        -2209.01528885 Eh          -60110.36196 eV
One Electron Energy:        -3882.09631159 Eh         -105637.21113 eV
Two Electron Energy:         1673.08102274 Eh           45526.84917 eV
Max COSX asymmetry :            0.00000335 Eh               0.00009 eV
CPCM Dielectric    :           -0.02095353 Eh              -0.57017 eV

Virial components:
Potential Energy   :        -1605.29646110 Eh          -43682.33747 eV
Kinetic Energy     :          800.28888196 Eh           21776.96760 eV
Virial Ratio       :            2.00589624


DFT components:
N(Alpha)           :       67.000047984435 electrons
N(Beta)            :       67.000047984435 electrons
N(Total)           :      134.000095968871 electrons
E(X)               :      -86.947566263056 Eh       
E(C)               :       -5.318552132090 Eh       
E(XC)              :      -92.266118395146 Eh       
DFET-embed. en.    :        0.000000000000 Eh       
CPCM Solvation Model Properties:
Surface-charge          :           -0.02216715
Charge-correction       :           -0.00019741 Eh              -0.00537 eV
Free-energy (cav+disp)  :  This term is not implemented in the current solvation scheme

---------------
SCF CONVERGENCE
---------------

  Last Energy change         ...    2.7651e-09  Tolerance :   1.0000e-08
  Last MAX-Density change    ...    3.9968e-15  Tolerance :   1.0000e-07
  Last RMS-Density change    ...    4.1809e-17  Tolerance :   5.0000e-09
  Last Orbital Gradient      ...    1.0123e-06  Tolerance :   1.0000e-05
  Last Orbital Rotation      ...    3.7840e-06  Tolerance :   1.0000e-05

             **** THE GBW FILE WAS UPDATED (Nfer_water.gbw) ****
             **** DENSITY Nfer_water.scfp WAS UPDATED ****
             **** ENERGY FILE WAS UPDATED (Nfer_water.en.tmp) ****
             **** THE GBW FILE WAS UPDATED (Nfer_water.gbw) ****
             **** DENSITY Nfer_water.scfp WAS UPDATED ****
----------------
ORBITAL ENERGIES
----------------

  NO   OCC          E(Eh)            E(eV) 
   0   2.0000     -19.110410      -520.0207 
   1   2.0000     -19.108459      -519.9676 
   2   2.0000     -14.359386      -390.7387 
   3   2.0000     -14.357473      -390.6867 
   4   2.0000     -10.284423      -279.8534 
   5   2.0000     -10.283161      -279.8190 
   6   2.0000     -10.218035      -278.0469 
   7   2.0000     -10.212590      -277.8987 
   8   2.0000     -10.197744      -277.4947 
   9   2.0000     -10.194868      -277.4165 
  10   2.0000     -10.186316      -277.1838 
  11   2.0000     -10.180509      -277.0257 
  12   2.0000     -10.180222      -277.0179 
  13   2.0000     -10.179814      -277.0068 
  14   2.0000     -10.179499      -276.9983 
  15   2.0000     -10.177856      -276.9536 
  16   2.0000     -10.170255      -276.7467 
  17   2.0000     -10.163486      -276.5625 
  18   2.0000      -1.032035       -28.0831 
  19   2.0000      -1.026659       -27.9368 
  20   2.0000      -0.935383       -25.4531 
  21   2.0000      -0.926112       -25.2008 
  22   2.0000      -0.850940       -23.1553 
  23   2.0000      -0.784487       -21.3470 
  24   2.0000      -0.742863       -20.2143 
  25   2.0000      -0.739501       -20.1228 
  26   2.0000      -0.731921       -19.9166 
  27   2.0000      -0.712593       -19.3906 
  28   2.0000      -0.710537       -19.3347 
  29   2.0000      -0.678222       -18.4553 
  30   2.0000      -0.634180       -17.2569 
  31   2.0000      -0.599154       -16.3038 
  32   2.0000      -0.581729       -15.8296 
  33   2.0000      -0.559049       -15.2125 
  34   2.0000      -0.534671       -14.5491 
  35   2.0000      -0.514085       -13.9890 
  36   2.0000      -0.493656       -13.4331 
  37   2.0000      -0.480041       -13.0626 
  38   2.0000      -0.478167       -13.0116 
  39   2.0000      -0.462880       -12.5956 
  40   2.0000      -0.456996       -12.4355 
  41   2.0000      -0.453019       -12.3273 
  42   2.0000      -0.447457       -12.1759 
  43   2.0000      -0.440337       -11.9822 
  44   2.0000      -0.423718       -11.5300 
  45   2.0000      -0.415999       -11.3199 
  46   2.0000      -0.412430       -11.2228 
  47   2.0000      -0.407058       -11.0766 
  48   2.0000      -0.400992       -10.9116 
  49   2.0000      -0.398110       -10.8331 
  50   2.0000      -0.395662       -10.7665 
  51   2.0000      -0.391398       -10.6505 
  52   2.0000      -0.379017       -10.3136 
  53   2.0000      -0.376107       -10.2344 
  54   2.0000      -0.371927       -10.1206 
  55   2.0000      -0.361086        -9.8256 
  56   2.0000      -0.354193        -9.6381 
  57   2.0000      -0.352469        -9.5912 
  58   2.0000      -0.346974        -9.4416 
  59   2.0000      -0.331208        -9.0126 
  60   2.0000      -0.328387        -8.9359 
  61   2.0000      -0.256963        -6.9923 
  62   2.0000      -0.255473        -6.9518 
  63   2.0000      -0.249008        -6.7759 
  64   2.0000      -0.243901        -6.6369 
  65   2.0000      -0.237710        -6.4684 
  66   2.0000      -0.232586        -6.3290 
  67   0.0000      -0.003784        -0.1030 
  68   0.0000      -0.001024        -0.0279 
  69   0.0000       0.017825         0.4851 
  70   0.0000       0.022895         0.6230 
  71   0.0000       0.089271         2.4292 
  72   0.0000       0.102428         2.7872 
  73   0.0000       0.113133         3.0785 
  74   0.0000       0.128887         3.5072 
  75   0.0000       0.140459         3.8221 
  76   0.0000       0.143386         3.9017 
  77   0.0000       0.146927         3.9981 
  78   0.0000       0.155415         4.2291 
  79   0.0000       0.157940         4.2978 
  80   0.0000       0.163678         4.4539 
  81   0.0000       0.166481         4.5302 
  82   0.0000       0.170557         4.6411 
  83   0.0000       0.172003         4.6804 
  84   0.0000       0.176540         4.8039 
  85   0.0000       0.181464         4.9379 
  86   0.0000       0.184939         5.0324 
  87   0.0000       0.191209         5.2031 
  88   0.0000       0.193669         5.2700 
  89   0.0000       0.199756         5.4356 
  90   0.0000       0.206936         5.6310 
  91   0.0000       0.216730         5.8975 
  92   0.0000       0.221082         6.0160 
  93   0.0000       0.227027         6.1777 
  94   0.0000       0.234104         6.3703 
  95   0.0000       0.241637         6.5753 
  96   0.0000       0.246769         6.7149 
  97   0.0000       0.258997         7.0477 
  98   0.0000       0.283090         7.7033 
  99   0.0000       0.301098         8.1933 
 100   0.0000       0.311156         8.4670 
 101   0.0000       0.319778         8.7016 
 102   0.0000       0.336678         9.1615 
 103   0.0000       0.338529         9.2118 
 104   0.0000       0.350580         9.5398 
 105   0.0000       0.370058        10.0698 
 106   0.0000       0.374862        10.2005 
 107   0.0000       0.411826        11.2064 
 108   0.0000       0.460437        12.5291 
 109   0.0000       0.472246        12.8505 
 110   0.0000       0.486087        13.2271 
 111   0.0000       0.500919        13.6307 
 112   0.0000       0.513442        13.9715 
 113   0.0000       0.529426        14.4064 
 114   0.0000       0.541304        14.7296 
 115   0.0000       0.542203        14.7541 
 116   0.0000       0.547805        14.9065 
 117   0.0000       0.559930        15.2365 
 118   0.0000       0.561701        15.2847 
 119   0.0000       0.572182        15.5699 
 120   0.0000       0.582850        15.8601 
 121   0.0000       0.588700        16.0193 
 122   0.0000       0.596066        16.2198 
 123   0.0000       0.609438        16.5836 
 124   0.0000       0.611214        16.6320 
 125   0.0000       0.619431        16.8556 
 126   0.0000       0.623467        16.9654 
 127   0.0000       0.625281        17.0148 
 128   0.0000       0.627923        17.0867 
 129   0.0000       0.642888        17.4939 
 130   0.0000       0.657059        17.8795 
 131   0.0000       0.663638        18.0585 
 132   0.0000       0.667669        18.1682 
 133   0.0000       0.674375        18.3507 
 134   0.0000       0.690485        18.7891 
 135   0.0000       0.699645        19.0383 
 136   0.0000       0.703415        19.1409 
 137   0.0000       0.726191        19.7606 
 138   0.0000       0.742409        20.2020 
 139   0.0000       0.755816        20.5668 
 140   0.0000       0.762748        20.7554 
 141   0.0000       0.781761        21.2728 
 142   0.0000       0.800016        21.7695 
 143   0.0000       0.809155        22.0182 
 144   0.0000       0.822995        22.3948 
 145   0.0000       0.825884        22.4735 
 146   0.0000       0.836587        22.7647 
 147   0.0000       0.841636        22.9021 
 148   0.0000       0.845827        23.0161 
 149   0.0000       0.850705        23.1489 
 150   0.0000       0.858545        23.3622 
 151   0.0000       0.863927        23.5086 
 152   0.0000       0.866993        23.5921 
 153   0.0000       0.876812        23.8593 
 154   0.0000       0.884596        24.0711 
 155   0.0000       0.892364        24.2825 
 156   0.0000       0.895580        24.3700 
 157   0.0000       0.901479        24.5305 
 158   0.0000       0.910328        24.7713 
 159   0.0000       0.916184        24.9306 
 160   0.0000       0.921400        25.0726 
 161   0.0000       0.931844        25.3568 
 162   0.0000       0.940457        25.5911 
 163   0.0000       0.959549        26.1107 
 164   0.0000       0.959745        26.1160 
 165   0.0000       0.965972        26.2854 
 166   0.0000       0.979976        26.6665 
 167   0.0000       0.984363        26.7859 
 168   0.0000       0.991165        26.9710 
 169   0.0000       0.994178        27.0530 
 170   0.0000       1.017696        27.6929 
 171   0.0000       1.020296        27.7637 
 172   0.0000       1.035169        28.1684 
 173   0.0000       1.044680        28.4272 
 174   0.0000       1.056338        28.7444 
 175   0.0000       1.074957        29.2511 
 176   0.0000       1.092523        29.7291 
 177   0.0000       1.109837        30.2002 
 178   0.0000       1.119360        30.4593 
 179   0.0000       1.140318        31.0296 
 180   0.0000       1.152808        31.3695 
 181   0.0000       1.154146        31.4059 
 182   0.0000       1.165520        31.7154 
 183   0.0000       1.189701        32.3734 
 184   0.0000       1.193525        32.4775 
 185   0.0000       1.227843        33.4113 
 186   0.0000       1.255463        34.1629 
 187   0.0000       1.262888        34.3649 
 188   0.0000       1.279701        34.8224 
 189   0.0000       1.312944        35.7270 
 190   0.0000       1.338094        36.4114 
 191   0.0000       1.361902        37.0592 
 192   0.0000       1.375381        37.4260 
 193   0.0000       1.396375        37.9973 
 194   0.0000       1.424080        38.7512 
 195   0.0000       1.431808        38.9615 
 196   0.0000       1.435482        39.0614 
 197   0.0000       1.449182        39.4342 
 198   0.0000       1.449982        39.4560 
 199   0.0000       1.463914        39.8351 
 200   0.0000       1.485737        40.4290 
 201   0.0000       1.494904        40.6784 
 202   0.0000       1.504922        40.9510 
 203   0.0000       1.518209        41.3126 
 204   0.0000       1.525862        41.5208 
 205   0.0000       1.564078        42.5607 
 206   0.0000       1.589651        43.2566 
 207   0.0000       1.617240        44.0073 
 208   0.0000       1.636351        44.5274 
 209   0.0000       1.690193        45.9925 
 210   0.0000       1.698917        46.2299 
 211   0.0000       1.712989        46.6128 
 212   0.0000       1.748784        47.5868 
 213   0.0000       1.762553        47.9615 
 214   0.0000       1.780523        48.4505 
 215   0.0000       1.804950        49.1152 
 216   0.0000       1.812096        49.3096 
 217   0.0000       1.819685        49.5161 
 218   0.0000       1.828704        49.7616 
 219   0.0000       1.845739        50.2251 
 220   0.0000       1.862968        50.6939 
 221   0.0000       1.869666        50.8762 
 222   0.0000       1.886827        51.3432 
 223   0.0000       1.911541        52.0157 
 224   0.0000       1.918205        52.1970 
 225   0.0000       1.924042        52.3558 
 226   0.0000       1.928066        52.4654 
 227   0.0000       1.946220        52.9594 
 228   0.0000       1.954361        53.1809 
 229   0.0000       1.978309        53.8325 
 230   0.0000       1.981183        53.9107 
 231   0.0000       1.989391        54.1341 
 232   0.0000       1.992092        54.2076 
 233   0.0000       2.011935        54.7475 
 234   0.0000       2.020766        54.9878 
 235   0.0000       2.045653        55.6650 
 236   0.0000       2.060201        56.0609 
 237   0.0000       2.075320        56.4723 
 238   0.0000       2.082687        56.6728 
 239   0.0000       2.100916        57.1688 
 240   0.0000       2.104732        57.2727 
 241   0.0000       2.118588        57.6497 
 242   0.0000       2.124833        57.8196 
 243   0.0000       2.136451        58.1358 
 244   0.0000       2.149999        58.5044 
 245   0.0000       2.172336        59.1123 
 246   0.0000       2.184193        59.4349 
 247   0.0000       2.205644        60.0186 
 248   0.0000       2.225369        60.5554 
 249   0.0000       2.232850        60.7589 
 250   0.0000       2.246072        61.1187 
 251   0.0000       2.259922        61.4956 
 252   0.0000       2.272192        61.8295 
 253   0.0000       2.304995        62.7221 
 254   0.0000       2.307164        62.7811 
 255   0.0000       2.317939        63.0743 
 256   0.0000       2.318372        63.0861 
 257   0.0000       2.339129        63.6509 
 258   0.0000       2.344665        63.8016 
 259   0.0000       2.365952        64.3808 
 260   0.0000       2.380685        64.7817 
 261   0.0000       2.404312        65.4246 
 262   0.0000       2.417908        65.7946 
 263   0.0000       2.438598        66.3576 
 264   0.0000       2.475731        67.3681 
 265   0.0000       2.493737        67.8580 
 266   0.0000       2.505311        68.1730 
 267   0.0000       2.563364        69.7527 
 268   0.0000       2.583815        70.3092 
 269   0.0000       2.589355        70.4599 
 270   0.0000       2.599111        70.7254 
 271   0.0000       2.607720        70.9597 
 272   0.0000       2.634412        71.6860 
 273   0.0000       2.647693        72.0474 
 274   0.0000       2.659879        72.3790 
 275   0.0000       2.670903        72.6790 
 276   0.0000       2.698017        73.4168 
 277   0.0000       2.734159        74.4002 
 278   0.0000       2.748157        74.7812 
 279   0.0000       2.757855        75.0451 
 280   0.0000       2.766129        75.2702 
 281   0.0000       2.795968        76.0822 
 282   0.0000       2.834242        77.1236 
 283   0.0000       2.886663        78.5501 
 284   0.0000       2.931924        79.7817 
 285   0.0000       2.962122        80.6034 
 286   0.0000       3.002208        81.6942 
 287   0.0000       3.034096        82.5619 
 288   0.0000       3.080424        83.8226 
 289   0.0000       3.163653        86.0874 
 290   0.0000       3.187266        86.7299 
 291   0.0000       3.415906        92.9515 

                    ********************************
                    * MULLIKEN POPULATION ANALYSIS *
                    ********************************

-----------------------
MULLIKEN ATOMIC CHARGES
-----------------------
   0 C :   -0.569273
   1 H :    0.192155
   2 H :    0.181041
   3 H :    0.203321
   4 C :    0.537814
   5 N :   -0.381965
   6 C :   -0.077433
   7 H :    0.182083
   8 C :    0.146299
   9 C :   -0.185932
  10 C :   -0.201530
  11 C :   -0.148711
  12 H :    0.150039
  13 C :   -0.150578
  14 H :    0.157207
  15 C :   -0.147738
  16 H :    0.153118
  17 H :    0.153511
  18 H :    0.152591
  19 C :   -0.259563
  20 H :    0.188314
  21 H :    0.205710
  22 C :    0.519612
  23 N :   -0.356411
  24 O :   -0.544163
  25 O :   -0.534102
  26 C :   -0.334851
  27 H :    0.173299
  28 H :    0.174475
  29 H :    0.193307
  30 C :   -0.332633
  31 H :    0.173429
  32 H :    0.173503
  33 H :    0.185168
  34 C :   -0.468698
  35 H :    0.163060
  36 H :    0.166020
  37 H :    0.168505
Sum of atomic charges:   -0.0000000

--------------------------------
MULLIKEN REDUCED ORBITAL CHARGES
--------------------------------
  0 C s       :     3.325984  s :     3.325984
      pz      :     1.114486  p :     3.211293
      px      :     0.984130
      py      :     1.112677
      dz2     :     0.006640  d :     0.031997
      dxz     :     0.006225
      dyz     :     0.006059
      dx2y2   :     0.009191
      dxy     :     0.003881
  1 H s       :     0.807845  s :     0.807845
  2 H s       :     0.818959  s :     0.818959
  3 H s       :     0.796679  s :     0.796679
  4 C s       :     2.984902  s :     2.984902
      pz      :     0.765941  p :     2.370334
      px      :     0.831071
      py      :     0.773321
      dz2     :     0.029973  d :     0.106950
      dxz     :     0.024519
      dyz     :     0.017477
      dx2y2   :     0.017346
      dxy     :     0.017634
  5 N s       :     3.543286  s :     3.543286
      pz      :     1.222358  p :     3.802636
      px      :     1.141409
      py      :     1.438870
      dz2     :     0.007168  d :     0.036043
      dxz     :     0.009371
      dyz     :     0.006222
      dx2y2   :     0.005457
      dxy     :     0.007825
  6 C s       :     3.206563  s :     3.206563
      pz      :     1.032401  p :     2.812016
      px      :     0.797433
      py      :     0.982182
      dz2     :     0.010925  d :     0.058853
      dxz     :     0.006943
      dyz     :     0.013162
      dx2y2   :     0.012988
      dxy     :     0.014835
  7 H s       :     0.817917  s :     0.817917
  8 C s       :     3.138319  s :     3.138319
      pz      :     0.855757  p :     2.675116
      px      :     0.907775
      py      :     0.911583
[...]
    107       0.000071   0.000001  -0.000569   0.000170  -0.000599   0.000137
    108       0.003817  -0.000107   0.002803  -0.005292   0.003273  -0.001057
    109      -0.001166   0.000054  -0.000788   0.001538  -0.000939   0.000405
    110       0.000650  -0.000009   0.000546  -0.000977   0.000705  -0.000116
    111       0.003391  -0.000017   0.002632  -0.004420   0.002971  -0.000144
    112      -0.014107   0.000089  -0.012721   0.021354  -0.016152   0.001067
    113      -0.020609   0.000151  -0.016932   0.029348  -0.021452   0.001435


-----------
IR SPECTRUM
-----------

 Mode   freq       eps      Int      T**2         TX        TY        TZ
       cm**-1   L/(mol*cm) km/mol    a.u.
----------------------------------------------------------------------------
  6:     24.70   0.000450    2.28  0.005690  ( 0.033516  0.028423 -0.061312)
  7:     48.82   0.000884    4.47  0.005653  (-0.038448 -0.056444 -0.031445)
  8:     52.99   0.000043    0.22  0.000252  ( 0.011480 -0.009379 -0.005679)
  9:     65.48   0.000696    3.52  0.003316  (-0.007969 -0.057023  0.001162)
 10:     68.22   0.001118    5.65  0.005115  (-0.021156  0.052090 -0.044207)
 11:     89.41   0.000379    1.91  0.001322  (-0.012763  0.016412 -0.029828)
 12:     97.88   0.000691    3.49  0.002204  (-0.011914 -0.042146  0.016906)
 13:    115.56   0.000369    1.86  0.000996  ( 0.012271 -0.009405 -0.027517)
 14:    153.43   0.000986    4.98  0.002006  ( 0.011508  0.043181  0.002955)
 15:    168.87   0.000972    4.91  0.001797  ( 0.036066  0.018428  0.012516)
 16:    190.35   0.000359    1.81  0.000589  (-0.006986  0.017741 -0.015000)
 17:    201.09   0.001005    5.08  0.001559  ( 0.033135  0.016350  0.013936)
 18:    208.96   0.000153    0.77  0.000228  (-0.009896 -0.007467 -0.008643)
 19:    234.27   0.000181    0.92  0.000241  ( 0.011084 -0.008810 -0.006395)
 20:    246.26   0.002344   11.85  0.002970  ( 0.021103  0.036667  0.034357)
 21:    267.42   0.000334    1.69  0.000390  (-0.014086  0.007653 -0.011531)
 22:    273.98   0.000295    1.49  0.000336  ( 0.013904 -0.007506  0.009278)
 23:    313.40   0.001839    9.29  0.001831  (-0.014433 -0.031773  0.024759)
 24:    323.74   0.000146    0.74  0.000141  (-0.001062  0.005310  0.010566)
 25:    355.76   0.000889    4.49  0.000780  ( 0.008807  0.025245  0.008064)
 26:    404.28   0.001698    8.58  0.001311  (-0.011315  0.024406 -0.024235)
 27:    417.33   0.000119    0.60  0.000089  (-0.004519 -0.008249  0.000844)
 28:    441.18   0.001142    5.77  0.000808  ( 0.006624  0.027508  0.002688)
 29:    456.76   0.002718   13.73  0.001857  (-0.033224  0.023259 -0.014557)
 30:    516.79   0.001573    7.95  0.000950  ( 0.015697  0.024744  0.009561)
 31:    553.58   0.007532   38.06  0.004246  ( 0.051042 -0.022176  0.033893)
 32:    580.14   0.004761   24.06  0.002561  (-0.020431  0.026171  0.038195)
 33:    595.16   0.001329    6.72  0.000697  ( 0.010850 -0.023990 -0.001899)
 34:    614.63   0.008656   43.74  0.004395  ( 0.023142  0.061465 -0.009007)
 35:    630.65   0.000075    0.38  0.000037  (-0.002640  0.001188 -0.005383)
 36:    636.61   0.000268    1.36  0.000132  (-0.001275  0.011172 -0.002262)
 37:    681.95   0.002724   13.77  0.001247  ( 0.030641  0.017038 -0.004177)
 38:    717.78   0.011233   56.77  0.004884  ( 0.053036 -0.045372  0.003508)
 39:    756.62   0.003945   19.94  0.001627  (-0.023367 -0.032806  0.002218)
 40:    777.79   0.004678   23.64  0.001877  (-0.014512  0.040801 -0.001269)
 41:    796.47   0.000156    0.79  0.000061  ( 0.003980 -0.006725  0.000157)
 42:    820.35   0.005722   28.92  0.002177  (-0.044265 -0.006439  0.013264)
 43:    867.47   0.000008    0.04  0.000003  (-0.000418 -0.000947 -0.001300)
 44:    927.06   0.000429    2.17  0.000145  (-0.011395  0.003829 -0.000220)
 45:    938.13   0.002170   10.97  0.000722  (-0.022526  0.014221  0.003505)
 46:    981.57   0.000013    0.07  0.000004  (-0.001936 -0.000639  0.000272)
 47:    998.54   0.005015   25.34  0.001567  ( 0.019123  0.034256 -0.005297)
 48:   1005.44   0.000613    3.10  0.000190  (-0.007942  0.008861 -0.006970)
 49:   1009.40   0.008902   44.99  0.002752  (-0.008491  0.018739 -0.048259)
 50:   1015.57   0.000214    1.08  0.000066  ( 0.004677 -0.006550 -0.001042)
 51:   1020.29   0.002288   11.56  0.000700  (-0.002566 -0.022785  0.013196)
 52:   1056.24   0.002758   13.94  0.000815  ( 0.024305  0.014575  0.003418)
 53:   1060.62   0.004115   20.79  0.001211  (-0.003872 -0.034508  0.002206)
 54:   1064.53   0.000977    4.94  0.000286  (-0.003694  0.001861 -0.016408)
 55:   1086.17   0.006547   33.08  0.001881  (-0.031642 -0.020460 -0.021472)
 56:   1088.35   0.001797    9.08  0.000515  (-0.017951  0.008822  0.010739)
 57:   1100.05   0.001485    7.50  0.000421  (-0.005107  0.006692 -0.018719)
 58:   1135.50   0.000682    3.45  0.000187  (-0.010415 -0.002801  0.008432)
 59:   1147.35   0.003015   15.24  0.000820  ( 0.020711 -0.016853 -0.010349)
 60:   1177.99   0.001656    8.37  0.000439  ( 0.015217  0.012591 -0.006975)
 61:   1184.03   0.000033    0.17  0.000009  ( 0.001067 -0.001265 -0.002427)
 62:   1196.01   0.018434   93.16  0.004810  ( 0.019694  0.051293 -0.042318)
 63:   1200.10   0.025527  129.00  0.006638  ( 0.077879 -0.008444  0.022390)
 64:   1212.68   0.000806    4.08  0.000208  ( 0.014067 -0.001203  0.002864)
 65:   1241.97   0.010436   52.74  0.002622  ( 0.044851  0.022870  0.009350)
 66:   1291.46   0.010373   52.42  0.002507  (-0.012734  0.048253 -0.004003)
 67:   1305.59   0.004868   24.60  0.001164  ( 0.032849 -0.009170  0.000702)
 68:   1331.42   0.045917  232.05  0.010762  (-0.043951 -0.032724 -0.088089)
 69:   1336.33   0.006771   34.22  0.001581  (-0.025872 -0.022319 -0.020339)
 70:   1367.26   0.000036    0.18  0.000008  (-0.000857  0.002144 -0.001727)
 71:   1386.20   0.004174   21.10  0.000940  (-0.013630  0.006210  0.026747)
 72:   1407.67   0.001374    6.94  0.000305  (-0.013341 -0.011231  0.000680)
 73:   1415.73   0.003844   19.42  0.000847  ( 0.024664 -0.012264  0.009406)
 74:   1431.71   0.001626    8.21  0.000354  ( 0.008280  0.016755  0.002241)
 75:   1440.61   0.017229   87.07  0.003732  ( 0.015403  0.046014 -0.037117)
 76:   1453.80   0.029082  146.97  0.006243  ( 0.045485 -0.007100  0.064212)
 77:   1462.36   0.021550  108.91  0.004599  ( 0.024561  0.059352  0.021745)
 78:   1484.77   0.004249   21.47  0.000893  (-0.026638 -0.009081 -0.010047)
 79:   1493.65   0.003978   20.10  0.000831  (-0.021166  0.014705  0.012919)
 80:   1499.45   0.001337    6.76  0.000278  ( 0.008406 -0.001589 -0.014322)
 81:   1503.04   0.003310   16.73  0.000687  (-0.013486  0.018212 -0.013179)
 82:   1507.13   0.007017   35.46  0.001453  ( 0.025937  0.027736 -0.003302)
 83:   1508.07   0.003529   17.83  0.000730  (-0.008110 -0.009703 -0.023881)
 84:   1509.68   0.003196   16.15  0.000661  (-0.022322  0.008127 -0.009819)
 85:   1514.13   0.005449   27.54  0.001123  (-0.000052 -0.021811 -0.025444)
 86:   1521.48   0.005954   30.09  0.001221  (-0.028355  0.002120 -0.020316)
 87:   1523.49   0.003812   19.27  0.000781  (-0.005990 -0.003432 -0.027079)
 88:   1545.53   0.003381   17.08  0.000683  (-0.014916 -0.021396 -0.001526)
 89:   1553.31   0.016386   82.81  0.003292  (-0.017258  0.048576 -0.025190)
 90:   1640.94   0.001095    5.53  0.000208  ( 0.001504 -0.009664 -0.010609)
 91:   1660.95   0.000727    3.67  0.000137  ( 0.008157  0.007503  0.003698)
 92:   1703.02   0.124272  628.02  0.022772  (-0.038272  0.071794  0.127093)
 93:   1710.79   0.105126  531.27  0.019176  (-0.101098 -0.063135  0.070492)
 94:   3045.14   0.008280   41.84  0.000849  ( 0.016103 -0.024110  0.002821)
 95:   3052.25   0.013596   68.71  0.001390  (-0.010993 -0.018116  0.030676)
 96:   3057.95   0.003769   19.05  0.000385  ( 0.003937 -0.012721  0.014398)
 97:   3070.70   0.001115    5.63  0.000113  ( 0.009785  0.000533 -0.004152)
 98:   3072.10   0.006187   31.27  0.000628  (-0.006966 -0.002499  0.023952)
 99:   3099.00   0.009974   50.40  0.001004  (-0.007670 -0.020670 -0.022766)
100:   3111.21   0.005365   27.11  0.000538  ( 0.002069  0.022596  0.004828)
101:   3116.14   0.002089   10.56  0.000209  ( 0.006219  0.009359 -0.009109)
102:   3124.89   0.007097   35.87  0.000709  ( 0.008362  0.019961  0.015505)
103:   3128.19   0.006634   33.53  0.000662  ( 0.025210  0.004444 -0.002556)
104:   3141.63   0.002023   10.23  0.000201  (-0.007759 -0.011243  0.003792)
105:   3146.49   0.004107   20.75  0.000407  ( 0.016406 -0.011420 -0.002779)
106:   3168.89   0.002217   11.20  0.000218  ( 0.002309  0.007874  0.012288)
107:   3185.37   0.000537    2.72  0.000053  ( 0.004666  0.005519  0.000642)
108:   3191.47   0.000250    1.27  0.000024  ( 0.000833  0.003594 -0.003299)
109:   3194.62   0.000943    4.76  0.000092  (-0.009461  0.000365  0.001565)
110:   3199.61   0.005682   28.71  0.000554  (-0.011345 -0.014924 -0.014238)
111:   3207.64   0.009410   47.55  0.000915  ( 0.010101  0.008194 -0.027318)
112:   3214.60   0.003183   16.09  0.000309  ( 0.011451  0.011544  0.006682)
113:   3223.38   0.000767    3.88  0.000074  ( 0.001693  0.000605 -0.008427)

* The epsilon (eps) is given for a Dirac delta lineshape.
** The dipole moment derivative (T) already includes vibrational overlap.

The first frequency considered to be a vibration is 6
The total number of vibrations considered is 108


--------------------------
THERMOCHEMISTRY AT 298.15K
--------------------------

Temperature         ... 298.15 K
Pressure            ... 1.00 atm
Total Mass          ... 248.33 AMU

Throughout the following assumptions are being made:
  (1) The electronic state is orbitally nondegenerate
  (2) There are no thermally accessible electronically excited states
  (3) Hindered rotations indicated by low frequency modes are not
      treated as such but are treated as vibrations and this may
      cause some error
  (4) All equations used are the standard statistical mechanics
      equations for an ideal gas
  (5) All vibrations are strictly harmonic

freq.      24.70  E(vib)   ...       0.56 
freq.      48.82  E(vib)   ...       0.53 
freq.      52.99  E(vib)   ...       0.52 
freq.      65.48  E(vib)   ...       0.50 
freq.      68.22  E(vib)   ...       0.50 
freq.      89.41  E(vib)   ...       0.47 
freq.      97.88  E(vib)   ...       0.46 
freq.     115.56  E(vib)   ...       0.44 
freq.     153.43  E(vib)   ...       0.40 
freq.     168.87  E(vib)   ...       0.38 
freq.     190.35  E(vib)   ...       0.36 
freq.     201.09  E(vib)   ...       0.35 
freq.     208.96  E(vib)   ...       0.34 
freq.     234.27  E(vib)   ...       0.32 
freq.     246.26  E(vib)   ...       0.31 
freq.     267.42  E(vib)   ...       0.29 
freq.     273.98  E(vib)   ...       0.28 
freq.     313.40  E(vib)   ...       0.25 
freq.     323.74  E(vib)   ...       0.25 
freq.     355.76  E(vib)   ...       0.22 
freq.     404.28  E(vib)   ...       0.19 
freq.     417.33  E(vib)   ...       0.18 
freq.     441.18  E(vib)   ...       0.17 
freq.     456.76  E(vib)   ...       0.16 
freq.     516.79  E(vib)   ...       0.13 
freq.     553.58  E(vib)   ...       0.12 
freq.     580.14  E(vib)   ...       0.11 
freq.     595.16  E(vib)   ...       0.10 
freq.     614.63  E(vib)   ...       0.10 
freq.     630.65  E(vib)   ...       0.09 
freq.     636.61  E(vib)   ...       0.09 
freq.     681.95  E(vib)   ...       0.08 
freq.     717.78  E(vib)   ...       0.07 
freq.     756.62  E(vib)   ...       0.06 
freq.     777.79  E(vib)   ...       0.05 
freq.     796.47  E(vib)   ...       0.05 
freq.     820.35  E(vib)   ...       0.05 
freq.     867.47  E(vib)   ...       0.04 
freq.     927.06  E(vib)   ...       0.03 
freq.     938.13  E(vib)   ...       0.03 
freq.     981.57  E(vib)   ...       0.02 
freq.     998.54  E(vib)   ...       0.02 
freq.    1005.44  E(vib)   ...       0.02 
freq.    1009.40  E(vib)   ...       0.02 
freq.    1015.57  E(vib)   ...       0.02 
freq.    1020.29  E(vib)   ...       0.02 
freq.    1056.24  E(vib)   ...       0.02 
freq.    1060.62  E(vib)   ...       0.02 
freq.    1064.53  E(vib)   ...       0.02 
freq.    1086.17  E(vib)   ...       0.02 
freq.    1088.35  E(vib)   ...       0.02 
freq.    1100.05  E(vib)   ...       0.02 
freq.    1135.50  E(vib)   ...       0.01 
freq.    1147.35  E(vib)   ...       0.01 
freq.    1177.99  E(vib)   ...       0.01 
freq.    1184.03  E(vib)   ...       0.01 
freq.    1196.01  E(vib)   ...       0.01 
freq.    1200.10  E(vib)   ...       0.01 
freq.    1212.68  E(vib)   ...       0.01 
freq.    1241.97  E(vib)   ...       0.01 
freq.    1291.46  E(vib)   ...       0.01 
freq.    1305.59  E(vib)   ...       0.01 
freq.    1331.42  E(vib)   ...       0.01 
freq.    1336.33  E(vib)   ...       0.01 
freq.    1367.26  E(vib)   ...       0.01 
freq.    1386.20  E(vib)   ...       0.00 
freq.    1407.67  E(vib)   ...       0.00 
freq.    1415.73  E(vib)   ...       0.00 
freq.    1431.71  E(vib)   ...       0.00 
freq.    1440.61  E(vib)   ...       0.00 
freq.    1453.80  E(vib)   ...       0.00 
freq.    1462.36  E(vib)   ...       0.00 
freq.    1484.77  E(vib)   ...       0.00 
freq.    1493.65  E(vib)   ...       0.00 
freq.    1499.45  E(vib)   ...       0.00 
freq.    1503.04  E(vib)   ...       0.00 
freq.    1507.13  E(vib)   ...       0.00 
freq.    1508.07  E(vib)   ...       0.00 
freq.    1509.68  E(vib)   ...       0.00 
freq.    1514.13  E(vib)   ...       0.00 
freq.    1521.48  E(vib)   ...       0.00 
freq.    1523.49  E(vib)   ...       0.00 
freq.    1545.53  E(vib)   ...       0.00 
freq.    1553.31  E(vib)   ...       0.00 
freq.    1640.94  E(vib)   ...       0.00 
freq.    1660.95  E(vib)   ...       0.00 
freq.    1703.02  E(vib)   ...       0.00 
freq.    1710.79  E(vib)   ...       0.00 
freq.    3045.14  E(vib)   ...       0.00 
freq.    3052.25  E(vib)   ...       0.00 
freq.    3057.95  E(vib)   ...       0.00 
freq.    3070.70  E(vib)   ...       0.00 
freq.    3072.10  E(vib)   ...       0.00 
freq.    3099.00  E(vib)   ...       0.00 
freq.    3111.21  E(vib)   ...       0.00 
freq.    3116.14  E(vib)   ...       0.00 
freq.    3124.89  E(vib)   ...       0.00 
freq.    3128.19  E(vib)   ...       0.00 
freq.    3141.63  E(vib)   ...       0.00 
freq.    3146.49  E(vib)   ...       0.00 
freq.    3168.89  E(vib)   ...       0.00 
freq.    3185.37  E(vib)   ...       0.00 
freq.    3191.47  E(vib)   ...       0.00 
freq.    3194.62  E(vib)   ...       0.00 
freq.    3199.61  E(vib)   ...       0.00 
freq.    3207.64  E(vib)   ...       0.00 
freq.    3214.60  E(vib)   ...       0.00 
freq.    3223.38  E(vib)   ...       0.00 

------------
INNER ENERGY
------------

The inner energy is: U= E(el) + E(ZPE) + E(vib) + E(rot) + E(trans)
    E(el)   - is the total energy from the electronic structure calculation
              = E(kin-el) + E(nuc-el) + E(el-el) + E(nuc-nuc)
    E(ZPE)  - the the zero temperature vibrational energy from the frequency calculation
    E(vib)  - the the finite temperature correction to E(ZPE) due to population
              of excited vibrational states
    E(rot)  - is the rotational thermal energy
    E(trans)- is the translational thermal energy

Summary of contributions to the inner energy U:
Electronic energy                ...   -805.08515849 Eh
Zero point energy                ...      0.32549218 Eh     204.25 kcal/mol
Thermal vibrational correction   ...      0.01604768 Eh      10.07 kcal/mol
Thermal rotational correction    ...      0.00141627 Eh       0.89 kcal/mol
Thermal translational correction ...      0.00141627 Eh       0.89 kcal/mol
-----------------------------------------------------------------------
Total thermal energy                   -804.74078609 Eh


Summary of corrections to the electronic energy:
(perhaps to be used in another calculation)
Total thermal correction                  0.01888022 Eh      11.85 kcal/mol
Non-thermal (ZPE) correction              0.32549218 Eh     204.25 kcal/mol
-----------------------------------------------------------------------
Total correction                          0.34437240 Eh     216.10 kcal/mol


--------
ENTHALPY
--------

The enthalpy is H = U + kB*T
                kB is Boltzmann's constant
Total free energy                 ...   -804.74078609 Eh 
Thermal Enthalpy correction       ...      0.00094421 Eh       0.59 kcal/mol
-----------------------------------------------------------------------
Total Enthalpy                    ...   -804.73984188 Eh


Note: Only C1 symmetry has been detected, increase convergence thresholds 
      if your molecule has a higher symmetry. Symmetry factor of 1.0 is   
      used for the rotational entropy correction. 
 

Note: Rotational entropy computed according to Herzberg 
Infrared and Raman Spectra, Chapter V,1, Van Nostrand Reinhold, 1945 
Point Group:  C1, Symmetry Number:   1  
Rotational constants in cm-1:     0.018849     0.011128     0.009238 

Vibrational entropy computed according to the QRRHO of S. Grimme
Chem.Eur.J. 2012 18 9955


-------
ENTROPY
-------

The entropy contributions are T*S = T*(S(el)+S(vib)+S(rot)+S(trans))
     S(el)   - electronic entropy
     S(vib)  - vibrational entropy
     S(rot)  - rotational entropy
     S(trans)- translational entropy
The entropies will be listed as multiplied by the temperature to get
units of energy

Electronic entropy                ...      0.00000000 Eh      0.00 kcal/mol
Vibrational entropy               ...      0.02857082 Eh     17.93 kcal/mol
Rotational entropy                ...      0.01572068 Eh      9.86 kcal/mol
Translational entropy             ...      0.02015944 Eh     12.65 kcal/mol
-----------------------------------------------------------------------
Final entropy term                ...      0.06445094 Eh     40.44 kcal/mol

In case the symmetry of your molecule has not been determined correctly
or in case you have a reason to use a different symmetry number we print 
out the resulting rotational entropy values for sn=1,12 :
 --------------------------------------------------------
|  sn= 1 | S(rot)=       0.01572068 Eh      9.86 kcal/mol|
|  sn= 2 | S(rot)=       0.01506622 Eh      9.45 kcal/mol|
|  sn= 3 | S(rot)=       0.01468339 Eh      9.21 kcal/mol|
|  sn= 4 | S(rot)=       0.01441177 Eh      9.04 kcal/mol|
|  sn= 5 | S(rot)=       0.01420108 Eh      8.91 kcal/mol|
|  sn= 6 | S(rot)=       0.01402893 Eh      8.80 kcal/mol|
|  sn= 7 | S(rot)=       0.01388339 Eh      8.71 kcal/mol|
|  sn= 8 | S(rot)=       0.01375731 Eh      8.63 kcal/mol|
|  sn= 9 | S(rot)=       0.01364610 Eh      8.56 kcal/mol|
|  sn=10 | S(rot)=       0.01354662 Eh      8.50 kcal/mol|
|  sn=11 | S(rot)=       0.01345663 Eh      8.44 kcal/mol|
|  sn=12 | S(rot)=       0.01337448 Eh      8.39 kcal/mol|
 --------------------------------------------------------


-------------------
GIBBS FREE ENERGY
-------------------

The Gibbs free energy is G = H - T*S

Total enthalpy                    ...   -804.73984188 Eh 
Total entropy correction          ...     -0.06445094 Eh    -40.44 kcal/mol
-----------------------------------------------------------------------
Final Gibbs free energy         ...   -804.80429282 Eh

For completeness - the Gibbs free energy minus the electronic energy
G-E(el)                           ...      0.28086568 Eh    176.25 kcal/mol


Timings for individual modules:

Sum of individual times         ...     2404.989 sec (=  40.083 min)
GTO integral calculation        ...       18.912 sec (=   0.315 min)   0.8 %
SCF iterations                  ...      986.890 sec (=  16.448 min)  41.0 %
SCF Gradient evaluation         ...      285.837 sec (=   4.764 min)  11.9 %
Geometry relaxation             ...        1.254 sec (=   0.021 min)   0.1 %
Analytical frequency calculation...     1112.095 sec (=  18.535 min)  46.2 %
                             ****ORCA TERMINATED NORMALLY****
TOTAL RUN TIME: 0 days 0 hours 40 minutes 10 seconds 124 msec
