
                                 *****************
                                 * O   R   C   A *
                                 *****************

                                            #,                                       
                                            ###                                      
                                            ####                                     
                                            #####                                    
                                            ######                                   
                                           ########,                                 
                                     ,,################,,,,,                         
                               ,,#################################,,                 
                          ,,##########################################,,             
                       ,#########################################, ''#####,          
                    ,#############################################,,   '####,        
                  ,##################################################,,,,####,       
                ,###########''''           ''''###############################       
              ,#####''   ,,,,##########,,,,          '''####'''          '####       
            ,##' ,,,,###########################,,,                        '##       
           ' ,,###''''                  '''############,,,                           
         ,,##''                                '''############,,,,        ,,,,,,###''
      ,#''                                            '''#######################'''  
     '                                                          ''''####''''         
             ,#######,   #######,   ,#######,      ##                                
            ,#'     '#,  ##    ##  ,#'     '#,    #''#        ######   ,####,        
            ##       ##  ##   ,#'  ##            #'  '#       #        #'  '#        
            ##       ##  #######   ##           ,######,      #####,   #    #        
            '#,     ,#'  ##    ##  '#,     ,#' ,#      #,         ##   #,  ,#        
             '#######'   ##     ##  '#######'  #'      '#     #####' # '####'        



                  #######################################################
                  #                        -***-                        #
                  #          Department of theory and spectroscopy      #
                  #    Directorship and core code : Frank Neese         #
                  #        Max Planck Institute fuer Kohlenforschung    #
                  #                Kaiser Wilhelm Platz 1               #
                  #                 D-45470 Muelheim/Ruhr               #
                  #                      Germany                        #
                  #                                                     #
                  #                  All rights reserved                #
                  #                        -***-                        #
                  #######################################################


                         Program Version 5.0.4 -  RELEASE  -


 With contributions from (in alphabetic order):
   Daniel Aravena         : Magnetic Suceptibility
   Michael Atanasov       : Ab Initio Ligand Field Theory (pilot matlab implementation)
   Alexander A. Auer      : GIAO ZORA, VPT2 properties, NMR spectrum
   Ute Becker             : Parallelization
   Giovanni Bistoni       : ED, misc. LED, open-shell LED, HFLD
   Martin Brehm           : Molecular dynamics
   Dmytro Bykov           : SCF Hessian
   Vijay G. Chilkuri      : MRCI spin determinant printing, contributions to CSF-ICE
   Dipayan Datta          : RHF DLPNO-CCSD density
   Achintya Kumar Dutta   : EOM-CC, STEOM-CC
   Dmitry Ganyushin       : Spin-Orbit,Spin-Spin,Magnetic field MRCI
   Miquel Garcia          : C-PCM and meta-GGA Hessian, CC/C-PCM, Gaussian charge scheme
   Yang Guo               : DLPNO-NEVPT2, F12-NEVPT2, CIM, IAO-localization
   Andreas Hansen         : Spin unrestricted coupled pair/coupled cluster methods
   Benjamin Helmich-Paris : MC-RPA, TRAH-SCF, COSX integrals
   Lee Huntington         : MR-EOM, pCC
   Robert Izsak           : Overlap fitted RIJCOSX, COSX-SCS-MP3, EOM
   Marcus Kettner         : VPT2
   Christian Kollmar      : KDIIS, OOCD, Brueckner-CCSD(T), CCSD density, CASPT2, CASPT2-K
   Simone Kossmann        : Meta GGA functionals, TD-DFT gradient, OOMP2, MP2 Hessian
   Martin Krupicka        : Initial AUTO-CI
   Lucas Lang             : DCDCAS
   Marvin Lechner         : AUTO-CI (C++ implementation), FIC-MRCC
   Dagmar Lenk            : GEPOL surface, SMD
   Dimitrios Liakos       : Extrapolation schemes; Compound Job, initial MDCI parallelization
   Dimitrios Manganas     : Further ROCIS development; embedding schemes
   Dimitrios Pantazis     : SARC Basis sets
   Anastasios Papadopoulos: AUTO-CI, single reference methods and gradients
   Taras Petrenko         : DFT Hessian,TD-DFT gradient, ASA, ECA, R-Raman, ABS, FL, XAS/XES, NRVS
   Peter Pinski           : DLPNO-MP2, DLPNO-MP2 Gradient
   Christoph Reimann      : Effective Core Potentials
   Marius Retegan         : Local ZFS, SOC
   Christoph Riplinger    : Optimizer, TS searches, QM/MM, DLPNO-CCSD(T), (RO)-DLPNO pert. Triples
   Tobias Risthaus        : Range-separated hybrids, TD-DFT gradient, RPA, STAB
   Michael Roemelt        : Original ROCIS implementation
   Masaaki Saitow         : Open-shell DLPNO-CCSD energy and density
   Barbara Sandhoefer     : DKH picture change effects
   Avijit Sen             : IP-ROCIS
   Kantharuban Sivalingam : CASSCF convergence, NEVPT2, FIC-MRCI
   Bernardo de Souza      : ESD, SOC TD-DFT
   Georgi Stoychev        : AutoAux, RI-MP2 NMR, DLPNO-MP2 response
   Willem Van den Heuvel  : Paramagnetic NMR
   Boris Wezisla          : Elementary symmetry handling
   Frank Wennmohs         : Technical directorship


 We gratefully acknowledge several colleagues who have allowed us to
 interface, adapt or use parts of their codes:
   Stefan Grimme, W. Hujo, H. Kruse, P. Pracht,  : VdW corrections, initial TS optimization,
                  C. Bannwarth, S. Ehlert          DFT functionals, gCP, sTDA/sTD-DF
   Ed Valeev, F. Pavosevic, A. Kumar             : LibInt (2-el integral package), F12 methods
   Garnet Chan, S. Sharma, J. Yang, R. Olivares  : DMRG
   Ulf Ekstrom                                   : XCFun DFT Library
   Mihaly Kallay                                 : mrcc  (arbitrary order and MRCC methods)
   Jiri Pittner, Ondrej Demel                    : Mk-CCSD
   Frank Weinhold                                : gennbo (NPA and NBO analysis)
   Christopher J. Cramer and Donald G. Truhlar   : smd solvation model
   Lars Goerigk                                  : TD-DFT with DH, B97 family of functionals
   V. Asgeirsson, H. Jonsson                     : NEB implementation
   FAccTs GmbH                                   : IRC, NEB, NEB-TS, DLPNO-Multilevel, CI-OPT
                                                   MM, QMMM, 2- and 3-layer-ONIOM, Crystal-QMMM,
                                                   LR-CPCM, SF, NACMEs, symmetry and pop. for TD-DFT,
                                                   nearIR, NL-DFT gradient (VV10), updates on ESD,
                                                   ML-optimized integration grids
   S Lehtola, MJT Oliveira, MAL Marques          : LibXC Library
   Liviu Ungur et al                             : ANISO software


 Your calculation uses the libint2 library for the computation of 2-el integrals
 For citations please refer to: http://libint.valeyev.net

 Your ORCA version has been built with support for libXC version: 5.1.0
 For citations please refer to: https://tddft.org/programs/libxc/

 This ORCA versions uses:
   CBLAS   interface :  Fast vector & matrix operations
   LAPACKE interface :  Fast linear algebra routines
   SCALAPACK package :  Parallel linear algebra routines
   Shared memory     :  Shared parallel matrices
   BLAS/LAPACK       :  OpenBLAS 0.3.15  USE64BITINT DYNAMIC_ARCH NO_AFFINITY SkylakeX SINGLE_THREADED
        Core in use  :  SkylakeX
   Copyright (c) 2011-2014, The OpenBLAS Project




***************************************
The coordinates will be read from file: /users/fjb15167/WWenergy/structures/Ne.xyz
***************************************


Your calculation utilizes the atom-pairwise dispersion correction
based on tight binding partial charges (D4)
Cite in your paper:
E.Caldeweyher, C.Bannwarth, S.Grimme, J.Chem.Phys., (2017), 147, 034112.
E.Caldeweyher, S.Ehlert, A.Hansen, H.Neugebauer, S.Grimme, J.Chem.Phys., (2018), in progress.
   

================================================================================

----- Orbital basis set information -----
Your calculation utilizes the basis: 6-31+G(d)
   H-He, Li-Ne : W. J. Hehre, R. Ditchfield and J.A. Pople, J. Chem. Phys. 56, 2257 (1972).
                 Note: He and Ne are unpublished basis sets taken from the Gaussian program.
                 Note: Li and B from J. D. Dill and J. A. Pople, J. Chem. Phys. 62, 2921 (1975).
   Na - Ar     : M. M. Francl, W. J. Pietro, W. J. Hehre, J. S. Binkley, M. S. Gordon, 
                 D. J. DeFrees and J. A. Pople, J. Chem. Phys. 77, 3654 (1982).
   K - Zn      : V. A. Rassolov, J. A. Pople, M. A. Ratner, and T. L. Windus, J. Chem. Phys. 109, 1223 (1998).
   Additional Pol./Diff. from the 6-311G equivalent.

----- AuxJ basis set information -----
Your calculation utilizes the AutoAux generation procedure.
  G. L. Stoychev, A. A. Auer, F. Neese, J. Chem. Theory Comput. 13, 554 (2017)

----- AuxC basis set information -----
Your calculation utilizes the AutoAux generation procedure.
  G. L. Stoychev, A. A. Auer, F. Neese, J. Chem. Theory Comput. 13, 554 (2017)

----- AuxJK basis set information -----
Your calculation utilizes the AutoAux generation procedure.
  G. L. Stoychev, A. A. Auer, F. Neese, J. Chem. Theory Comput. 13, 554 (2017)

================================================================================
                                        WARNINGS
                       Please study these warnings very carefully!
================================================================================


WARNING: Geometry Optimization
  ===> : Switching off AutoStart
         For restart on a previous wavefunction, please use MOREAD

INFO   : the flag for use of the SHARK integral package has been found!

================================================================================
                                       INPUT FILE
================================================================================
NAME = Ne_gas.inp
|  1> ! OPT FREQ B3LYP 6-31+G(d) D4 AUTOAUX
|  2> 
|  3> %PAL NPROCS 4 END
|  4> 
|  5> %maxcore 3375
|  6> 
|  7> *xyzfile -1 1 /users/fjb15167/WWenergy/structures/Ne.xyz
|  8> 
|  9>                          ****END OF INPUT****
================================================================================

                       *****************************
                       * Geometry Optimization Run *
                       *****************************

Geometry optimization settings:
Update method            Update   .... BFGS
Choice of coordinates    CoordSys .... Z-matrix Internals
Initial Hessian          InHess   .... Almoef's Model

Convergence Tolerances:
Energy Change            TolE     ....  5.0000e-06 Eh
Max. Gradient            TolMAXG  ....  3.0000e-04 Eh/bohr
RMS Gradient             TolRMSG  ....  1.0000e-04 Eh/bohr
Max. Displacement        TolMAXD  ....  4.0000e-03 bohr
RMS Displacement         TolRMSD  ....  2.0000e-03 bohr
Strict Convergence                ....  False
------------------------------------------------------------------------------
                        ORCA OPTIMIZATION COORDINATE SETUP
------------------------------------------------------------------------------

The optimization will be done in new redundant internal coordinates
Making redundant internal coordinates   ...  (new redundants) done
Evaluating the initial hessian          ...  (Almloef) done
Evaluating the coordinates              ...  done
Calculating the B-matrix                .... done
Calculating the G-matrix                .... done
Diagonalizing the G-matrix              .... done
Small eigenvalue found = 5.135e-03
Small eigenvalue found = 7.696e-03
Small eigenvalue found = 1.393e-02
Small eigenvalue found = 1.560e-02
The first mode is                       ....   55
The number of degrees of freedom        ....   84

    -----------------------------------------------------------------
                    Redundant Internal Coordinates


    -----------------------------------------------------------------
         Definition                    Initial Value    Approx d2E/dq
    -----------------------------------------------------------------
      1. B(H   1,C   0)                  1.0941         0.354704   
      2. B(H   2,C   0)                  1.0972         0.350753   
      3. B(H   3,C   0)                  1.0919         0.357574   
      4. B(C   4,C   0)                  1.5334         0.368962   
      5. B(O   5,C   4)                  1.2283         1.013542   
      6. B(N   6,C   4)                  1.3709         0.600290   
      7. B(C   7,N   6)                  1.4564         0.438411   
      8. B(H   8,C   7)                  1.0956         0.352729   
      9. B(H   9,C   7)                  1.0937         0.355292   
     10. B(C  10,N   6)                  1.4759         0.408168   
     11. B(H  11,C  10)                  1.0926         0.356629   
     12. B(H  12,C  10)                  1.0962         0.352041   
     13. B(C  13,C  10)                  1.5308         0.372487   
     14. B(H  14,C  13)                  1.0945         0.354201   
     15. B(H  15,C  13)                  1.0978         0.349881   
     16. B(C  16,C   7)                  1.5260         0.379172   
     17. B(N  17,C  16)                  1.3670         0.608823   
     18. B(O  18,C  16)                  1.2459         0.950282   
     19. B(C  19,N  17)                  1.4566         0.438098   
     20. B(H  20,C  19)                  1.0980         0.349710   
     21. B(H  21,C  19)                  1.0967         0.351328   
     22. B(H  22,C  19)                  1.0889         0.361600   
     23. B(C  23,N  17)                  1.4561         0.438970   
     24. B(H  24,C  23)                  1.0980         0.349696   
     25. B(H  25,C  23)                  1.0896         0.360614   
     26. B(H  26,C  23)                  1.0952         0.353339   
     27. B(C  27,C  13)                  1.5641         0.329640   
     28. B(O  28,C  27)                  1.2725         0.861769   
     29. B(O  29,C  27)                  1.2640         0.888964   
     30. A(H   1,C   0,C   4)          114.6610         0.322857   
     31. A(H   3,C   0,C   4)          106.6071         0.323284   
     32. A(H   2,C   0,H   3)          108.4109         0.289322   
     33. A(H   1,C   0,H   3)          110.9775         0.289831   
     34. A(H   1,C   0,H   2)          106.5435         0.288957   
     35. A(H   2,C   0,C   4)          109.5166         0.322265   
     36. A(C   0,C   4,O   5)          121.1031         0.429100   
     37. A(O   5,C   4,N   6)          123.5163         0.465584   
     38. A(C   0,C   4,N   6)          115.3805         0.391078   
     39. A(C   4,N   6,C  10)          124.3524         0.395519   
     40. A(C   7,N   6,C  10)          117.1963         0.374474   
     41. A(C   4,N   6,C   7)          118.4476         0.400518   
     42. A(H   8,C   7,H   9)          108.9955         0.289287   
     43. A(N   6,C   7,H   9)          108.0662         0.330256   
     44. A(H   9,C   7,C  16)          112.6502         0.324395   
     45. A(H   8,C   7,C  16)          105.3065         0.324010   
     46. A(N   6,C   7,C  16)          112.0243         0.372082   
     47. A(N   6,C   7,H   8)          109.7328         0.329861   
     48. A(H  12,C  10,C  13)          111.1349         0.322962   
     49. A(H  11,C  10,C  13)          107.8370         0.323649   
     50. A(N   6,C  10,C  13)          114.2168         0.366420   
     51. A(H  11,C  10,H  12)          107.7461         0.289368   
     52. A(N   6,C  10,H  12)          106.5347         0.325891   
     53. A(N   6,C  10,H  11)          109.1907         0.326586   
     54. A(H  14,C  13,H  15)          107.0423         0.288780   
     55. A(H  15,C  13,C  27)          105.6180         0.316263   
     56. A(C  10,C  13,H  15)          109.1713         0.322636   
     57. A(C  10,C  13,H  14)          112.2067         0.323286   
     58. A(H  14,C  13,C  27)          108.8358         0.316895   
     59. A(C  10,C  13,C  27)          113.5634         0.355515   
     60. A(N  17,C  16,O  18)          122.3309         0.461318   
     61. A(C   7,C  16,O  18)          119.4952         0.426252   
     62. A(C   7,C  16,N  17)          118.1710         0.393923   
     63. A(C  16,N  17,C  19)          124.6576         0.401465   
     64. A(C  19,N  17,C  23)          115.0433         0.379167   
     65. A(C  16,N  17,C  23)          118.2167         0.401605   
     66. A(H  21,C  19,H  22)          108.5533         0.289905   
     67. A(H  20,C  19,H  22)          108.7932         0.289695   
     68. A(N  17,C  19,H  22)          111.6905         0.331180   
     69. A(H  20,C  19,H  21)          108.4009         0.288390   
     70. A(N  17,C  19,H  21)          108.2452         0.329605   
     71. A(N  17,C  19,H  20)          111.0706         0.329354   
     72. A(H  25,C  23,H  26)          109.9787         0.290040   
     73. A(H  24,C  23,H  26)          109.1140         0.288646   
     74. A(N  17,C  23,H  26)          109.1496         0.330025   
     75. A(H  24,C  23,H  25)          109.2687         0.289569   
     76. A(N  17,C  23,H  25)          108.9966         0.331139   
     77. A(N  17,C  23,H  24)          110.3235         0.329460   
     78. A(O  28,C  27,O  29)          129.3008         0.485745   
     79. A(C  13,C  27,O  29)          114.9460         0.410838   
     80. A(C  13,C  27,O  28)          115.6701         0.408583   
     81. D(O   5,C   4,C   0,H   2)     99.6537         0.010198   
     82. D(O   5,C   4,C   0,H   1)   -140.6664         0.010198   
     83. D(N   6,C   4,C   0,H   1)     39.2071         0.010198   
     84. D(N   6,C   4,C   0,H   2)    -80.4728         0.010198   
     85. D(O   5,C   4,C   0,H   3)    -17.4357         0.010198   
     86. D(N   6,C   4,C   0,H   3)    162.4377         0.010198   
     87. D(C   7,N   6,C   4,C   0)    177.4987         0.029038   
     88. D(C  10,N   6,C   4,C   0)     -1.7794         0.029038   
     89. D(C   7,N   6,C   4,O   5)     -2.6312         0.029038   
     90. D(C  10,N   6,C   4,O   5)    178.0907         0.029038   
     91. D(C  16,C   7,N   6,C   4)    125.1810         0.016389   
     92. D(H   9,C   7,N   6,C   4)      0.5063         0.016389   
     93. D(H   8,C   7,N   6,C  10)     61.1025         0.016389   
     94. D(H   9,C   7,N   6,C  10)    179.8363         0.016389   
     95. D(H   8,C   7,N   6,C   4)   -118.2274         0.016389   
     96. D(C  16,C   7,N   6,C  10)    -55.4891         0.016389   
     97. D(C  13,C  10,N   6,C   7)     91.9125         0.014214   
     98. D(C  13,C  10,N   6,C   4)    -88.8011         0.014214   
     99. D(H  12,C  10,N   6,C   7)    -31.1760         0.014214   
    100. D(H  12,C  10,N   6,C   4)    148.1104         0.014214   
    101. D(H  11,C  10,N   6,C   7)   -147.2788         0.014214   
    102. D(H  11,C  10,N   6,C   4)     32.0076         0.014214   
    103. D(C  27,C  13,C  10,H  11)     16.6742         0.011083   
    104. D(C  27,C  13,C  10,N   6)    138.2319         0.011083   
    105. D(H  15,C  13,C  10,H  12)    141.2368         0.011083   
    106. D(H  15,C  13,C  10,H  11)   -100.8801         0.011083   
    107. D(H  15,C  13,C  10,N   6)     20.6776         0.011083   
    108. D(H  14,C  13,C  10,H  12)     22.7422         0.011083   
    109. D(H  14,C  13,C  10,H  11)    140.6253         0.011083   
    110. D(C  27,C  13,C  10,H  12)   -101.2089         0.011083   
    111. D(H  14,C  13,C  10,N   6)    -97.8170         0.011083   
    112. D(O  18,C  16,C   7,H   9)   -125.7583         0.010731   
    113. D(O  18,C  16,C   7,H   8)     -7.0810         0.010731   
    114. D(O  18,C  16,C   7,N   6)    112.1492         0.010731   
    115. D(N  17,C  16,C   7,H   9)     53.6396         0.010731   
    116. D(N  17,C  16,C   7,H   8)    172.3169         0.010731   
    117. D(N  17,C  16,C   7,N   6)    -68.4528         0.010731   
    118. D(C  23,N  17,C  16,O  18)    -13.2034         0.029931   
    119. D(C  23,N  17,C  16,C   7)    167.4168         0.029931   
    120. D(C  19,N  17,C  16,O  18)   -175.9428         0.029931   
    121. D(C  19,N  17,C  16,C   7)      4.6774         0.029931   
    122. D(H  22,C  19,N  17,C  16)    -22.4952         0.016365   
    123. D(H  21,C  19,N  17,C  23)     54.8271         0.016365   
    124. D(H  21,C  19,N  17,C  16)   -141.9464         0.016365   
    125. D(H  20,C  19,N  17,C  23)    -64.0675         0.016365   
    126. D(H  22,C  19,N  17,C  23)    174.2783         0.016365   
    127. D(H  20,C  19,N  17,C  16)     99.1590         0.016365   
    128. D(H  26,C  23,N  17,C  19)    -51.3920         0.016431   
    129. D(H  26,C  23,N  17,C  16)    144.2364         0.016431   
    130. D(H  25,C  23,N  17,C  19)   -171.5284         0.016431   
    131. D(H  25,C  23,N  17,C  16)     24.0999         0.016431   
    132. D(H  24,C  23,N  17,C  19)     68.4926         0.016431   
    133. D(H  24,C  23,N  17,C  16)    -95.8791         0.016431   
    134. D(O  29,C  27,C  13,H  14)     30.2797         0.008312   
    135. D(O  29,C  27,C  13,C  10)    156.0428         0.008312   
    136. D(O  28,C  27,C  13,H  15)     92.6390         0.008312   
    137. D(O  28,C  27,C  13,H  14)   -152.7224         0.008312   
    138. D(O  29,C  27,C  13,H  15)    -84.3588         0.008312   
    139. D(O  28,C  27,C  13,C  10)    -26.9594         0.008312   
    -----------------------------------------------------------------

Number of atoms                         .... 30
Number of degrees of freedom            .... 139

         *************************************************************
         *                GEOMETRY OPTIMIZATION CYCLE   1            *
         *************************************************************
---------------------------------
CARTESIAN COORDINATES (ANGSTROEM)
---------------------------------
  C     -0.487000    2.819000    0.493000
  H     -1.263000    2.069000    0.673000
  H     -0.837000    3.436000   -0.344000
  H     -0.356000    3.463000    1.365000
  C      0.895000    2.243000    0.162000
  O      1.919000    2.755000    0.607000
  N      0.892000    1.137000   -0.648000
  C      2.171000    0.568000   -1.050000
  H      2.271000    0.616000   -2.140000
  H      2.966000    1.164000   -0.593000
  C     -0.328000    0.483000   -1.160000
  H     -1.105000    1.237000   -1.307000
  H     -0.072000    0.071000   -2.143000
  C     -0.894000   -0.600000   -0.238000
  H     -0.585000   -1.605000   -0.542000
  H     -0.515000   -0.441000    0.780000
  C      2.273000   -0.914000   -0.701000
  N      2.341000   -1.263000    0.619000
  O      2.303000   -1.759000   -1.616000
  C      2.226000   -0.328000    1.730000
  H      1.212000   -0.338000    2.151000
  H      2.929000   -0.637000    2.513000
  H      2.470000    0.689000    1.427000
  C      2.158000   -2.664000    0.971000
  H      1.115000   -2.852000    1.258000
  H      2.411000   -3.282000    0.110000
  H      2.812000   -2.911000    1.814000
  C     -2.453000   -0.566000   -0.117000
  O     -2.996000    0.569000   -0.307000
  O     -2.986000   -1.663000    0.215000

----------------------------
CARTESIAN COORDINATES (A.U.)
----------------------------
  NO LB      ZA    FRAG     MASS         X           Y           Z
   0 C     6.0000    0    12.011   -0.920297    5.327138    0.931635
   1 H     1.0000    0     1.008   -2.386724    3.909843    1.271786
   2 H     1.0000    0     1.008   -1.581701    6.493099   -0.650066
   3 H     1.0000    0     1.008   -0.672743    6.544122    2.579476
   4 C     6.0000    0    12.011    1.691305    4.238656    0.306136
   5 O     8.0000    0    15.999    3.626384    5.206195    1.147064
   6 N     7.0000    0    14.007    1.685636    2.148619   -1.224543
   7 C     6.0000    0    12.011    4.102595    1.073364   -1.984212
   8 H     1.0000    0     1.008    4.291568    1.164071   -4.044014
   9 H     1.0000    0     1.008    5.604928    2.199641   -1.120608
  10 C     6.0000    0    12.011   -0.619830    0.912738   -2.192082
  11 H     1.0000    0     1.008   -2.088147    2.337591   -2.469872
  12 H     1.0000    0     1.008   -0.136060    0.134171   -4.049683
  13 C     6.0000    0    12.011   -1.689415   -1.133836   -0.449755
  14 H     1.0000    0     1.008   -1.105490   -3.033010   -1.024232
  15 H     1.0000    0     1.008   -0.973209   -0.833369    1.473986
  16 C     6.0000    0    12.011    4.295348   -1.727210   -1.324698
  17 N     7.0000    0    14.007    4.423849   -2.386724    1.169740
  18 O     8.0000    0    15.999    4.352039   -3.324028   -3.053797
  19 C     6.0000    0    12.011    4.206530   -0.619830    3.269226
  20 H     1.0000    0     1.008    2.290348   -0.638727    4.064801
  21 H     1.0000    0     1.008    5.535008   -1.203756    4.748882
  22 H     1.0000    0     1.008    4.667624    1.302021    2.696639
  23 C     6.0000    0    12.011    4.078029   -5.034230    1.834924
  24 H     1.0000    0     1.008    2.107045   -5.389499    2.377275
  25 H     1.0000    0     1.008    4.556130   -6.202081    0.207870
  26 H     1.0000    0     1.008    5.313910   -5.500993    3.427963
  27 C     6.0000    0    12.011   -4.635498   -1.069585   -0.221098
  28 O     8.0000    0    15.999   -5.661619    1.075254   -0.580146
  29 O     8.0000    0    15.999   -5.642722   -3.142615    0.406291

--------------------------------
INTERNAL COORDINATES (ANGSTROEM)
--------------------------------
 C      0   0   0     0.000000000000     0.00000000     0.00000000
 H      1   0   0     1.094109683715     0.00000000     0.00000000
 H      1   2   0     1.097159058660   106.54353617     0.00000000
 H      1   2   3     1.091916205576   110.97752046   117.82321123
 C      1   2   3     1.533382209366   114.66096006   238.67700323
 O      5   1   2     1.228309814338   121.10308337   219.33361627
 N      5   1   2     1.370892045349   115.38053461    39.20708700
 C      7   5   1     1.456436061075   118.44756805   177.49873195
 H      8   7   5     1.095629499420   109.73281261   241.77260311
 H      8   7   5     1.093658996214   108.06623895     0.50634326
 C      7   5   1     1.475892950048   124.35237581   358.22063216
 H     11   7   5     1.092636261525   109.19070715    32.00761218
 H     11   7   5     1.096161028317   106.53469897   148.11037411
 C     11   7   5     1.530793585040   114.21679524   271.19891660
 H     14  11   7     1.094496231149   112.20666629   262.18302678
 H     14  11   7     1.097836964216   109.17127604    20.67759348
 C      8   7   5     1.525951834102   112.02427864   125.18098510
 N     17   8   7     1.367049743060   118.17097349   291.54715886
 O     17   8   7     1.245853121359   119.49524689   112.14921984
 C     18  17   8     1.456630014794   124.65755266     4.67738052
 H     20  18  17     1.097969489558   111.07064250    99.15904384
 H     20  18  17     1.096712815645   108.24517797   218.05362443
 H     20  18  17     1.088868219758   111.69046529   337.50483035
 C     18  17   8     1.456088596206   118.21669685   167.41678705
 H     24  18  17     1.097980874150   110.32350345   264.12094861
 H     24  18  17     1.089611857498   108.99655791    24.09992856
 H     24  18  17     1.095159349136   109.14956281   144.23639082
 C     14  11   7     1.564058183061   113.56339839   138.23190813
 O     28  14  11     1.272467681318   115.67006218   333.04060846
 O     28  14  11     1.264010284768   114.94599464   156.04277832

---------------------------
INTERNAL COORDINATES (A.U.)
---------------------------
 C      0   0   0     0.000000000000     0.00000000     0.00000000
 H      1   0   0     2.067567662693     0.00000000     0.00000000
 H      1   2   0     2.073330146219   106.54353617     0.00000000
 H      1   2   3     2.063422589730   110.97752046   117.82321123
 C      1   2   3     2.897672434329   114.66096006   238.67700323
 O      5   1   2     2.321169156707   121.10308337   219.33361627
 N      5   1   2     2.590610524880   115.38053461    39.20708700
 C      7   5   1     2.752265286999   118.44756805   177.49873195
 H      8   7   5     2.070439698150   109.73281261   241.77260311
 H      8   7   5     2.066715986744   108.06623895     0.50634326
 C      7   5   1     2.789033478575   124.35237581   358.22063216
 H     11   7   5     2.064783298274   109.19070715    32.00761218
 H     11   7   5     2.071444142196   106.53469897   148.11037411
 C     11   7   5     2.892780643289   114.21679524   271.19891660
 H     14  11   7     2.068298131481   112.20666629   262.18302678
 H     14  11   7     2.074611202065   109.17127604    20.67759348
 C      8   7   5     2.883631060008   112.02427864   125.18098510
 N     17   8   7     2.583349625831   118.17097349   291.54715886
 O     17   8   7     2.354321202459   119.49524689   112.14921984
 C     18  17   8     2.752631806411   124.65755266     4.67738052
 H     20  18  17     2.074861638666   111.07064250    99.15904384
 H     20  18  17     2.072486869131   108.24517797   218.05362443
 H     20  18  17     2.057662731274   111.69046529   337.50483035
 C     18  17   8     2.751608673554   118.21669685   167.41678705
 H     24  18  17     2.074883152428   110.32350345   264.12094861
 H     24  18  17     2.059068002944   108.99655791    24.09992856
 H     24  18  17     2.069551242870   109.14956281   144.23639082
 C     14  11   7     2.955641623504   113.56339839   138.23190813
 O     28  14  11     2.404615431958   115.67006218   333.04060846
 O     28  14  11     2.388633268672   114.94599464   156.04277832

---------------------
BASIS SET INFORMATION
---------------------
There are 4 groups of distinct atoms

 Group   1 Type C   : 11s5p1d contracted to 4s3p1d pattern {6311/311/1}
 Group   2 Type H   : 4s contracted to 2s pattern {31}
 Group   3 Type O   : 11s5p1d contracted to 4s3p1d pattern {6311/311/1}
 Group   4 Type N   : 11s5p1d contracted to 4s3p1d pattern {6311/311/1}

Atom   0C    basis set group =>   1
Atom   1H    basis set group =>   2
Atom   2H    basis set group =>   2
Atom   3H    basis set group =>   2
Atom   4C    basis set group =>   1
Atom   5O    basis set group =>   3
Atom   6N    basis set group =>   4
Atom   7C    basis set group =>   1
Atom   8H    basis set group =>   2
Atom   9H    basis set group =>   2
Atom  10C    basis set group =>   1
Atom  11H    basis set group =>   2
Atom  12H    basis set group =>   2
Atom  13C    basis set group =>   1
Atom  14H    basis set group =>   2
Atom  15H    basis set group =>   2
Atom  16C    basis set group =>   1
Atom  17N    basis set group =>   4
Atom  18O    basis set group =>   3
Atom  19C    basis set group =>   1
Atom  20H    basis set group =>   2
Atom  21H    basis set group =>   2
Atom  22H    basis set group =>   2
Atom  23C    basis set group =>   1
Atom  24H    basis set group =>   2
Atom  25H    basis set group =>   2
Atom  26H    basis set group =>   2
Atom  27C    basis set group =>   1
Atom  28O    basis set group =>   3
Atom  29O    basis set group =>   3
---------------------------------
AUXILIARY/J BASIS SET INFORMATION
---------------------------------
There are 4 groups of distinct atoms

 Group   1 Type C   : 16s13p12d2f contracted to 16s13p12d2f pattern {1111111111111111/1111111111111/111111111111/11}
 Group   2 Type H   : 9s2p contracted to 9s2p pattern {111111111/11}
 Group   3 Type O   : 16s13p12d3f contracted to 16s13p12d3f pattern {1111111111111111/1111111111111/111111111111/111}
 Group   4 Type N   : 16s13p12d3f contracted to 16s13p12d3f pattern {1111111111111111/1111111111111/111111111111/111}

Atom   0C    basis set group =>   1
Atom   1H    basis set group =>   2
Atom   2H    basis set group =>   2
Atom   3H    basis set group =>   2
Atom   4C    basis set group =>   1
Atom   5O    basis set group =>   3
Atom   6N    basis set group =>   4
Atom   7C    basis set group =>   1
Atom   8H    basis set group =>   2
Atom   9H    basis set group =>   2
Atom  10C    basis set group =>   1
Atom  11H    basis set group =>   2
Atom  12H    basis set group =>   2
Atom  13C    basis set group =>   1
Atom  14H    basis set group =>   2
Atom  15H    basis set group =>   2
Atom  16C    basis set group =>   1
Atom  17N    basis set group =>   4
Atom  18O    basis set group =>   3
Atom  19C    basis set group =>   1
Atom  20H    basis set group =>   2
Atom  21H    basis set group =>   2
Atom  22H    basis set group =>   2
Atom  23C    basis set group =>   1
Atom  24H    basis set group =>   2
Atom  25H    basis set group =>   2
Atom  26H    basis set group =>   2
Atom  27C    basis set group =>   1
Atom  28O    basis set group =>   3
Atom  29O    basis set group =>   3
---------------------------------
AUXILIARY/C BASIS SET INFORMATION
---------------------------------
There are 4 groups of distinct atoms

 Group   1 Type C   : 16s13p12d2f contracted to 16s13p12d2f pattern {1111111111111111/1111111111111/111111111111/11}
 Group   2 Type H   : 9s2p contracted to 9s2p pattern {111111111/11}
 Group   3 Type O   : 16s13p12d3f contracted to 16s13p12d3f pattern {1111111111111111/1111111111111/111111111111/111}
 Group   4 Type N   : 16s13p12d3f contracted to 16s13p12d3f pattern {1111111111111111/1111111111111/111111111111/111}

Atom   0C    basis set group =>   1
Atom   1H    basis set group =>   2
Atom   2H    basis set group =>   2
Atom   3H    basis set group =>   2
Atom   4C    basis set group =>   1
Atom   5O    basis set group =>   3
Atom   6N    basis set group =>   4
Atom   7C    basis set group =>   1
Atom   8H    basis set group =>   2
Atom   9H    basis set group =>   2
Atom  10C    basis set group =>   1
Atom  11H    basis set group =>   2
Atom  12H    basis set group =>   2
Atom  13C    basis set group =>   1
Atom  14H    basis set group =>   2
Atom  15H    basis set group =>   2
Atom  16C    basis set group =>   1
Atom  17N    basis set group =>   4
Atom  18O    basis set group =>   3
Atom  19C    basis set group =>   1
Atom  20H    basis set group =>   2
Atom  21H    basis set group =>   2
Atom  22H    basis set group =>   2
Atom  23C    basis set group =>   1
Atom  24H    basis set group =>   2
Atom  25H    basis set group =>   2
Atom  26H    basis set group =>   2
Atom  27C    basis set group =>   1
Atom  28O    basis set group =>   3
Atom  29O    basis set group =>   3
----------------------------------
AUXILIARY/JK BASIS SET INFORMATION
----------------------------------
There are 4 groups of distinct atoms

 Group   1 Type C   : 16s13p12d2f contracted to 16s13p12d2f pattern {1111111111111111/1111111111111/111111111111/11}
 Group   2 Type H   : 9s2p contracted to 9s2p pattern {111111111/11}
 Group   3 Type O   : 16s13p12d3f contracted to 16s13p12d3f pattern {1111111111111111/1111111111111/111111111111/111}
 Group   4 Type N   : 16s13p12d3f contracted to 16s13p12d3f pattern {1111111111111111/1111111111111/111111111111/111}

Atom   0C    basis set group =>   1
Atom   1H    basis set group =>   2
Atom   2H    basis set group =>   2
Atom   3H    basis set group =>   2
Atom   4C    basis set group =>   1
Atom   5O    basis set group =>   3
Atom   6N    basis set group =>   4
Atom   7C    basis set group =>   1
Atom   8H    basis set group =>   2
Atom   9H    basis set group =>   2
Atom  10C    basis set group =>   1
Atom  11H    basis set group =>   2
Atom  12H    basis set group =>   2
Atom  13C    basis set group =>   1
Atom  14H    basis set group =>   2
Atom  15H    basis set group =>   2
Atom  16C    basis set group =>   1
Atom  17N    basis set group =>   4
Atom  18O    basis set group =>   3
Atom  19C    basis set group =>   1
Atom  20H    basis set group =>   2
Atom  21H    basis set group =>   2
Atom  22H    basis set group =>   2
Atom  23C    basis set group =>   1
Atom  24H    basis set group =>   2
Atom  25H    basis set group =>   2
Atom  26H    basis set group =>   2
Atom  27C    basis set group =>   1
Atom  28O    basis set group =>   3
Atom  29O    basis set group =>   3


           ************************************************************
           *        Program running with 4 parallel MPI-processes     *
           *              working on a common directory               *
           ************************************************************
------------------------------------------------------------------------------
                           ORCA GTO INTEGRAL CALCULATION
                           -- RI-GTO INTEGRALS CHOSEN --
------------------------------------------------------------------------------
------------------------------------------------------------------------------
                   ___                                                        
                  /   \      - P O W E R E D   B Y -                         
                 /     \                                                     
                 |  |  |   _    _      __       _____    __    __             
                 |  |  |  | |  | |    /  \     |  _  \  |  |  /  |          
                  \  \/   | |  | |   /    \    | | | |  |  | /  /          
                 / \  \   | |__| |  /  /\  \   | |_| |  |  |/  /          
                |  |  |   |  __  | /  /__\  \  |    /   |      \           
                |  |  |   | |  | | |   __   |  |    \   |  |\   \          
                \     /   | |  | | |  |  |  |  | |\  \  |  | \   \       
                 \___/    |_|  |_| |__|  |__|  |_| \__\ |__|  \__/        
                                                                              
                      - O R C A' S   B I G   F R I E N D -                    
                                      &                                       
                       - I N T E G R A L  F E E D E R -                       
                                                                              
 v1 FN, 2020, v2 2021                                                         
------------------------------------------------------------------------------


Reading SHARK input file Ne_gas.SHARKINP.tmp ... ok
----------------------
SHARK INTEGRAL PACKAGE
----------------------

Number of atoms                             ...     30
Number of basis functions                   ...    300
Number of shells                            ...    150
Maximum angular momentum                    ...      2
Integral batch strategy                     ... SHARK/LIBINT Hybrid
RI-J (if used) integral strategy            ... SPLIT-RIJ (Revised 2003 algorithm where possible)
Printlevel                                  ...      1
Contraction scheme used                     ... SEGMENTED contraction
Coulomb Range Separation                    ... NOT USED
Exchange Range Separation                   ... NOT USED
Finite Nucleus Model                        ... NOT USED
Auxiliary Coulomb fitting basis             ... AVAILABLE
   # of basis functions in Aux-J            ...   2202
   # of shells in Aux-J                     ...    816
   Maximum angular momentum in Aux-J        ...      3
Auxiliary J/K fitting basis                 ... AVAILABLE
   # of basis functions in Aux-JK           ...   2202
   # of shells in Aux-JK                    ...    816
   Maximum angular momentum in Aux-JK       ...      3
Auxiliary Correlation fitting basis         ... AVAILABLE
   # of basis functions in Aux-C            ...   2202
   # of shells in Aux-C                     ...    816
   Maximum angular momentum in Aux-C        ...      3
Auxiliary 'external' fitting basis          ... NOT available
Integral threshold                          ...     2.500000e-11
Primitive cut-off                           ...     2.500000e-12
Primitive pair pre-selection threshold      ...     2.500000e-12

Calculating pre-screening integrals         ... done (  0.1 sec) Dimension = 150
Organizing shell pair data                  ... done (  0.1 sec)
Shell pair information
Total number of shell pairs                 ...     11325
Shell pairs after pre-screening             ...     10344
Total number of primitive shell pairs       ...     50130
Primitive shell pairs kept                  ...     29693
          la=0 lb=0:   3646 shell pairs
          la=1 lb=0:   3837 shell pairs
          la=1 lb=1:   1010 shell pairs
          la=2 lb=0:   1134 shell pairs
          la=2 lb=1:    626 shell pairs
          la=2 lb=2:     91 shell pairs

Calculating one electron integrals          ... done (  0.0 sec)
Calculating RI/J V-Matrix + Cholesky decomp.... done (  0.5 sec)
Calculating RI/JK V-Matrix + Cholesky decomp... done (  0.4 sec)
Calculating RI/C V-Matrix + Cholesky decomp.... done (  0.5 sec)
Calculating Nuclear repulsion               ... done (  0.0 sec) ENN=   1078.445512131213 Eh

SHARK setup successfully completed in   2.0 seconds

Maximum memory used throughout the entire GTOINT-calculation: 43.3 MB


           ************************************************************
           *        Program running with 4 parallel MPI-processes     *
           *              working on a common directory               *
           ************************************************************
-------------------------------------------------------------------------------
                                 ORCA SCF
-------------------------------------------------------------------------------

------------
SCF SETTINGS
------------
Hamiltonian:
 Density Functional     Method          .... DFT(GTOs)
 Exchange Functional    Exchange        .... B88
   X-Alpha parameter    XAlpha          ....  0.666667
   Becke's b parameter  XBeta           ....  0.004200
 Correlation Functional Correlation     .... LYP
 LDA part of GGA corr.  LDAOpt          .... VWN-5
 Gradients option       PostSCFGGA      .... off
 Hybrid DFT is turned on
   Fraction HF Exchange ScalHFX         ....  0.200000
   Scaling of DF-GGA-X  ScalDFX         ....  0.720000
   Scaling of DF-GGA-C  ScalDFC         ....  0.810000
   Scaling of DF-LDA-C  ScalLDAC        ....  1.000000
   Perturbative correction              ....  0.000000
   Density functional embedding theory  .... OFF
   NL short-range parameter             ....  4.800000
 RI-approximation to the Coulomb term is turned on
   Number of AuxJ basis functions       .... 2202
   RIJ-COSX (HFX calculated with COS-X)).... on


General Settings:
 Integral files         IntName         .... Ne_gas
 Hartree-Fock type      HFTyp           .... RHF
 Total Charge           Charge          ....   -1
 Multiplicity           Mult            ....    1
 Number of Electrons    NEL             ....  116
 Basis Dimension        Dim             ....  300
 Nuclear Repulsion      ENuc            ....   1078.4455121312 Eh

Convergence Acceleration:
 DIIS                   CNVDIIS         .... on
   Start iteration      DIISMaxIt       ....    12
   Startup error        DIISStart       ....  0.200000
   # of expansion vecs  DIISMaxEq       ....     5
   Bias factor          DIISBfac        ....   1.050
   Max. coefficient     DIISMaxC        ....  10.000
 Trust-Rad. Augm. Hess. CNVTRAH         .... auto
   Auto Start mean grad. ratio tolernc. ....  1.125000
   Auto Start start iteration           ....    20
   Auto Start num. interpolation iter.  ....    10
   Max. Number of Micro iterations      ....    16
   Max. Number of Macro iterations      .... Maxiter - #DIIS iter
   Number of Davidson start vectors     ....     2
   Converg. threshold I  (grad. norm)   ....   1.000e-05
   Converg. threshold II (energy diff.) ....   1.000e-08
   Grad. Scal. Fac. for Micro threshold ....   0.100
   Minimum threshold for Micro iter.    ....   0.010
   NR start threshold (gradient norm)   ....   0.001
   Initial trust radius                 ....   0.400
   Minimum AH scaling param. (alpha)    ....   1.000
   Maximum AH scaling param. (alpha)    .... 1000.000
   Orbital update algorithm             .... Taylor
   White noise on init. David. guess    .... on
   Maximum white noise                  ....   0.010
   Quad. conv. algorithm                .... NR
 SOSCF                  CNVSOSCF        .... on
   Start iteration      SOSCFMaxIt      ....   150
   Startup grad/error   SOSCFStart      ....  0.003300
 Level Shifting         CNVShift        .... on
   Level shift para.    LevelShift      ....    0.2500
   Turn off err/grad.   ShiftErr        ....    0.0010
 Zerner damping         CNVZerner       .... off
 Static damping         CNVDamp         .... on
   Fraction old density DampFac         ....    0.7000
   Max. Damping (<1)    DampMax         ....    0.9800
   Min. Damping (>=0)   DampMin         ....    0.0000
   Turn off err/grad.   DampErr         ....    0.1000
 Fernandez-Rico         CNVRico         .... off

SCF Procedure:
 Maximum # iterations   MaxIter         ....   125
 SCF integral mode      SCFMode         .... Direct
   Integral package                     .... SHARK and LIBINT hybrid scheme
 Reset frequency        DirectResetFreq ....    20
 Integral Threshold     Thresh          ....  2.500e-11 Eh
 Primitive CutOff       TCut            ....  2.500e-12 Eh

Convergence Tolerance:
 Convergence Check Mode ConvCheckMode   .... Total+1el-Energy
 Convergence forced     ConvForced      .... 0
 Energy Change          TolE            ....  1.000e-08 Eh
 1-El. energy change                    ....  1.000e-05 Eh
 Orbital Gradient       TolG            ....  1.000e-05
 Orbital Rotation angle TolX            ....  1.000e-05
 DIIS Error             TolErr          ....  5.000e-07


Diagonalization of the overlap matrix:
Smallest eigenvalue                        ... 1.238e-05
Time for diagonalization                   ...    0.190 sec
Threshold for overlap eigenvalues          ... 1.000e-08
Number of eigenvalues below threshold      ... 0
Time for construction of square roots      ...    0.009 sec
Total time needed                          ...    0.200 sec

Time for model grid setup =    0.336 sec

------------------------------
INITIAL GUESS: MODEL POTENTIAL
------------------------------
Loading Hartree-Fock densities                     ... done
Calculating cut-offs                               ... done
Initializing the effective Hamiltonian             ... done
Setting up the integral package (SHARK)            ... done
Starting the Coulomb interaction                   ... done (   0.3 sec)
Reading the grid                                   ... done
Mapping shells                                     ... done
Starting the XC term evaluation                    ... done (   0.3 sec)
  promolecular density results
     # of electrons  =    114.996744764
     EX              =    -96.621579722
     EC              =     -3.941197601
     EX+EC           =   -100.562777322
Transforming the Hamiltonian                       ... done (   0.0 sec)
Diagonalizing the Hamiltonian                      ... done (   0.0 sec)
Back transforming the eigenvectors                 ... done (   0.0 sec)
Now organizing SCF variables                       ... done
                      ------------------
                      INITIAL GUESS DONE (   1.1 sec)
                      ------------------
-------------------
DFT GRID GENERATION
-------------------

General Integration Accuracy     IntAcc      ... 4.388
Radial Grid Type                 RadialGrid  ... OptM3 with GC (2021)
Angular Grid (max. ang.)         AngularGrid ... 4 (Lebedev-302)
Angular grid pruning method      GridPruning ... 4 (adaptive)
Weight generation scheme         WeightScheme... Becke
Basis function cutoff            BFCut       ... 1.0000e-11
Integration weight cutoff        WCut        ... 1.0000e-14
Angular grids for H and He will be reduced by one unit
Partially contracted basis set               ... off
Rotationally invariant grid construction     ... off

Total number of grid points                  ...   141041
Total number of batches                      ...     2221
Average number of points per batch           ...       63
Average number of grid points per atom       ...     4701
Time for grid setup =    1.389 sec

--------------------
COSX GRID GENERATION
--------------------

GRIDX 1
-------
General Integration Accuracy     IntAcc      ... 3.816
Radial Grid Type                 RadialGrid  ... OptM3 with GC (2021)
Angular Grid (max. ang.)         AngularGrid ... 1 (Lebedev-50)
Angular grid pruning method      GridPruning ... 4 (adaptive)
Weight generation scheme         WeightScheme... Becke
Basis function cutoff            BFCut       ... 1.0000e-11
Integration weight cutoff        WCut        ... 1.0000e-14
Angular grids for H and He will be reduced by one unit
Partially contracted basis set               ... on
Rotationally invariant grid construction     ... off

Total number of grid points                  ...    17918
Total number of batches                      ...      295
Average number of points per batch           ...       60
Average number of grid points per atom       ...      597
UseSFitting                                  ... on

GRIDX 2
-------
General Integration Accuracy     IntAcc      ... 4.020
Radial Grid Type                 RadialGrid  ... OptM3 with GC (2021)
Angular Grid (max. ang.)         AngularGrid ... 2 (Lebedev-110)
Angular grid pruning method      GridPruning ... 4 (adaptive)
Weight generation scheme         WeightScheme... Becke
Basis function cutoff            BFCut       ... 1.0000e-11
Integration weight cutoff        WCut        ... 1.0000e-14
Angular grids for H and He will be reduced by one unit
Partially contracted basis set               ... on
Rotationally invariant grid construction     ... off

Total number of grid points                  ...    41412
Total number of batches                      ...      660
Average number of points per batch           ...       62
Average number of grid points per atom       ...     1380
UseSFitting                                  ... on

GRIDX 3
-------
General Integration Accuracy     IntAcc      ... 4.338
Radial Grid Type                 RadialGrid  ... OptM3 with GC (2021)
Angular Grid (max. ang.)         AngularGrid ... 3 (Lebedev-194)
Angular grid pruning method      GridPruning ... 4 (adaptive)
Weight generation scheme         WeightScheme... Becke
Basis function cutoff            BFCut       ... 1.0000e-11
Integration weight cutoff        WCut        ... 1.0000e-14
Angular grids for H and He will be reduced by one unit
Partially contracted basis set               ... on
Rotationally invariant grid construction     ... off

Total number of grid points                  ...    89207
Total number of batches                      ...     1410
Average number of points per batch           ...       63
Average number of grid points per atom       ...     2974
UseSFitting                                  ... on

Time for X-Grid setup             =    2.086 sec

--------------
SCF ITERATIONS
--------------
ITER       Energy         Delta-E        Max-DP      RMS-DP      [F,P]     Damp
               ***  Starting incremental Fock matrix formation  ***
  0   -761.5034327214   0.000000000000 0.58887563  0.00504355  0.2958843 0.7000
  1   -761.7806457836  -0.277213062176 0.90667003  0.00580059  0.1190968 0.7000
                               ***Turning on DIIS***
  2   -761.8768459492  -0.096200165647 2.04113295  0.01235426  0.0397633 0.0000
  3   -762.0408164031  -0.163970453931 0.78733053  0.00478994  0.0671988 0.0000
  4   -762.0735150411  -0.032698637975 0.47632431  0.00278953  0.0150817 0.0000
  5   -762.0764197361  -0.002904694993 0.24239548  0.00141156  0.0040024 0.0000
                      *** Initiating the SOSCF procedure ***
                           *** Shutting down DIIS ***
                      *** Re-Reading the Fockian *** 
                      *** Removing any level shift *** 
ITER      Energy       Delta-E        Grad      Rot      Max-DP    RMS-DP
  6   -762.07654543  -0.0001256936  0.000281  0.000281  0.117331  0.000693
               *** Restarting incremental Fock matrix formation ***
  7   -762.07656911  -0.0000236828  0.000267  0.000862  0.122504  0.000736
  8   -762.07656807   0.0000010383  0.000386  0.000612  0.032339  0.000210
  9   -762.07657452  -0.0000064466  0.000091  0.000207  0.027963  0.000163
 10   -762.07657423   0.0000002899  0.000110  0.000087  0.002018  0.000019
 11   -762.07657497  -0.0000007382  0.000027  0.000065  0.008555  0.000048
 12   -762.07657495   0.0000000143  0.000032  0.000026  0.003835  0.000024
 13   -762.07657500  -0.0000000495  0.000005  0.000016  0.003424  0.000024
 14   -762.07657500   0.0000000048  0.000011  0.000011  0.001420  0.000011
                  ***Gradient check signals convergence***
              ***Rediagonalizing the Fockian in SOSCF/NRSCF***

               *****************************************************
               *                     SUCCESS                       *
               *           SCF CONVERGED AFTER  15 CYCLES          *
               *****************************************************

Old exchange energy                            =    -19.655117435 Eh
New exchange energy                            =    -19.655092638 Eh
Exchange energy change after final integration =      0.000024797 Eh
Total energy after final integration           =   -762.076550205 Eh
Final COS-X integration done in                =    16.698 sec

----------------
TOTAL SCF ENERGY
----------------

Total Energy       :         -762.07655021 Eh          -20737.15719 eV

Components:
Nuclear Repulsion  :         1078.44551213 Eh           29345.99431 eV
Electronic Energy  :        -1840.52206234 Eh          -50083.15149 eV
One Electron Energy:        -3196.05376166 Eh          -86969.04428 eV
Two Electron Energy:         1355.53169932 Eh           36885.89278 eV
Max COSX asymmetry :            0.00001154 Eh               0.00031 eV

Virial components:
Potential Energy   :        -1519.46938838 Eh          -41346.86409 eV
Kinetic Energy     :          757.39283817 Eh           20609.70690 eV
Virial Ratio       :            2.00618399


DFT components:
N(Alpha)           :       58.000153042878 electrons
N(Beta)            :       58.000153042878 electrons
N(Total)           :      116.000306085756 electrons
E(X)               :      -78.155174030358 Eh       
E(C)               :       -4.669464262077 Eh       
E(XC)              :      -82.824638292435 Eh       
DFET-embed. en.    :        0.000000000000 Eh       

---------------
SCF CONVERGENCE
---------------

  Last Energy change         ...   -2.6256e-09  Tolerance :   1.0000e-08
  Last MAX-Density change    ...    3.5527e-15  Tolerance :   1.0000e-07
  Last RMS-Density change    ...    4.4260e-17  Tolerance :   5.0000e-09
  Last Orbital Gradient      ...    8.3930e-07  Tolerance :   1.0000e-05
  Last Orbital Rotation      ...    2.4841e-06  Tolerance :   1.0000e-05

             **** THE GBW FILE WAS UPDATED (Ne_gas.gbw) ****
             **** DENSITY Ne_gas.scfp WAS UPDATED ****
             **** ENERGY FILE WAS UPDATED (Ne_gas.en.tmp) ****
             **** THE GBW FILE WAS UPDATED (Ne_gas.gbw) ****
             **** DENSITY Ne_gas.scfp WAS UPDATED ****
----------------
ORBITAL ENERGIES
----------------

  NO   OCC          E(Eh)            E(eV) 
   0   2.0000     -19.021478      -517.6007 
   1   2.0000     -19.016984      -517.4785 
   2   2.0000     -18.927330      -515.0388 
   3   2.0000     -18.923228      -514.9272 
   4   2.0000     -14.276173      -388.4744 
   5   2.0000     -14.260987      -388.0612 
   6   2.0000     -10.192113      -277.3415 
   7   2.0000     -10.183701      -277.1126 
   8   2.0000     -10.122014      -275.4340 
   9   2.0000     -10.120975      -275.4057 
  10   2.0000     -10.117659      -275.3155 
  11   2.0000     -10.108190      -275.0578 
  12   2.0000     -10.090891      -274.5871 
  13   2.0000     -10.068034      -273.9651 
  14   2.0000     -10.037561      -273.1359 
  15   2.0000      -0.941418       -25.6173 
  16   2.0000      -0.934974       -25.4419 
  17   2.0000      -0.849969       -23.1288 
  18   2.0000      -0.845645       -23.0112 
  19   2.0000      -0.832113       -22.6430 
  20   2.0000      -0.766657       -20.8618 
  21   2.0000      -0.666490       -18.1361 
  22   2.0000      -0.634424       -17.2636 
  23   2.0000      -0.633144       -17.2287 
  24   2.0000      -0.614646       -16.7254 
  25   2.0000      -0.579874       -15.7792 
  26   2.0000      -0.526192       -14.3184 
  27   2.0000      -0.460923       -12.5423 
  28   2.0000      -0.441974       -12.0267 
  29   2.0000      -0.416719       -11.3395 
  30   2.0000      -0.391915       -10.6645 
  31   2.0000      -0.384608       -10.4657 
  32   2.0000      -0.375644       -10.2218 
  33   2.0000      -0.359693        -9.7877 
  34   2.0000      -0.356878        -9.7111 
  35   2.0000      -0.338214        -9.2033 
  36   2.0000      -0.323174        -8.7940 
  37   2.0000      -0.317247        -8.6327 
  38   2.0000      -0.313430        -8.5289 
  39   2.0000      -0.311763        -8.4835 
  40   2.0000      -0.306624        -8.3437 
  41   2.0000      -0.295902        -8.0519 
  42   2.0000      -0.291670        -7.9367 
  43   2.0000      -0.279491        -7.6053 
  44   2.0000      -0.275584        -7.4990 
  45   2.0000      -0.268375        -7.3028 
  46   2.0000      -0.260474        -7.0879 
  47   2.0000      -0.249133        -6.7793 
  48   2.0000      -0.232753        -6.3335 
  49   2.0000      -0.219501        -5.9729 
  50   2.0000      -0.191521        -5.2115 
  51   2.0000      -0.167014        -4.5447 
  52   2.0000      -0.157427        -4.2838 
  53   2.0000      -0.152723        -4.1558 
  54   2.0000      -0.140836        -3.8323 
  55   2.0000      -0.082869        -2.2550 
  56   2.0000      -0.073168        -1.9910 
  57   2.0000      -0.064083        -1.7438 
  58   0.0000       0.084794         2.3074 
  59   0.0000       0.098814         2.6889 
  60   0.0000       0.103862         2.8262 
  61   0.0000       0.109358         2.9758 
  62   0.0000       0.116224         3.1626 
  63   0.0000       0.121295         3.3006 
  64   0.0000       0.130658         3.5554 
  65   0.0000       0.134508         3.6601 
  66   0.0000       0.140665         3.8277 
  67   0.0000       0.145043         3.9468 
  68   0.0000       0.155892         4.2420 
  69   0.0000       0.161121         4.3843 
  70   0.0000       0.165200         4.4953 
  71   0.0000       0.168167         4.5761 
  72   0.0000       0.176278         4.7968 
  73   0.0000       0.183729         4.9995 
  74   0.0000       0.191108         5.2003 
  75   0.0000       0.196979         5.3601 
  76   0.0000       0.199015         5.4155 
  77   0.0000       0.200524         5.4565 
  78   0.0000       0.205267         5.5856 
  79   0.0000       0.210689         5.7331 
  80   0.0000       0.211412         5.7528 
  81   0.0000       0.224525         6.1096 
  82   0.0000       0.225301         6.1307 
  83   0.0000       0.229839         6.2542 
  84   0.0000       0.239582         6.5194 
  85   0.0000       0.247849         6.7443 
  86   0.0000       0.249738         6.7957 
  87   0.0000       0.254287         6.9195 
  88   0.0000       0.256625         6.9831 
  89   0.0000       0.261402         7.1131 
  90   0.0000       0.265366         7.2210 
  91   0.0000       0.275197         7.4885 
  92   0.0000       0.282076         7.6757 
  93   0.0000       0.282345         7.6830 
  94   0.0000       0.288192         7.8421 
  95   0.0000       0.289767         7.8850 
  96   0.0000       0.291275         7.9260 
  97   0.0000       0.296239         8.0611 
  98   0.0000       0.304643         8.2898 
  99   0.0000       0.308284         8.3888 
 100   0.0000       0.314656         8.5622 
 101   0.0000       0.318188         8.6583 
 102   0.0000       0.324170         8.8211 
 103   0.0000       0.327321         8.9068 
 104   0.0000       0.336343         9.1524 
 105   0.0000       0.345076         9.3900 
 106   0.0000       0.350637         9.5413 
 107   0.0000       0.352803         9.6003 
 108   0.0000       0.359774         9.7899 
 109   0.0000       0.362493         9.8639 
 110   0.0000       0.371134        10.0991 
 111   0.0000       0.378028        10.2867 
 112   0.0000       0.386093        10.5061 
 113   0.0000       0.391717        10.6592 
 114   0.0000       0.399519        10.8715 
 115   0.0000       0.401086        10.9141 
 116   0.0000       0.405548        11.0355 
 117   0.0000       0.408784        11.1236 
 118   0.0000       0.416257        11.3269 
 119   0.0000       0.419189        11.4067 
 120   0.0000       0.426602        11.6084 
 121   0.0000       0.427172        11.6239 
 122   0.0000       0.439787        11.9672 
 123   0.0000       0.441008        12.0004 
 124   0.0000       0.447102        12.1663 
 125   0.0000       0.448907        12.2154 
 126   0.0000       0.455222        12.3872 
 127   0.0000       0.460375        12.5274 
 128   0.0000       0.464133        12.6297 
 129   0.0000       0.470303        12.7976 
 130   0.0000       0.477414        12.9911 
 131   0.0000       0.486519        13.2388 
 132   0.0000       0.490588        13.3496 
 133   0.0000       0.493306        13.4236 
 134   0.0000       0.499165        13.5830 
 135   0.0000       0.503811        13.7094 
 136   0.0000       0.513208        13.9651 
 137   0.0000       0.514904        14.0113 
 138   0.0000       0.523011        14.2319 
 139   0.0000       0.534581        14.5467 
 140   0.0000       0.541205        14.7269 
 141   0.0000       0.545997        14.8573 
 142   0.0000       0.566818        15.4239 
 143   0.0000       0.571399        15.5486 
 144   0.0000       0.582874        15.8608 
 145   0.0000       0.604037        16.4367 
 146   0.0000       0.619416        16.8552 
 147   0.0000       0.623820        16.9750 
 148   0.0000       0.653477        17.7820 
 149   0.0000       0.698313        19.0021 
 150   0.0000       0.760091        20.6831 
 151   0.0000       0.767722        20.8908 
 152   0.0000       0.779904        21.2223 
 153   0.0000       0.787033        21.4162 
 154   0.0000       0.805152        21.9093 
 155   0.0000       0.813214        22.1287 
 156   0.0000       0.822301        22.3760 
 157   0.0000       0.830648        22.6031 
 158   0.0000       0.836799        22.7705 
 159   0.0000       0.861257        23.4360 
 160   0.0000       0.883526        24.0420 
 161   0.0000       0.899084        24.4653 
 162   0.0000       0.908585        24.7239 
 163   0.0000       0.913664        24.8620 
 164   0.0000       0.921205        25.0673 
 165   0.0000       0.936498        25.4834 
 166   0.0000       0.943245        25.6670 
 167   0.0000       0.960091        26.1254 
 168   0.0000       0.978776        26.6338 
 169   0.0000       0.992259        27.0007 
 170   0.0000       1.004765        27.3411 
 171   0.0000       1.014971        27.6188 
 172   0.0000       1.023963        27.8635 
 173   0.0000       1.039748        28.2930 
 174   0.0000       1.048006        28.5177 
 175   0.0000       1.053806        28.6755 
 176   0.0000       1.073138        29.2016 
 177   0.0000       1.078124        29.3372 
 178   0.0000       1.095305        29.8048 
 179   0.0000       1.106851        30.1189 
 180   0.0000       1.107198        30.1284 
 181   0.0000       1.127733        30.6872 
 182   0.0000       1.134271        30.8651 
 183   0.0000       1.139129        30.9973 
 184   0.0000       1.157718        31.5031 
 185   0.0000       1.172188        31.8968 
 186   0.0000       1.198040        32.6003 
 187   0.0000       1.204177        32.7673 
 188   0.0000       1.216858        33.1124 
 189   0.0000       1.225533        33.3485 
 190   0.0000       1.243665        33.8418 
 191   0.0000       1.266019        34.4501 
 192   0.0000       1.276448        34.7339 
 193   0.0000       1.278614        34.7929 
 194   0.0000       1.297735        35.3132 
 195   0.0000       1.328083        36.1390 
 196   0.0000       1.339151        36.4402 
 197   0.0000       1.357827        36.9484 
 198   0.0000       1.377416        37.4814 
 199   0.0000       1.398528        38.0559 
 200   0.0000       1.405930        38.2573 
 201   0.0000       1.422509        38.7084 
 202   0.0000       1.431734        38.9595 
 203   0.0000       1.439943        39.1828 
 204   0.0000       1.451005        39.4838 
 205   0.0000       1.462835        39.8058 
 206   0.0000       1.475089        40.1392 
 207   0.0000       1.494855        40.6771 
 208   0.0000       1.498005        40.7628 
 209   0.0000       1.509079        41.0641 
 210   0.0000       1.522316        41.4243 
 211   0.0000       1.530003        41.6335 
 212   0.0000       1.538843        41.8740 
 213   0.0000       1.553102        42.2621 
 214   0.0000       1.557358        42.3779 
 215   0.0000       1.564204        42.5642 
 216   0.0000       1.575155        42.8621 
 217   0.0000       1.586167        43.1618 
 218   0.0000       1.595751        43.4226 
 219   0.0000       1.638950        44.5981 
 220   0.0000       1.653945        45.0061 
 221   0.0000       1.660717        45.1904 
 222   0.0000       1.689633        45.9772 
 223   0.0000       1.697336        46.1869 
 224   0.0000       1.748414        47.5768 
 225   0.0000       1.781493        48.4769 
 226   0.0000       1.791175        48.7403 
 227   0.0000       1.820914        49.5496 
 228   0.0000       1.863829        50.7174 
 229   0.0000       1.871742        50.9327 
 230   0.0000       1.892575        51.4996 
 231   0.0000       1.907847        51.9152 
 232   0.0000       1.922085        52.3026 
 233   0.0000       1.928858        52.4869 
 234   0.0000       1.944908        52.9236 
 235   0.0000       1.953369        53.1539 
 236   0.0000       1.963306        53.4243 
 237   0.0000       1.978695        53.8430 
 238   0.0000       1.980794        53.9001 
 239   0.0000       1.995307        54.2951 
 240   0.0000       2.016245        54.8648 
 241   0.0000       2.029560        55.2271 
 242   0.0000       2.035975        55.4017 
 243   0.0000       2.047058        55.7033 
 244   0.0000       2.057001        55.9738 
 245   0.0000       2.073568        56.4247 
 246   0.0000       2.084309        56.7169 
 247   0.0000       2.096652        57.0528 
 248   0.0000       2.123784        57.7911 
 249   0.0000       2.130215        57.9661 
 250   0.0000       2.141822        58.2820 
 251   0.0000       2.148843        58.4730 
 252   0.0000       2.161961        58.8299 
 253   0.0000       2.174088        59.1599 
 254   0.0000       2.182413        59.3865 
 255   0.0000       2.190317        59.6016 
 256   0.0000       2.215817        60.2954 
 257   0.0000       2.237114        60.8750 
 258   0.0000       2.248725        61.1909 
 259   0.0000       2.253568        61.3227 
 260   0.0000       2.285857        62.2013 
 261   0.0000       2.294298        62.4310 
 262   0.0000       2.315650        63.0120 
 263   0.0000       2.358895        64.1888 
 264   0.0000       2.369873        64.4875 
 265   0.0000       2.379401        64.7468 
 266   0.0000       2.397629        65.2428 
 267   0.0000       2.417345        65.7793 
 268   0.0000       2.422553        65.9210 
 269   0.0000       2.443803        66.4993 
 270   0.0000       2.471270        67.2467 
 271   0.0000       2.493775        67.8591 
 272   0.0000       2.511944        68.3535 
 273   0.0000       2.554620        69.5147 
 274   0.0000       2.564591        69.7861 
 275   0.0000       2.572035        69.9886 
 276   0.0000       2.590924        70.5026 
 277   0.0000       2.624421        71.4141 
 278   0.0000       2.647805        72.0504 
 279   0.0000       2.696701        73.3810 
 280   0.0000       2.718984        73.9873 
 281   0.0000       2.746943        74.7481 
 282   0.0000       2.762593        75.1740 
 283   0.0000       2.780200        75.6531 
 284   0.0000       2.808194        76.4148 
 285   0.0000       2.817376        76.6647 
 286   0.0000       2.849266        77.5325 
 287   0.0000       2.863976        77.9327 
 288   0.0000       2.894875        78.7735 
 289   0.0000       2.908565        79.1461 
 290   0.0000       3.050016        82.9951 
 291   0.0000       3.063651        83.3662 
 292   0.0000       3.085378        83.9574 
 293   0.0000       3.190009        86.8046 
 294   0.0000       3.218658        87.5841 
 295   0.0000       3.249400        88.4207 
 296   0.0000       3.260805        88.7310 
 297   0.0000       3.321664        90.3871 
 298   0.0000       3.327682        90.5508 
 299   0.0000       3.363957        91.5379 

                    ********************************
                    * MULLIKEN POPULATION ANALYSIS *
                    ********************************

-----------------------
MULLIKEN ATOMIC CHARGES
-----------------------
   0 C :   -0.939806
   1 H :    0.299425
   2 H :    0.224723
   3 H :    0.209241
   4 C :    0.592728
   5 O :   -0.508569
   6 N :   -0.031306
   7 C :   -0.731893
   8 H :    0.222754
   9 H :    0.247649
  10 C :   -0.582675
  11 H :    0.261014
  12 H :    0.211924
  13 C :   -0.378053
  14 H :    0.231557
  15 H :    0.194114
  16 C :    0.590723
  17 N :   -0.088141
  18 O :   -0.474298
  19 C :   -0.491991
  20 H :    0.218585
  21 H :    0.185198
  22 H :    0.246347
  23 C :   -0.540052
  24 H :    0.232277
  25 H :    0.243049
  26 H :    0.179806
  27 C :    0.387082
  28 O :   -0.607572
  29 O :   -0.603838
Sum of atomic charges:   -1.0000000

--------------------------------
MULLIKEN REDUCED ORBITAL CHARGES
--------------------------------
  0 C s       :     3.669559  s :     3.669559
      pz      :     1.110786  p :     3.238855
      px      :     1.004802
      py      :     1.123267
      dz2     :     0.005502  d :     0.031392
      dxz     :     0.003677
      dyz     :     0.009631
      dx2y2   :     0.003999
      dxy     :     0.008583
  1 H s       :     0.700575  s :     0.700575
  2 H s       :     0.775277  s :     0.775277
  3 H s       :     0.790759  s :     0.790759
  4 C s       :     2.963948  s :     2.963948
      pz      :     0.793301  p :     2.331310
      px      :     0.774478
      py      :     0.763531
      dz2     :     0.019304  d :     0.112014
      dxz     :     0.018864
      dyz     :     0.016621
      dx2y2   :     0.033734
      dxy     :     0.023491
  5 O s       :     3.918276  s :     3.918276
      pz      :     1.549748  p :     4.565643
      px      :     1.419892
      py      :     1.596003
      dz2     :     0.003811  d :     0.024650
      dxz     :     0.006508
      dyz     :     0.002213
      dx2y2   :     0.005524
      dxy     :     0.006594
  6 N s       :     3.166745  s :     3.166745
      pz      :     1.462532  p :     3.827618
      px      :     1.068483
      py      :     1.296603
      dz2     :     0.006131  d :     0.036943
      dxz     :     0.006524
      dyz     :     0.005448
      dx2y2   :     0.009729
      dxy     :     0.009111
  7 C s       :     3.776894  s :     3.776894
      pz      :     1.130947  p :     2.902781
      px      :     0.876262
      py      :     0.895571
      dz2     :     0.014071  d :     0.052218
      dxz     :     0.009289
      dyz     :     0.005005
      dx2y2   :     0.011314
      dxy     :     0.012540
  8 H s       :     0.777246  s :     0.777246
  9 H s       :     0.752351  s :     0.752351
 10 C s       :     3.732492  s :     3.732492
      pz      :     0.973188  p :     2.797761
      px      :     0.821015
      py      :     1.003558
      dz2     :     0.011560  d :     0.052423
      dxz     :     0.009221
      dyz     :     0.008358
      dx2y2   :     0.006692
      dxy     :     0.016591
 11 H s       :     0.738986  s :     0.738986
 12 H s       :     0.788076  s :     0.788076
 13 C s       :     2.930625  s :     2.930625
      pz      :     0.978623  p :     3.410740
      px      :     1.397561
      py      :     1.034556
      dz2     :     0.008647  d :     0.036688
      dxz     :     0.006331
      dyz     :     0.005516
      dx2y2   :     0.009649
      dxy     :     0.006545
 14 H s       :     0.768443  s :     0.768443
 15 H s       :     0.805886  s :     0.805886
 16 C s       :     3.062885  s :     3.062885
      pz      :     0.737964  p :     2.238008
      px      :     0.765503
      py      :     0.734541
      dz2     :     0.037758  d :     0.108384
      dxz     :     0.023200
      dyz     :     0.026157
      dx2y2   :     0.012785
      dxy     :     0.008484
 17 N s       :     3.271460  s :     3.271460
      pz      :     1.097959  p :     3.779249
      px      :     1.619944
      py      :     1.061345
      dz2     :     0.009661  d :     0.037432
      dxz     :     0.006384
      dyz     :     0.011279
      dx2y2   :     0.005316
      dxy     :     0.004792
 18 O s       :     3.910432  s :     3.910432
      pz      :     1.524374  p :     4.539604
      px      :     1.466800
      py      :     1.548429
      dz2     :     0.005406  d :     0.024262
      dxz     :     0.005146
      dyz     :     0.006738
      dx2y2   :     0.002742
      dxy     :     0.004231
 19 C s       :     3.399883  s :     3.399883
      pz      :     0.914644  p :     3.043600
      px      :     1.119708
      py      :     1.009247
      dz2     :     0.006757  d :     0.048508
      dxz     :     0.014329
      dyz     :     0.011822
      dx2y2   :     0.011125
      dxy     :     0.004474
 20 H s       :     0.781415  s :     0.781415
 21 H s       :     0.814802  s :     0.814802
 22 H s       :     0.753653  s :     0.753653
 23 C s       :     3.444854  s :     3.444854
      pz      :     1.113325  p :     3.047109
      px      :     1.124779
      py      :     0.809005
      dz2     :     0.006666  d :     0.048090
      dxz     :     0.008334
      dyz     :     0.010155
      dx2y2   :     0.014005
      dxy     :     0.008929
 24 H s       :     0.767723  s :     0.767723
 25 H s       :     0.756951  s :     0.756951
 26 H s       :     0.820194  s :     0.820194
 27 C s       :     3.050489  s :     3.050489
      pz      :     0.786621  p :     2.426657
      px      :     0.925157
      py      :     0.714880
      dz2     :     0.009414  d :     0.135773
      dxz     :     0.007544
      dyz     :     0.029773
      dx2y2   :     0.049710
      dxy     :     0.039331
 28 O s       :     3.896537  s :     3.896537
      pz      :     1.587756  p :     4.690110
      px      :     1.719804
      py      :     1.382550
      dz2     :     0.002144  d :     0.020925
      dxz     :     0.001996
      dyz     :     0.005532
      dx2y2   :     0.005613
      dxy     :     0.005640
 29 O s       :     3.915858  s :     3.915858
      pz      :     1.539267  p :     4.666580
      px      :     1.721482
      py      :     1.405832
      dz2     :     0.002743  d :     0.021399
      dxz     :     0.001914
      dyz     :     0.005878
      dx2y2   :     0.005422
      dxy     :     0.005442


                     *******************************
                     * LOEWDIN POPULATION ANALYSIS *
                     *******************************

----------------------
LOEWDIN ATOMIC CHARGES
----------------------
   0 C :   -0.479914
   1 H :    0.249978
   2 H :    0.212918
   3 H :    0.203877
   4 C :    0.084026
   5 O :   -0.444976
   6 N :   -0.330626
   7 C :   -0.220113
   8 H :    0.228845
   9 H :    0.251299
  10 C :   -0.253471
  11 H :    0.248212
  12 H :    0.219730
  13 C :   -0.361736
  14 H :    0.219714
  15 H :    0.221874
  16 C :    0.091906
  17 N :   -0.343183
  18 O :   -0.414333
  19 C :   -0.365436
  20 H :    0.211850
  21 H :    0.189839
  22 H :    0.246223
  23 C :   -0.363868
  24 H :    0.213849
  25 H :    0.232748
  26 H :    0.188889
  27 C :    0.123109
  28 O :   -0.548130
  29 O :   -0.513100

-------------------------------
LOEWDIN REDUCED ORBITAL CHARGES
-------------------------------
  0 C s       :     2.991515  s :     2.991515
      pz      :     1.162632  p :     3.426855
      px      :     1.097191
      py      :     1.167032
      dz2     :     0.010517  d :     0.061544
      dxz     :     0.007351
      dyz     :     0.017633
      dx2y2   :     0.008947
      dxy     :     0.017097
  1 H s       :     0.750022  s :     0.750022
  2 H s       :     0.787082  s :     0.787082
  3 H s       :     0.796123  s :     0.796123
  4 C s       :     2.798975  s :     2.798975
      pz      :     0.861126  p :     2.858005
      px      :     1.070617
      py      :     0.926262
      dz2     :     0.041692  d :     0.258994
      dxz     :     0.040978
      dyz     :     0.042111
      dx2y2   :     0.080248
      dxy     :     0.053965
  5 O s       :     3.561559  s :     3.561559
      pz      :     1.581995  p :     4.828941
      px      :     1.590426
      py      :     1.656521
      dz2     :     0.007413  d :     0.054475
      dxz     :     0.013507
      dyz     :     0.004778
      dx2y2   :     0.013465
      dxy     :     0.015312
  6 N s       :     3.110354  s :     3.110354
      pz      :     1.491887  p :     4.123544
      px      :     1.266221
      py      :     1.365436
      dz2     :     0.012930  d :     0.096728
      dxz     :     0.017317
      dyz     :     0.015613
      dx2y2   :     0.026358
      dxy     :     0.024510
  7 C s       :     2.897638  s :     2.897638
      pz      :     1.145837  p :     3.211929
      px      :     1.020446
      py      :     1.045646
      dz2     :     0.028844  d :     0.110546
      dxz     :     0.018710
      dyz     :     0.009816
      dx2y2   :     0.026452
      dxy     :     0.026724
  8 H s       :     0.771155  s :     0.771155
  9 H s       :     0.748701  s :     0.748701
 10 C s       :     2.912750  s :     2.912750
      pz      :     1.105866  p :     3.230066
      px      :     1.007625
      py      :     1.116575
      dz2     :     0.022745  d :     0.110655
      dxz     :     0.019795
      dyz     :     0.018051
      dx2y2   :     0.014184
      dxy     :     0.035880
 11 H s       :     0.751788  s :     0.751788
 12 H s       :     0.780270  s :     0.780270
 13 C s       :     2.950201  s :     2.950201
      pz      :     1.097667  p :     3.333430
      px      :     1.119631
      py      :     1.116133
      dz2     :     0.017563  d :     0.078104
      dxz     :     0.012796
      dyz     :     0.013280
      dx2y2   :     0.021073
      dxy     :     0.013393
 14 H s       :     0.780286  s :     0.780286
 15 H s       :     0.778126  s :     0.778126
 16 C s       :     2.803181  s :     2.803181
      pz      :     0.999592  p :     2.854860
      px      :     0.796336
[...]
     46      -0.027840   0.000447   0.003664   0.000594   0.000185   0.000008
     47      -0.398811   0.004296   0.057099   0.007290   0.001652  -0.000431
     48      -0.000003   0.000356  -0.000068  -0.000056  -0.000002  -0.000155
     49       0.000284  -0.000971  -0.000173  -0.000122  -0.000539   0.000630
     50       0.000351  -0.001639  -0.000270   0.000038  -0.000089   0.000759
     51      -0.000000  -0.000007   0.000015   0.000004   0.000003  -0.000063
     52       0.000030  -0.000183   0.000011   0.000043  -0.000442  -0.000431
     53       0.000002  -0.000038   0.000044  -0.000026  -0.000859  -0.000253
     54      -0.000100  -0.000307   0.000047   0.000017  -0.000002   0.000042
     55      -0.000183   0.000437   0.000090   0.000046   0.000540  -0.000511
     56      -0.000165   0.000688   0.000116   0.000003  -0.000308   0.000128
     57      -0.002344   0.002442   0.000186  -0.000011   0.012807   0.017667
     58       0.000633   0.006675  -0.000263  -0.000220   0.047431   0.063897
     59       0.000112  -0.002847   0.000022   0.000177  -0.020641  -0.028399
     60       0.025251  -0.018083  -0.002603   0.000767  -0.095277  -0.130000
     61       0.001105   0.000482  -0.000196  -0.000008   0.003893   0.003919
     62      -0.010731   0.006263   0.001139  -0.000206   0.033168   0.045073
     63       0.008239   0.006597  -0.000912  -0.001238   0.065216   0.087210
     64      -0.004108  -0.001178   0.000502   0.000553  -0.023425  -0.033551
     65       0.008425   0.005126  -0.000848  -0.001258   0.063391   0.084595
     66      -0.002212  -0.016029   0.000854   0.000473  -0.120215  -0.163782
     67      -0.004925  -0.073973   0.002520   0.002035  -0.533279  -0.725820
     68       0.001312   0.024150  -0.000709  -0.000539   0.165023   0.224039
     69       0.001425  -0.000026  -0.000261  -0.000041   0.007508  -0.005368
     70      -0.000154  -0.000307   0.000105  -0.000002  -0.031933   0.022999
     71      -0.000212   0.000243   0.000171   0.000136  -0.064181   0.046773
     72      -0.010545   0.002572   0.001821   0.000996  -0.123317   0.088374
     73      -0.001962   0.000834   0.000424   0.000278  -0.026226   0.017953
     74       0.006006  -0.001389  -0.001140  -0.000517   0.050046  -0.036263
     75       0.000518  -0.000103   0.000026   0.000055  -0.066922   0.049358
     76       0.001618   0.000671  -0.001193  -0.000525   0.427906  -0.316192
     77       0.002779   0.000563  -0.001977  -0.000744   0.649094  -0.477810
     78      -0.006728  -0.002409   0.001119  -0.000538   0.100725  -0.071806
     79       0.001780   0.001065  -0.000237   0.000233  -0.031772   0.021682
     80      -0.005865  -0.002106   0.000954  -0.000471   0.075911  -0.054460
     81       0.001037  -0.000023   0.000389  -0.000269   0.000004  -0.000004
     82       0.002359   0.000121  -0.001260   0.000550  -0.000043  -0.000018
     83       0.000188  -0.000006   0.000130  -0.000046   0.000000  -0.000008
     84       0.000108  -0.000008   0.000327   0.000248  -0.000004   0.000005
     85      -0.000532  -0.000065   0.000594  -0.000148   0.000033   0.000013
     86      -0.000051   0.000013  -0.000206  -0.000179  -0.000003   0.000000
     87      -0.000190  -0.000018  -0.000069   0.000018   0.000009   0.000007
     88      -0.000925  -0.000049   0.000163  -0.000158   0.000025   0.000008
     89       0.000014   0.000016  -0.000049   0.000043  -0.000005  -0.000003


-----------
IR SPECTRUM
-----------

 Mode   freq       eps      Int      T**2         TX        TY        TZ
       cm**-1   L/(mol*cm) km/mol    a.u.
----------------------------------------------------------------------------
  6:     22.41   0.002598   13.13  0.036166  (-0.096600 -0.058395 -0.153049)
  7:     37.51   0.000524    2.65  0.004362  (-0.046608  0.027955 -0.037522)
  8:     50.27   0.000677    3.42  0.004202  ( 0.018066 -0.059912 -0.016904)
  9:     67.44   0.000626    3.16  0.002896  ( 0.047306  0.025538  0.002345)
 10:     78.01   0.000591    2.99  0.002363  (-0.043988  0.017637  0.010818)
 11:     95.79   0.000574    2.90  0.001869  ( 0.005765 -0.039386 -0.016854)
 12:    103.48   0.000550    2.78  0.001659  (-0.012053 -0.038017  0.008290)
 13:    121.84   0.002493   12.60  0.006386  ( 0.011106 -0.064811  0.045411)
 14:    139.54   0.000414    2.09  0.000926  (-0.008227 -0.028808  0.005337)
 15:    169.80   0.000178    0.90  0.000327  ( 0.000096  0.014705 -0.010530)
 16:    176.50   0.000077    0.39  0.000136  (-0.006474  0.009594 -0.001485)
 17:    207.23   0.000428    2.16  0.000645  ( 0.019636 -0.007314 -0.014350)
 18:    247.47   0.000585    2.95  0.000737  (-0.005632 -0.024880  0.009295)
 19:    261.69   0.002805   14.18  0.003345  (-0.056027  0.000962  0.014336)
 20:    286.53   0.001039    5.25  0.001132  (-0.029010  0.008305 -0.014881)
 21:    351.47   0.001492    7.54  0.001325  (-0.002980 -0.003505  0.036106)
 22:    368.19   0.000553    2.79  0.000469  ( 0.018214 -0.011549 -0.001873)
 23:    402.56   0.001224    6.19  0.000949  (-0.014562 -0.023792  0.013073)
 24:    421.79   0.000291    1.47  0.000215  (-0.007965  0.012039  0.002648)
 25:    449.06   0.001824    9.22  0.001267  ( 0.021548  0.025647  0.012055)
 26:    465.30   0.001371    6.93  0.000919  ( 0.002276 -0.020907  0.021841)
 27:    506.02   0.003510   17.74  0.002164  ( 0.043723 -0.011611 -0.010859)
 28:    572.70   0.002509   12.68  0.001367  ( 0.011668  0.034652 -0.005483)
 29:    594.88   0.002121   10.72  0.001113  (-0.025703 -0.017386 -0.012236)
 30:    604.90   0.001973    9.97  0.001018  (-0.028817  0.000524 -0.013680)
 31:    632.12   0.001046    5.29  0.000517  ( 0.012525  0.010756 -0.015620)
 32:    661.20   0.001397    7.06  0.000659  (-0.012593  0.004718  0.021870)
 33:    694.37   0.000748    3.78  0.000336  (-0.005965  0.006987 -0.015861)
 34:    753.77   0.001588    8.03  0.000658  (-0.003810 -0.017635  0.018223)
 35:    781.70   0.004472   22.60  0.001785  (-0.038233  0.006355 -0.016829)
 36:    838.73   0.010091   50.99  0.003754  (-0.056958  0.000802  0.022574)
 37:    928.37   0.002180   11.02  0.000733  (-0.019674 -0.009508 -0.015979)
 38:    961.96   0.003109   15.71  0.001009  (-0.017262 -0.020856 -0.016600)
 39:   1003.90   0.005396   27.27  0.001677  (-0.002954 -0.026969  0.030683)
 40:   1018.25   0.000827    4.18  0.000254  ( 0.014100 -0.000416  0.007388)
 41:   1032.27   0.005504   27.81  0.001664  (-0.011923 -0.038936 -0.002383)
 42:   1046.48   0.003586   18.12  0.001069  ( 0.020347 -0.013297 -0.021877)
 43:   1064.67   0.000500    2.53  0.000147  (-0.007868  0.002159 -0.008950)
 44:   1092.16   0.001208    6.11  0.000345  ( 0.001617  0.017270  0.006661)
 45:   1105.04   0.003187   16.11  0.000900  ( 0.009310  0.004075  0.028227)
 46:   1136.25   0.000193    0.97  0.000053  ( 0.004179 -0.005926  0.000623)
 47:   1169.54   0.005840   29.51  0.001558  ( 0.013694 -0.009638  0.035747)
 48:   1182.63   0.000297    1.50  0.000078  (-0.002654 -0.002606 -0.008040)
 49:   1218.68   0.005818   29.40  0.001490  (-0.022344 -0.003080  0.031323)
 50:   1224.88   0.000582    2.94  0.000148  (-0.010572  0.005969  0.000994)
 51:   1266.80   0.006952   35.13  0.001712  (-0.013435 -0.033861 -0.019631)
 52:   1285.87   0.003929   19.85  0.000953  (-0.014448  0.006680  0.026459)
 53:   1291.09   0.021318  107.73  0.005153  (-0.015672  0.069824  0.005627)
 54:   1311.18   0.004042   20.43  0.000962  ( 0.023501  0.015062 -0.013520)
 55:   1342.31   0.044012  222.42  0.010232  ( 0.101007 -0.005399 -0.000686)
 56:   1367.26   0.004751   24.01  0.001084  (-0.032748 -0.002998 -0.001711)
 57:   1390.17   0.007261   36.70  0.001630  ( 0.033023 -0.011123 -0.020392)
 58:   1431.06   0.002598   13.13  0.000567  (-0.019855 -0.005052  0.012114)
 59:   1442.55   0.010736   54.26  0.002323  ( 0.012029 -0.022245  0.041025)
 60:   1453.74   0.009946   50.26  0.002135  ( 0.010536 -0.038993  0.022442)
 61:   1473.46   0.022573  114.07  0.004781  (-0.013495  0.059001  0.033427)
 62:   1486.60   0.001999   10.10  0.000420  ( 0.019738 -0.002037  0.005081)
 63:   1490.80   0.002527   12.77  0.000529  ( 0.018400  0.013771 -0.000871)
 64:   1494.49   0.007408   37.43  0.001547  (-0.031451 -0.018772 -0.014326)
 65:   1509.00   0.001870    9.45  0.000387  ( 0.012636 -0.013274 -0.007136)
 66:   1516.92   0.001257    6.35  0.000259  ( 0.007631 -0.012340 -0.006929)
 67:   1520.51   0.007680   38.81  0.001576  ( 0.023460 -0.015001 -0.028299)
 68:   1527.38   0.001098    5.55  0.000224  (-0.010529 -0.000398  0.010648)
 69:   1531.93   0.006453   32.61  0.001315  ( 0.033711  0.004037  0.012721)
 70:   1545.67   0.005569   28.15  0.001124  ( 0.017150  0.027767 -0.007702)
 71:   1558.17   0.011000   55.59  0.002203  ( 0.001694 -0.032010  0.034285)
 72:   1677.02   0.067895  343.12  0.012634  ( 0.075717  0.066736  0.049471)
 73:   1685.26   0.126192  637.72  0.023367  (-0.029531 -0.147196  0.028784)
 74:   1711.49   0.080474  406.68  0.014673  (-0.013692  0.047804  0.110456)
 75:   3014.87   0.005028   25.41  0.000520  ( 0.002880 -0.021259 -0.007760)
 76:   3023.01   0.022831  115.38  0.002357  (-0.005752  0.020150 -0.043792)
 77:   3033.60   0.006605   33.38  0.000679  ( 0.007020  0.025096  0.000590)
 78:   3049.73   0.007266   36.72  0.000743  ( 0.016633 -0.012253  0.017795)
 79:   3060.15   0.015464   78.15  0.001577  ( 0.036868 -0.006483  0.013254)
 80:   3061.34   0.000726    3.67  0.000074  (-0.002656  0.002015 -0.007932)
 81:   3063.71   0.001481    7.49  0.000151  (-0.012234  0.000948 -0.000545)
 82:   3066.20   0.012505   63.19  0.001273  ( 0.016954 -0.002365 -0.031299)
 83:   3092.21   0.006374   32.21  0.000643  ( 0.017349  0.011914  0.014153)
 84:   3100.20   0.004819   24.35  0.000485  (-0.006065  0.015406  0.014525)
 85:   3128.34   0.001865    9.43  0.000186  (-0.007819  0.009243 -0.006284)
 86:   3131.93   0.002987   15.10  0.000298  (-0.005283 -0.015425 -0.005640)
 87:   3146.56   0.002472   12.49  0.000245  (-0.010209  0.001899  0.011718)
 88:   3176.18   0.001304    6.59  0.000128  ( 0.004277 -0.010479  0.000044)
 89:   3178.14   0.000431    2.18  0.000042  ( 0.005782 -0.002063  0.002154)

* The epsilon (eps) is given for a Dirac delta lineshape.
** The dipole moment derivative (T) already includes vibrational overlap.

The first frequency considered to be a vibration is 6
The total number of vibrations considered is 84


--------------------------
THERMOCHEMISTRY AT 298.15K
--------------------------

Temperature         ... 298.15 K
Pressure            ... 1.00 atm
Total Mass          ... 215.23 AMU

Throughout the following assumptions are being made:
  (1) The electronic state is orbitally nondegenerate
  (2) There are no thermally accessible electronically excited states
  (3) Hindered rotations indicated by low frequency modes are not
      treated as such but are treated as vibrations and this may
      cause some error
  (4) All equations used are the standard statistical mechanics
      equations for an ideal gas
  (5) All vibrations are strictly harmonic

freq.      22.41  E(vib)   ...       0.56 
freq.      37.51  E(vib)   ...       0.54 
freq.      50.27  E(vib)   ...       0.52 
freq.      67.44  E(vib)   ...       0.50 
freq.      78.01  E(vib)   ...       0.49 
freq.      95.79  E(vib)   ...       0.47 
freq.     103.48  E(vib)   ...       0.46 
freq.     121.84  E(vib)   ...       0.44 
freq.     139.54  E(vib)   ...       0.42 
freq.     169.80  E(vib)   ...       0.38 
freq.     176.50  E(vib)   ...       0.38 
freq.     207.23  E(vib)   ...       0.34 
freq.     247.47  E(vib)   ...       0.31 
freq.     261.69  E(vib)   ...       0.30 
freq.     286.53  E(vib)   ...       0.27 
freq.     351.47  E(vib)   ...       0.23 
freq.     368.19  E(vib)   ...       0.21 
freq.     402.56  E(vib)   ...       0.19 
freq.     421.79  E(vib)   ...       0.18 
freq.     449.06  E(vib)   ...       0.17 
freq.     465.30  E(vib)   ...       0.16 
freq.     506.02  E(vib)   ...       0.14 
freq.     572.70  E(vib)   ...       0.11 
freq.     594.88  E(vib)   ...       0.10 
freq.     604.90  E(vib)   ...       0.10 
freq.     632.12  E(vib)   ...       0.09 
freq.     661.20  E(vib)   ...       0.08 
freq.     694.37  E(vib)   ...       0.07 
freq.     753.77  E(vib)   ...       0.06 
freq.     781.70  E(vib)   ...       0.05 
freq.     838.73  E(vib)   ...       0.04 
freq.     928.37  E(vib)   ...       0.03 
freq.     961.96  E(vib)   ...       0.03 
freq.    1003.90  E(vib)   ...       0.02 
freq.    1018.25  E(vib)   ...       0.02 
freq.    1032.27  E(vib)   ...       0.02 
freq.    1046.48  E(vib)   ...       0.02 
freq.    1064.67  E(vib)   ...       0.02 
freq.    1092.16  E(vib)   ...       0.02 
freq.    1105.04  E(vib)   ...       0.02 
freq.    1136.25  E(vib)   ...       0.01 
freq.    1169.54  E(vib)   ...       0.01 
freq.    1182.63  E(vib)   ...       0.01 
freq.    1218.68  E(vib)   ...       0.01 
freq.    1224.88  E(vib)   ...       0.01 
freq.    1266.80  E(vib)   ...       0.01 
freq.    1285.87  E(vib)   ...       0.01 
freq.    1291.09  E(vib)   ...       0.01 
freq.    1311.18  E(vib)   ...       0.01 
freq.    1342.31  E(vib)   ...       0.01 
freq.    1367.26  E(vib)   ...       0.01 
freq.    1390.17  E(vib)   ...       0.00 
freq.    1431.06  E(vib)   ...       0.00 
freq.    1442.55  E(vib)   ...       0.00 
freq.    1453.74  E(vib)   ...       0.00 
freq.    1473.46  E(vib)   ...       0.00 
freq.    1486.60  E(vib)   ...       0.00 
freq.    1490.80  E(vib)   ...       0.00 
freq.    1494.49  E(vib)   ...       0.00 
freq.    1509.00  E(vib)   ...       0.00 
freq.    1516.92  E(vib)   ...       0.00 
freq.    1520.51  E(vib)   ...       0.00 
freq.    1527.38  E(vib)   ...       0.00 
freq.    1531.93  E(vib)   ...       0.00 
freq.    1545.67  E(vib)   ...       0.00 
freq.    1558.17  E(vib)   ...       0.00 
freq.    1677.02  E(vib)   ...       0.00 
freq.    1685.26  E(vib)   ...       0.00 
freq.    1711.49  E(vib)   ...       0.00 
freq.    3014.87  E(vib)   ...       0.00 
freq.    3023.01  E(vib)   ...       0.00 
freq.    3033.60  E(vib)   ...       0.00 
freq.    3049.73  E(vib)   ...       0.00 
freq.    3060.15  E(vib)   ...       0.00 
freq.    3061.34  E(vib)   ...       0.00 
freq.    3063.71  E(vib)   ...       0.00 
freq.    3066.20  E(vib)   ...       0.00 
freq.    3092.21  E(vib)   ...       0.00 
freq.    3100.20  E(vib)   ...       0.00 
freq.    3128.34  E(vib)   ...       0.00 
freq.    3131.93  E(vib)   ...       0.00 
freq.    3146.56  E(vib)   ...       0.00 
freq.    3176.18  E(vib)   ...       0.00 
freq.    3178.14  E(vib)   ...       0.00 

------------
INNER ENERGY
------------

The inner energy is: U= E(el) + E(ZPE) + E(vib) + E(rot) + E(trans)
    E(el)   - is the total energy from the electronic structure calculation
              = E(kin-el) + E(nuc-el) + E(el-el) + E(nuc-nuc)
    E(ZPE)  - the the zero temperature vibrational energy from the frequency calculation
    E(vib)  - the the finite temperature correction to E(ZPE) due to population
              of excited vibrational states
    E(rot)  - is the rotational thermal energy
    E(trans)- is the translational thermal energy

Summary of contributions to the inner energy U:
Electronic energy                ...   -762.13403141 Eh
Zero point energy                ...      0.24601085 Eh     154.37 kcal/mol
Thermal vibrational correction   ...      0.01385017 Eh       8.69 kcal/mol
Thermal rotational correction    ...      0.00141627 Eh       0.89 kcal/mol
Thermal translational correction ...      0.00141627 Eh       0.89 kcal/mol
-----------------------------------------------------------------------
Total thermal energy                   -761.87133785 Eh


Summary of corrections to the electronic energy:
(perhaps to be used in another calculation)
Total thermal correction                  0.01668271 Eh      10.47 kcal/mol
Non-thermal (ZPE) correction              0.24601085 Eh     154.37 kcal/mol
-----------------------------------------------------------------------
Total correction                          0.26269356 Eh     164.84 kcal/mol


--------
ENTHALPY
--------

The enthalpy is H = U + kB*T
                kB is Boltzmann's constant
Total free energy                 ...   -761.87133785 Eh 
Thermal Enthalpy correction       ...      0.00094421 Eh       0.59 kcal/mol
-----------------------------------------------------------------------
Total Enthalpy                    ...   -761.87039364 Eh


Note: Only C1 symmetry has been detected, increase convergence thresholds 
      if your molecule has a higher symmetry. Symmetry factor of 1.0 is   
      used for the rotational entropy correction. 
 

Note: Rotational entropy computed according to Herzberg 
Infrared and Raman Spectra, Chapter V,1, Van Nostrand Reinhold, 1945 
Point Group:  C1, Symmetry Number:   1  
Rotational constants in cm-1:     0.022444     0.015727     0.011520 

Vibrational entropy computed according to the QRRHO of S. Grimme
Chem.Eur.J. 2012 18 9955


-------
ENTROPY
-------

The entropy contributions are T*S = T*(S(el)+S(vib)+S(rot)+S(trans))
     S(el)   - electronic entropy
     S(vib)  - vibrational entropy
     S(rot)  - rotational entropy
     S(trans)- translational entropy
The entropies will be listed as multiplied by the temperature to get
units of energy

Electronic entropy                ...      0.00000000 Eh      0.00 kcal/mol
Vibrational entropy               ...      0.02522740 Eh     15.83 kcal/mol
Rotational entropy                ...      0.01537078 Eh      9.65 kcal/mol
Translational entropy             ...      0.01995686 Eh     12.52 kcal/mol
-----------------------------------------------------------------------
Final entropy term                ...      0.06055504 Eh     38.00 kcal/mol

In case the symmetry of your molecule has not been determined correctly
or in case you have a reason to use a different symmetry number we print 
out the resulting rotational entropy values for sn=1,12 :
 --------------------------------------------------------
|  sn= 1 | S(rot)=       0.01537078 Eh      9.65 kcal/mol|
|  sn= 2 | S(rot)=       0.01471632 Eh      9.23 kcal/mol|
|  sn= 3 | S(rot)=       0.01433349 Eh      8.99 kcal/mol|
|  sn= 4 | S(rot)=       0.01406187 Eh      8.82 kcal/mol|
|  sn= 5 | S(rot)=       0.01385118 Eh      8.69 kcal/mol|
|  sn= 6 | S(rot)=       0.01367904 Eh      8.58 kcal/mol|
|  sn= 7 | S(rot)=       0.01353349 Eh      8.49 kcal/mol|
|  sn= 8 | S(rot)=       0.01340741 Eh      8.41 kcal/mol|
|  sn= 9 | S(rot)=       0.01329620 Eh      8.34 kcal/mol|
|  sn=10 | S(rot)=       0.01319672 Eh      8.28 kcal/mol|
|  sn=11 | S(rot)=       0.01310673 Eh      8.22 kcal/mol|
|  sn=12 | S(rot)=       0.01302458 Eh      8.17 kcal/mol|
 --------------------------------------------------------


-------------------
GIBBS FREE ENERGY
-------------------

The Gibbs free energy is G = H - T*S

Total enthalpy                    ...   -761.87039364 Eh 
Total entropy correction          ...     -0.06055504 Eh    -38.00 kcal/mol
-----------------------------------------------------------------------
Final Gibbs free energy         ...   -761.93094868 Eh

For completeness - the Gibbs free energy minus the electronic energy
G-E(el)                           ...      0.20308272 Eh    127.44 kcal/mol


Timings for individual modules:

Sum of individual times         ...     3718.772 sec (=  61.980 min)
GTO integral calculation        ...       32.883 sec (=   0.548 min)   0.9 %
SCF iterations                  ...     1905.961 sec (=  31.766 min)  51.3 %
SCF Gradient evaluation         ...      503.563 sec (=   8.393 min)  13.5 %
Geometry relaxation             ...        1.649 sec (=   0.027 min)   0.0 %
Analytical frequency calculation...     1274.716 sec (=  21.245 min)  34.3 %
                             ****ORCA TERMINATED NORMALLY****
TOTAL RUN TIME: 0 days 1 hours 2 minutes 6 seconds 56 msec
