
                                 *****************
                                 * O   R   C   A *
                                 *****************

                                            #,                                       
                                            ###                                      
                                            ####                                     
                                            #####                                    
                                            ######                                   
                                           ########,                                 
                                     ,,################,,,,,                         
                               ,,#################################,,                 
                          ,,##########################################,,             
                       ,#########################################, ''#####,          
                    ,#############################################,,   '####,        
                  ,##################################################,,,,####,       
                ,###########''''           ''''###############################       
              ,#####''   ,,,,##########,,,,          '''####'''          '####       
            ,##' ,,,,###########################,,,                        '##       
           ' ,,###''''                  '''############,,,                           
         ,,##''                                '''############,,,,        ,,,,,,###''
      ,#''                                            '''#######################'''  
     '                                                          ''''####''''         
             ,#######,   #######,   ,#######,      ##                                
            ,#'     '#,  ##    ##  ,#'     '#,    #''#        ######   ,####,        
            ##       ##  ##   ,#'  ##            #'  '#       #        #'  '#        
            ##       ##  #######   ##           ,######,      #####,   #    #        
            '#,     ,#'  ##    ##  '#,     ,#' ,#      #,         ##   #,  ,#        
             '#######'   ##     ##  '#######'  #'      '#     #####' # '####'        



                  #######################################################
                  #                        -***-                        #
                  #          Department of theory and spectroscopy      #
                  #    Directorship and core code : Frank Neese         #
                  #        Max Planck Institute fuer Kohlenforschung    #
                  #                Kaiser Wilhelm Platz 1               #
                  #                 D-45470 Muelheim/Ruhr               #
                  #                      Germany                        #
                  #                                                     #
                  #                  All rights reserved                #
                  #                        -***-                        #
                  #######################################################


                         Program Version 5.0.4 -  RELEASE  -


 With contributions from (in alphabetic order):
   Daniel Aravena         : Magnetic Suceptibility
   Michael Atanasov       : Ab Initio Ligand Field Theory (pilot matlab implementation)
   Alexander A. Auer      : GIAO ZORA, VPT2 properties, NMR spectrum
   Ute Becker             : Parallelization
   Giovanni Bistoni       : ED, misc. LED, open-shell LED, HFLD
   Martin Brehm           : Molecular dynamics
   Dmytro Bykov           : SCF Hessian
   Vijay G. Chilkuri      : MRCI spin determinant printing, contributions to CSF-ICE
   Dipayan Datta          : RHF DLPNO-CCSD density
   Achintya Kumar Dutta   : EOM-CC, STEOM-CC
   Dmitry Ganyushin       : Spin-Orbit,Spin-Spin,Magnetic field MRCI
   Miquel Garcia          : C-PCM and meta-GGA Hessian, CC/C-PCM, Gaussian charge scheme
   Yang Guo               : DLPNO-NEVPT2, F12-NEVPT2, CIM, IAO-localization
   Andreas Hansen         : Spin unrestricted coupled pair/coupled cluster methods
   Benjamin Helmich-Paris : MC-RPA, TRAH-SCF, COSX integrals
   Lee Huntington         : MR-EOM, pCC
   Robert Izsak           : Overlap fitted RIJCOSX, COSX-SCS-MP3, EOM
   Marcus Kettner         : VPT2
   Christian Kollmar      : KDIIS, OOCD, Brueckner-CCSD(T), CCSD density, CASPT2, CASPT2-K
   Simone Kossmann        : Meta GGA functionals, TD-DFT gradient, OOMP2, MP2 Hessian
   Martin Krupicka        : Initial AUTO-CI
   Lucas Lang             : DCDCAS
   Marvin Lechner         : AUTO-CI (C++ implementation), FIC-MRCC
   Dagmar Lenk            : GEPOL surface, SMD
   Dimitrios Liakos       : Extrapolation schemes; Compound Job, initial MDCI parallelization
   Dimitrios Manganas     : Further ROCIS development; embedding schemes
   Dimitrios Pantazis     : SARC Basis sets
   Anastasios Papadopoulos: AUTO-CI, single reference methods and gradients
   Taras Petrenko         : DFT Hessian,TD-DFT gradient, ASA, ECA, R-Raman, ABS, FL, XAS/XES, NRVS
   Peter Pinski           : DLPNO-MP2, DLPNO-MP2 Gradient
   Christoph Reimann      : Effective Core Potentials
   Marius Retegan         : Local ZFS, SOC
   Christoph Riplinger    : Optimizer, TS searches, QM/MM, DLPNO-CCSD(T), (RO)-DLPNO pert. Triples
   Tobias Risthaus        : Range-separated hybrids, TD-DFT gradient, RPA, STAB
   Michael Roemelt        : Original ROCIS implementation
   Masaaki Saitow         : Open-shell DLPNO-CCSD energy and density
   Barbara Sandhoefer     : DKH picture change effects
   Avijit Sen             : IP-ROCIS
   Kantharuban Sivalingam : CASSCF convergence, NEVPT2, FIC-MRCI
   Bernardo de Souza      : ESD, SOC TD-DFT
   Georgi Stoychev        : AutoAux, RI-MP2 NMR, DLPNO-MP2 response
   Willem Van den Heuvel  : Paramagnetic NMR
   Boris Wezisla          : Elementary symmetry handling
   Frank Wennmohs         : Technical directorship


 We gratefully acknowledge several colleagues who have allowed us to
 interface, adapt or use parts of their codes:
   Stefan Grimme, W. Hujo, H. Kruse, P. Pracht,  : VdW corrections, initial TS optimization,
                  C. Bannwarth, S. Ehlert          DFT functionals, gCP, sTDA/sTD-DF
   Ed Valeev, F. Pavosevic, A. Kumar             : LibInt (2-el integral package), F12 methods
   Garnet Chan, S. Sharma, J. Yang, R. Olivares  : DMRG
   Ulf Ekstrom                                   : XCFun DFT Library
   Mihaly Kallay                                 : mrcc  (arbitrary order and MRCC methods)
   Jiri Pittner, Ondrej Demel                    : Mk-CCSD
   Frank Weinhold                                : gennbo (NPA and NBO analysis)
   Christopher J. Cramer and Donald G. Truhlar   : smd solvation model
   Lars Goerigk                                  : TD-DFT with DH, B97 family of functionals
   V. Asgeirsson, H. Jonsson                     : NEB implementation
   FAccTs GmbH                                   : IRC, NEB, NEB-TS, DLPNO-Multilevel, CI-OPT
                                                   MM, QMMM, 2- and 3-layer-ONIOM, Crystal-QMMM,
                                                   LR-CPCM, SF, NACMEs, symmetry and pop. for TD-DFT,
                                                   nearIR, NL-DFT gradient (VV10), updates on ESD,
                                                   ML-optimized integration grids
   S Lehtola, MJT Oliveira, MAL Marques          : LibXC Library
   Liviu Ungur et al                             : ANISO software


 Your calculation uses the libint2 library for the computation of 2-el integrals
 For citations please refer to: http://libint.valeyev.net

 Your ORCA version has been built with support for libXC version: 5.1.0
 For citations please refer to: https://tddft.org/programs/libxc/

 This ORCA versions uses:
   CBLAS   interface :  Fast vector & matrix operations
   LAPACKE interface :  Fast linear algebra routines
   SCALAPACK package :  Parallel linear algebra routines
   Shared memory     :  Shared parallel matrices
   BLAS/LAPACK       :  OpenBLAS 0.3.15  USE64BITINT DYNAMIC_ARCH NO_AFFINITY SkylakeX SINGLE_THREADED
        Core in use  :  SkylakeX
   Copyright (c) 2011-2014, The OpenBLAS Project




***************************************
The coordinates will be read from file: /users/fjb15167/WWenergy/structures/NfeBr.xyz
***************************************


Your calculation utilizes the atom-pairwise dispersion correction
based on tight binding partial charges (D4)
Cite in your paper:
E.Caldeweyher, C.Bannwarth, S.Grimme, J.Chem.Phys., (2017), 147, 034112.
E.Caldeweyher, S.Ehlert, A.Hansen, H.Neugebauer, S.Grimme, J.Chem.Phys., (2018), in progress.
   

================================================================================

----- Orbital basis set information -----
Your calculation utilizes the basis: 6-311G(d)
   H, Li - Ne  : R. Krishnan, J. S. Binkley, R. Seeger and J. A. Pople, J. Chem. Phys. 72, 650 (1980).
   Na - Ar     : A. D. McLean and G. S. Chandler J. Chem. Phys. 72, 5639, (1980).
   K  - Ca     : J.-P. Blaudeau, M. P. McGrath, L. A. Curtiss and L. Radom, J. Chem. Phys. 107, 5016 (1997).
   Ga - Kr     : L. A. Curtiss, M. P. McGrath, J.-P. Blandeau, N. E. Davis, R. C. Binning and L. Radom, J. Chem. Phys. 103, 6104 (1995).
   Pol./Diff.
   H, Li - Cl  : T. Clark, J. Chandrasekhar and P. v. R. Schleyer, J. Comp. Chem. 4, 294 (1983).
   H - Ne      : M. J. Frisch, J. A. Pople and J. S. Binkley, J. Chem. Phys. 80, 3265 (1984).

----- AuxJ basis set information -----
Your calculation utilizes the AutoAux generation procedure.
  G. L. Stoychev, A. A. Auer, F. Neese, J. Chem. Theory Comput. 13, 554 (2017)

----- AuxC basis set information -----
Your calculation utilizes the AutoAux generation procedure.
  G. L. Stoychev, A. A. Auer, F. Neese, J. Chem. Theory Comput. 13, 554 (2017)

----- AuxJK basis set information -----
Your calculation utilizes the AutoAux generation procedure.
  G. L. Stoychev, A. A. Auer, F. Neese, J. Chem. Theory Comput. 13, 554 (2017)

================================================================================
                                        WARNINGS
                       Please study these warnings very carefully!
================================================================================


WARNING: Geometry Optimization
  ===> : Switching off AutoStart
         For restart on a previous wavefunction, please use MOREAD

INFO   : the flag for use of the SHARK integral package has been found!

================================================================================
                                       INPUT FILE
================================================================================
NAME = NfeBr_water.inp
|  1> ! OPT FREQ B3LYP 6-311G(d) D4 AUTOAUX CPCM(water)
|  2> 
|  3> %PAL NPROCS 4 END
|  4> 
|  5> %maxcore 3375
|  6> 
|  7> *xyzfile 0 1 /users/fjb15167/WWenergy/structures/NfeBr.xyz
|  8> 
|  9>                          ****END OF INPUT****
================================================================================

                       *****************************
                       * Geometry Optimization Run *
                       *****************************

Geometry optimization settings:
Update method            Update   .... BFGS
Choice of coordinates    CoordSys .... Z-matrix Internals
Initial Hessian          InHess   .... Almoef's Model

Convergence Tolerances:
Energy Change            TolE     ....  5.0000e-06 Eh
Max. Gradient            TolMAXG  ....  3.0000e-04 Eh/bohr
RMS Gradient             TolRMSG  ....  1.0000e-04 Eh/bohr
Max. Displacement        TolMAXD  ....  4.0000e-03 bohr
RMS Displacement         TolRMSD  ....  2.0000e-03 bohr
Strict Convergence                ....  False
------------------------------------------------------------------------------
                        ORCA OPTIMIZATION COORDINATE SETUP
------------------------------------------------------------------------------

The optimization will be done in new redundant internal coordinates
Making redundant internal coordinates   ...  (new redundants) done
Evaluating the initial hessian          ...  (Almloef) done
Evaluating the coordinates              ...  done
Calculating the B-matrix                .... done
Calculating the G-matrix                .... done
Diagonalizing the G-matrix              .... done
Small eigenvalue found = 2.691e-03
Small eigenvalue found = 4.821e-03
Small eigenvalue found = 6.932e-03
Small eigenvalue found = 1.141e-02
Small eigenvalue found = 2.007e-02
Small eigenvalue found = 2.168e-02
Small eigenvalue found = 2.800e-02
The first mode is                       ....   79
The number of degrees of freedom        ....  108

    -----------------------------------------------------------------
                    Redundant Internal Coordinates


    -----------------------------------------------------------------
         Definition                    Initial Value    Approx d2E/dq
    -----------------------------------------------------------------
      1. B(H   1,C   0)                  1.0929         0.356236   
      2. B(H   2,C   0)                  1.0943         0.354463   
      3. B(H   3,C   0)                  1.0894         0.360887   
      4. B(C   4,C   0)                  1.5158         0.393545   
      5. B(O   5,C   4)                  1.2388         0.975396   
      6. B(N   6,C   4)                  1.3734         0.594794   
      7. B(C   7,N   6)                  1.4605         0.431970   
      8. B(H   8,C   7)                  1.0954         0.353079   
      9. B(H   9,C   7)                  1.0896         0.360642   
     10. B(C  10,N   6)                  1.4619         0.429661   
     11. B(H  11,C  10)                  1.0944         0.354375   
     12. B(H  12,C  10)                  1.0945         0.354192   
     13. B(C  13,C  10)                  1.5379         0.362912   
     14. B(H  14,C  13)                  1.0942         0.354553   
     15. B(H  15,C  13)                  1.0960         0.352208   
     16. B(C  16,C  13)                  1.5041         0.410878   
     17. B(C  17,C  16)                  1.4040         0.593464   
     18. B(C  18,C  16)                  1.3993         0.603914   
     19. B(C  19,C  17)                  1.3945         0.614460   
     20. B(H  20,C  17)                  1.0890         0.361457   
     21. B(C  21,C  18)                  1.3965         0.609963   
     22. B(H  22,C  18)                  1.0889         0.361585   
     23. B(C  23,C  21)                  1.3937         0.616341   
     24. B(C  23,C  19)                  1.3960         0.611180   
     25. B(H  24,C  19)                  1.0864         0.364875   
     26. B(H  25,C  21)                  1.0858         0.365748   
     27. B(C  26,C   7)                  1.5253         0.380059   
     28. B(N  27,C  26)                  1.3625         0.619140   
     29. B(O  28,C  26)                  1.2422         0.963236   
     30. B(C  29,N  27)                  1.4559         0.439208   
     31. B(H  30,C  29)                  1.0972         0.350721   
     32. B(H  31,C  29)                  1.0950         0.353496   
     33. B(H  32,C  29)                  1.0881         0.362637   
     34. B(C  33,N  27)                  1.4558         0.439480   
     35. B(H  34,C  33)                  1.0970         0.351003   
     36. B(H  35,C  33)                  1.0882         0.362485   
     37. B(H  36,C  33)                  1.0938         0.355152   
     38. B(Br 37,C  23)                  1.9079         0.313242   
     39. A(H   2,C   0,C   4)          110.8084         0.326260   
     40. A(H   1,C   0,H   3)          109.4527         0.290447   
     41. A(H   2,C   0,H   3)          108.9701         0.290219   
     42. A(H   1,C   0,H   2)          108.0242         0.289629   
     43. A(H   3,C   0,C   4)          107.1341         0.327227   
     44. A(H   1,C   0,C   4)          112.4035         0.326528   
     45. A(C   0,C   4,O   5)          121.0700         0.431118   
     46. A(C   0,C   4,N   6)          116.9358         0.394883   
     47. A(O   5,C   4,N   6)          121.9874         0.461552   
     48. A(C   7,N   6,C  10)          115.9766         0.376844   
     49. A(C   4,N   6,C  10)          124.8108         0.398455   
     50. A(C   4,N   6,C   7)          119.1338         0.398831   
     51. A(N   6,C   7,H   9)          107.9302         0.330264   
     52. A(H   8,C   7,H   9)          108.9831         0.290010   
     53. A(N   6,C   7,C  26)          111.0273         0.371284   
     54. A(H   8,C   7,C  26)          105.4203         0.324187   
     55. A(N   6,C   7,H   8)          109.5575         0.329109   
     56. A(H   9,C   7,C  26)          113.8495         0.325317   
     57. A(H  12,C  10,C  13)          108.8273         0.321908   
     58. A(H  11,C  10,C  13)          110.0092         0.321935   
     59. A(N   6,C  10,C  13)          113.5596         0.368012   
     60. A(H  11,C  10,H  12)          107.1128         0.289357   
     61. A(N   6,C  10,H  12)          106.8661         0.328989   
     62. A(N   6,C  10,H  11)          110.2095         0.329017   
     63. A(H  15,C  13,C  16)          110.4754         0.328240   
     64. A(H  14,C  13,C  16)          109.7973         0.328600   
     65. A(C  10,C  13,C  16)          110.4780         0.367494   
     66. A(H  14,C  13,H  15)          107.1137         0.289125   
     67. A(C  10,C  13,H  15)          109.9523         0.321612   
     68. A(C  10,C  13,H  14)          108.9514         0.321962   
     69. A(C  17,C  16,C  18)          118.8912         0.428640   
     70. A(C  13,C  16,C  17)          119.3554         0.400287   
     71. A(C  13,C  16,C  18)          121.6793         0.401519   
     72. A(C  16,C  17,C  19)          120.7859         0.429973   
     73. A(C  19,C  17,H  20)          119.9007         0.352598   
     74. A(C  16,C  17,H  20)          119.3124         0.350532   
     75. A(C  21,C  18,H  22)          119.1482         0.352181   
     76. A(C  16,C  18,H  22)          119.7498         0.351588   
     77. A(C  16,C  18,C  21)          121.0943         0.430754   
     78. A(C  23,C  19,H  24)          120.1891         0.352840   
     79. A(C  17,C  19,H  24)          120.7877         0.353160   
     80. A(C  17,C  19,C  23)          119.0230         0.432251   
     81. A(C  23,C  21,H  25)          120.2559         0.353486   
     82. A(C  18,C  21,H  25)          120.9547         0.352864   
     83. A(C  18,C  21,C  23)          118.7894         0.432333   
     84. A(C  19,C  23,C  21)          121.4104         0.432488   
     85. A(C  21,C  23,Br 37)          119.2406         0.409349   
     86. A(C  19,C  23,Br 37)          119.3484         0.408740   
     87. A(N  27,C  26,O  28)          122.7353         0.463884   
     88. A(C   7,C  26,O  28)          119.1178         0.427466   
     89. A(C   7,C  26,N  27)          118.1196         0.395247   
     90. A(C  29,N  27,C  33)          115.4010         0.379410   
     91. A(C  26,N  27,C  33)          118.3289         0.402879   
     92. A(C  26,N  27,C  29)          125.3210         0.402835   
     93. A(H  31,C  29,H  32)          108.9099         0.290315   
     94. A(H  30,C  29,H  32)          108.4492         0.289957   
     95. A(N  27,C  29,H  32)          111.9514         0.331476   
     96. A(H  30,C  29,H  31)          108.2290         0.288799   
     97. A(N  27,C  29,H  31)          109.1334         0.330079   
     98. A(N  27,C  29,H  30)          110.0876         0.329649   
     99. A(H  34,C  33,H  36)          108.6572         0.289046   
    100. A(N  27,C  33,H  36)          109.1897         0.330368   
    101. A(H  34,C  33,H  35)          109.3816         0.289974   
    102. A(N  27,C  33,H  35)          108.6519         0.331487   
    103. A(N  27,C  33,H  34)          110.8117         0.329726   
    104. A(H  35,C  33,H  36)          110.1436         0.290509   
    105. D(N   6,C   4,C   0,H   2)    -67.6275         0.011512   
    106. D(O   5,C   4,C   0,H   1)   -127.5771         0.011512   
    107. D(N   6,C   4,C   0,H   1)     53.3498         0.011512   
    108. D(O   5,C   4,C   0,H   2)    111.4457         0.011512   
    109. D(O   5,C   4,C   0,H   3)     -7.3097         0.011512   
    110. D(N   6,C   4,C   0,H   3)    173.6172         0.011512   
    111. D(C   7,N   6,C   4,O   5)     -5.4228         0.028472   
    112. D(C  10,N   6,C   4,C   0)     -2.9940         0.028472   
    113. D(C  10,N   6,C   4,O   5)    177.9420         0.028472   
    114. D(C   7,N   6,C   4,C   0)    173.6412         0.028472   
    115. D(C  26,C   7,N   6,C   4)    126.7246         0.015909   
    116. D(H   8,C   7,N   6,C   4)   -117.2436         0.015909   
    117. D(H   9,C   7,N   6,C  10)    178.2237         0.015909   
    118. D(H   8,C   7,N   6,C  10)     59.6835         0.015909   
    119. D(H   9,C   7,N   6,C   4)      1.2966         0.015909   
    120. D(C  26,C   7,N   6,C  10)    -56.3483         0.015909   
    121. D(C  13,C  10,N   6,C   7)     95.2003         0.015739   
    122. D(C  13,C  10,N   6,C   4)    -88.0691         0.015739   
    123. D(H  12,C  10,N   6,C   7)    -24.8055         0.015739   
    124. D(H  11,C  10,N   6,C   7)   -140.8620         0.015739   
    125. D(H  11,C  10,N   6,C   4)     35.8687         0.015739   
    126. D(H  12,C  10,N   6,C   4)    151.9252         0.015739   
    127. D(C  16,C  13,C  10,N   6)   -165.9890         0.010555   
    128. D(C  16,C  13,C  10,H  11)     69.9645         0.010555   
    129. D(H  15,C  13,C  10,H  12)   -169.2976         0.010555   
    130. D(H  15,C  13,C  10,H  11)    -52.2314         0.010555   
    131. D(H  15,C  13,C  10,N   6)     71.8151         0.010555   
    132. D(H  14,C  13,C  10,H  12)     73.5951         0.010555   
    133. D(H  14,C  13,C  10,H  11)   -169.3387         0.010555   
    134. D(C  16,C  13,C  10,H  12)    -47.1017         0.010555   
    135. D(H  14,C  13,C  10,N   6)    -45.2921         0.010555   
    136. D(C  18,C  16,C  13,H  15)     22.8222         0.012501   
    137. D(C  18,C  16,C  13,H  14)    140.7433         0.012501   
    138. D(C  18,C  16,C  13,C  10)    -99.0660         0.012501   
    139. D(C  17,C  16,C  13,H  15)   -160.3447         0.012501   
    140. D(C  17,C  16,C  13,H  14)    -42.4236         0.012501   
    141. D(C  17,C  16,C  13,C  10)     77.7671         0.012501   
    142. D(H  20,C  17,C  16,C  18)    179.5171         0.024252   
    143. D(H  20,C  17,C  16,C  13)      2.5951         0.024252   
    144. D(C  19,C  17,C  16,C  18)     -0.8418         0.024252   
    145. D(C  19,C  17,C  16,C  13)   -177.7638         0.024252   
    146. D(H  22,C  18,C  16,C  17)    179.8343         0.025160   
    147. D(H  22,C  18,C  16,C  13)     -3.3183         0.025160   
    148. D(C  21,C  18,C  16,C  17)      0.8543         0.025160   
    149. D(C  21,C  18,C  16,C  13)    177.7017         0.025160   
    150. D(H  24,C  19,C  17,H  20)      0.0364         0.026098   
    151. D(H  24,C  19,C  17,C  16)   -179.6026         0.026098   
    152. D(C  23,C  19,C  17,H  20)   -179.8249         0.026098   
    153. D(C  23,C  19,C  17,C  16)      0.5361         0.026098   
    154. D(H  25,C  21,C  18,H  22)      0.5160         0.025696   
    155. D(H  25,C  21,C  18,C  16)    179.5021         0.025696   
    156. D(C  23,C  21,C  18,H  22)   -179.5442         0.025696   
    157. D(C  23,C  21,C  18,C  16)     -0.5581         0.025696   
    158. D(Br 37,C  23,C  21,H  25)     -0.1143         0.026268   
    159. D(Br 37,C  23,C  21,C  18)    179.9455         0.026268   
    160. D(C  19,C  23,C  21,H  25)   -179.8182         0.026268   
    161. D(C  19,C  23,C  21,C  18)      0.2415         0.026268   
    162. D(Br 37,C  23,C  19,H  24)      0.2017         0.025804   
    163. D(Br 37,C  23,C  19,C  17)   -179.9362         0.025804   
    164. D(C  21,C  23,C  19,H  24)    179.9053         0.025804   
    165. D(C  21,C  23,C  19,C  17)     -0.2326         0.025804   
    166. D(N  27,C  26,C   7,H   8)    162.1720         0.010778   
    167. D(N  27,C  26,C   7,N   6)    -79.2693         0.010778   
    168. D(O  28,C  26,C   7,H   9)   -139.0723         0.010778   
    169. D(O  28,C  26,C   7,H   8)    -19.6739         0.010778   
    170. D(O  28,C  26,C   7,N   6)     98.8847         0.010778   
    171. D(N  27,C  26,C   7,H   9)     42.7737         0.010778   
    172. D(C  33,N  27,C  26,O  28)     -2.0972         0.031034   
    173. D(C  33,N  27,C  26,C   7)    175.9856         0.031034   
    174. D(C  29,N  27,C  26,O  28)   -170.4046         0.031034   
    175. D(C  29,N  27,C  26,C   7)      7.6782         0.031034   
    176. D(H  32,C  29,N  27,C  33)    178.0397         0.016449   
    177. D(H  32,C  29,N  27,C  26)    -13.3499         0.016449   
    178. D(H  31,C  29,N  27,C  33)     57.3977         0.016449   
    179. D(H  31,C  29,N  27,C  26)   -133.9919         0.016449   
    180. D(H  30,C  29,N  27,C  33)    -61.2504         0.016449   
    181. D(H  30,C  29,N  27,C  26)    107.3600         0.016449   
    182. D(H  36,C  33,N  27,C  29)    -52.1728         0.016469   
    183. D(H  36,C  33,N  27,C  26)    138.3748         0.016469   
    184. D(H  35,C  33,N  27,C  29)   -172.3268         0.016469   
    185. D(H  35,C  33,N  27,C  26)     18.2208         0.016469   
    186. D(H  34,C  33,N  27,C  29)     67.4744         0.016469   
    187. D(H  34,C  33,N  27,C  26)   -101.9781         0.016469   
    -----------------------------------------------------------------

Number of atoms                         .... 38
Number of degrees of freedom            .... 187

         *************************************************************
         *                GEOMETRY OPTIMIZATION CYCLE   1            *
         *************************************************************
---------------------------------
CARTESIAN COORDINATES (ANGSTROEM)
---------------------------------
  C      3.113000    3.180000    0.302000
  H      2.358000    2.998000    1.071000
  H      2.647000    3.762000   -0.499000
  H      3.933000    3.757000    0.728000
  C      3.706000    1.895000   -0.241000
  O      4.932000    1.721000   -0.275000
  N      2.824000    0.951000   -0.707000
  C      3.344000   -0.243000   -1.368000
  H      2.998000   -0.267000   -2.407000
  H      4.432000   -0.185000   -1.358000
  C      1.368000    1.073000   -0.658000
  H      1.070000    2.113000   -0.823000
  H      0.972000    0.488000   -1.494000
  C      0.751000    0.550000    0.650000
  H      1.206000   -0.414000    0.897000
  H      0.982000    1.236000    1.473000
  C     -0.737000    0.388000    0.502000
  C     -1.243000   -0.727000   -0.185000
  C     -1.632000    1.354000    0.975000
  C     -2.615000   -0.883000   -0.380000
  H     -0.552000   -1.479000   -0.563000
  C     -3.009000    1.214000    0.789000
  H     -1.255000    2.223000    1.512000
  C     -3.484000    0.094000    0.109000
  H     -3.007000   -1.749000   -0.906000
  H     -3.702000    1.961000    1.164000
  C      2.788000   -1.510000   -0.726000
  N      3.348000   -1.938000    0.440000
  O      1.828000   -2.088000   -1.262000
  C      4.335000   -1.204000    1.219000
  H      3.875000   -0.808000    2.133000
  H      5.142000   -1.885000    1.509000
  H      4.759000   -0.373000    0.659000
  C      2.764000   -3.095000    1.103000
  H      2.141000   -2.785000    1.951000
  H      2.152000   -3.636000    0.384000
  H      3.566000   -3.739000    1.475000
  Br    -5.363000   -0.111000   -0.151000

----------------------------
CARTESIAN COORDINATES (A.U.)
----------------------------
  NO LB      ZA    FRAG     MASS         X           Y           Z
   0 C     6.0000    0    12.011    5.882717    6.009329    0.570697
   1 H     1.0000    0     1.008    4.455974    5.665399    2.023897
   2 H     1.0000    0     1.008    5.002105    7.109150   -0.942973
   3 H     1.0000    0     1.008    7.432293    7.099701    1.375721
   4 C     6.0000    0    12.011    7.003325    3.581031   -0.455424
   5 O     8.0000    0    15.999    9.320129    3.252219   -0.519675
   6 N     7.0000    0    14.007    5.336587    1.797130   -1.336036
   7 C     6.0000    0    12.011    6.319244   -0.459203   -2.585145
   8 H     1.0000    0     1.008    5.665399   -0.504557   -4.548571
   9 H     1.0000    0     1.008    8.375266   -0.349599   -2.566248
  10 C     6.0000    0    12.011    2.585145    2.027676   -1.243440
  11 H     1.0000    0     1.008    2.022007    3.992991   -1.555245
  12 H     1.0000    0     1.008    1.836814    0.922186   -2.823251
  13 C     6.0000    0    12.011    1.419184    1.039349    1.228322
  14 H     1.0000    0     1.008    2.279010   -0.782347    1.695084
  15 H     1.0000    0     1.008    1.855711    2.335702    2.783567
  16 C     6.0000    0    12.011   -1.392728    0.733214    0.948643
  17 C     6.0000    0    12.011   -2.348930   -1.373831   -0.349599
  18 C     6.0000    0    12.011   -3.084033    2.558689    1.842483
  19 C     6.0000    0    12.011   -4.941634   -1.668628   -0.718096
  20 H     1.0000    0     1.008   -1.043129   -2.794905   -1.063916
  21 C     6.0000    0    12.011   -5.686186    2.294128    1.490994
  22 H     1.0000    0     1.008   -2.371606    4.200861    2.857266
  23 C     6.0000    0    12.011   -6.583806    0.177634    0.205980
  24 H     1.0000    0     1.008   -5.682406   -3.305131   -1.712092
  25 H     1.0000    0     1.008   -6.995766    3.705753    2.199641
  26 C     6.0000    0    12.011    5.268556   -2.853486   -1.371941
  27 N     7.0000    0    14.007    6.326803   -3.662289    0.831479
  28 O     8.0000    0    15.999    3.454419   -3.945748   -2.384834
  29 C     6.0000    0    12.011    8.191963   -2.275230    2.303576
  30 H     1.0000    0     1.008    7.322689   -1.526899    4.030786
  31 H     1.0000    0     1.008    9.716972   -3.562134    2.851597
  32 H     1.0000    0     1.008    8.993207   -0.704868    1.245330
  33 C     6.0000    0    12.011    5.223203   -5.848702    2.084368
  34 H     1.0000    0     1.008    4.045904   -5.262887    3.686856
  35 H     1.0000    0     1.008    4.066691   -6.871044    0.725655
  36 H     1.0000    0     1.008    6.738763   -7.065686    2.787346
  37 Br   35.0000    0    79.900  -10.134601   -0.209760   -0.285349

--------------------------------
INTERNAL COORDINATES (ANGSTROEM)
--------------------------------
 C      0   0   0     0.000000000000     0.00000000     0.00000000
 H      1   0   0     1.092936411691     0.00000000     0.00000000
 H      1   2   0     1.094294750056   108.02419775     0.00000000
 H      1   2   3     1.089405801343   109.45265545   118.52024246
 C      1   2   3     1.515824198250   112.40347563   237.43786826
 O      5   1   2     1.238752598383   121.07004512   232.42293999
 N      5   1   2     1.373395791460   116.93584778    53.34979849
 C      7   5   1     1.460464652089   119.13375764   173.64121198
 H      8   7   5     1.095359758253   109.55748733   242.75635820
 H      8   7   5     1.089590748859   107.93022362     1.29657983
 C      7   5   1     1.461923732621   124.81082092   357.00603334
 H     11   7   5     1.094362371429   110.20951267    35.86871493
 H     11   7   5     1.094503083595   106.86614245   151.92515781
 C     11   7   5     1.537882310192   113.55958721   271.93093446
 H     14  11   7     1.094225753672   108.95139457   314.70787119
 H     14  11   7     1.096031933841   109.95228531    71.81510137
 C     14  11   7     1.504091752520   110.47799087   194.01102817
 C     17  14  11     1.404004985746   119.35537807    77.76707876
 C     17  14  11     1.399253372338   121.67931565   260.93400469
 C     18  17  14     1.394541143172   120.78591046   182.23624462
 H     18  17  14     1.088976124623   119.31244163     2.59513766
 C     19  17  14     1.396540368196   121.09425032   177.70168845
 H     19  17  14     1.088879699508   119.74979684   356.68168596
 C     22  19  17     1.393709080117   118.78937270   359.44185367
 H     20  18  17     1.086414285620   120.78766232   180.39736638
 H     22  19  17     1.085763786466   120.95469784   179.50205367
 C      8   7   5     1.525316032827   111.02728837   126.72457197
 N     27   8   7     1.362475687856   118.11963785   280.73065820
 O     27   8   7     1.242167460530   119.11783728    98.88466875
 C     28  27   8     1.455941619709   125.32104110     7.67817802
 H     30  28  27     1.097183667396   110.08762005   107.35999687
 H     30  28  27     1.095038812098   109.13337150   226.00807317
 H     30  28  27     1.088088691238   111.95135143   346.65006211
 C     28  27   8     1.455772647085   118.32892263   175.98559846
 H     34  28  27     1.096965359526   110.81167834   258.02193576
 H     34  28  27     1.088203106042   108.65191480    18.22076762
 H     34  28  27     1.093765971312   109.18971239   138.37476357
 Br    24  22  19     1.907948112502   119.24062182   179.94548285

---------------------------
INTERNAL COORDINATES (A.U.)
---------------------------
 C      0   0   0     0.000000000000     0.00000000     0.00000000
 H      1   0   0     2.065350499887     0.00000000     0.00000000
 H      1   2   0     2.067917387394   108.02419775     0.00000000
 H      1   2   3     2.058678613243   109.45265545   118.52024246
 C      1   2   3     2.864492601863   112.40347563   237.43786826
 O      5   1   2     2.340903158627   121.07004512   232.42293999
 N      5   1   2     2.595341919339   116.93584778    53.34979849
 C      7   5   1     2.759878220720   119.13375764   173.64121198
 H      8   7   5     2.069929961216   109.55748733   242.75635820
 H      8   7   5     2.059028113398   107.93022362     1.29657983
 C      7   5   1     2.762635483333   124.81082092   357.00603334
 H     11   7   5     2.068045173270   110.20951267    35.86871493
 H     11   7   5     2.068311080728   106.86614245   151.92515781
 C     11   7   5     2.906176392464   113.55958721   271.93093446
 H     14  11   7     2.067787003124   108.95139457   314.70787119
 H     14  11   7     2.071200188992   109.95228531    71.81510137
 C     14  11   7     2.842321492553   110.47799087   194.01102817
 C     17  14  11     2.653184913720   119.35537807    77.76707876
 C     17  14  11     2.644205665685   121.67931565   260.93400469
 C     18  17  14     2.635300843081   120.78591046   182.23624462
 H     18  17  14     2.057866641917   119.31244163     2.59513766
 C     19  17  14     2.639078830855   121.09425032   177.70168845
 H     19  17  14     2.057684424856   119.74979684   356.68168596
 C     22  19  17     2.633728471780   118.78937270   359.44185367
 H     20  18  17     2.053025467802   120.78766232   180.39736638
 H     22  19  17     2.051796202549   120.95469784   179.50205367
 C      8   7   5     2.882429569723   111.02728837   126.72457197
 N     27   8   7     2.574705914175   118.11963785   280.73065820
 O     27   8   7     2.347356312870   119.11783728    98.88466875
 C     28  27   8     2.751330928227   125.32104110     7.67817802
 H     30  28  27     2.073376649989   110.08762005   107.35999687
 H     30  28  27     2.069323460879   109.13337150   226.00807317
 H     30  28  27     2.056189635857   111.95135143   346.65006211
 C     28  27   8     2.751011616244   118.32892263   175.98559846
 H     34  28  27     2.072964107903   110.81167834   258.02193576
 H     34  28  27     2.056405848502   108.65191480    18.22076762
 H     34  28  27     2.066918140382   109.18971239   138.37476357
 Br    24  22  19     3.605499410361   119.24062182   179.94548285

---------------------
BASIS SET INFORMATION
---------------------
There are 5 groups of distinct atoms

 Group   1 Type C   : 11s5p1d contracted to 4s3p1d pattern {6311/311/1}
 Group   2 Type H   : 5s contracted to 3s pattern {311}
 Group   3 Type O   : 11s5p1d contracted to 4s3p1d pattern {6311/311/1}
 Group   4 Type N   : 11s5p1d contracted to 4s3p1d pattern {6311/311/1}
 Group   5 Type Br  : 15s13p6d contracted to 8s7p3d pattern {63111111/3331111/411}

Atom   0C    basis set group =>   1
Atom   1H    basis set group =>   2
Atom   2H    basis set group =>   2
Atom   3H    basis set group =>   2
Atom   4C    basis set group =>   1
Atom   5O    basis set group =>   3
Atom   6N    basis set group =>   4
Atom   7C    basis set group =>   1
Atom   8H    basis set group =>   2
Atom   9H    basis set group =>   2
Atom  10C    basis set group =>   1
Atom  11H    basis set group =>   2
Atom  12H    basis set group =>   2
Atom  13C    basis set group =>   1
Atom  14H    basis set group =>   2
Atom  15H    basis set group =>   2
Atom  16C    basis set group =>   1
Atom  17C    basis set group =>   1
Atom  18C    basis set group =>   1
Atom  19C    basis set group =>   1
Atom  20H    basis set group =>   2
Atom  21C    basis set group =>   1
Atom  22H    basis set group =>   2
Atom  23C    basis set group =>   1
Atom  24H    basis set group =>   2
Atom  25H    basis set group =>   2
Atom  26C    basis set group =>   1
Atom  27N    basis set group =>   4
Atom  28O    basis set group =>   3
Atom  29C    basis set group =>   1
Atom  30H    basis set group =>   2
Atom  31H    basis set group =>   2
Atom  32H    basis set group =>   2
Atom  33C    basis set group =>   1
Atom  34H    basis set group =>   2
Atom  35H    basis set group =>   2
Atom  36H    basis set group =>   2
Atom  37Br   basis set group =>   5
---------------------------------
AUXILIARY/J BASIS SET INFORMATION
---------------------------------
There are 5 groups of distinct atoms

 Group   1 Type C   : 14s12p11d3f contracted to 14s12p11d3f pattern {11111111111111/111111111111/11111111111/111}
 Group   2 Type H   : 11s2p contracted to 11s2p pattern {11111111111/11}
 Group   3 Type O   : 14s12p11d3f contracted to 14s12p11d3f pattern {11111111111111/111111111111/11111111111/111}
 Group   4 Type N   : 14s12p10d3f contracted to 14s12p10d3f pattern {11111111111111/111111111111/1111111111/111}
 Group   5 Type Br  : 22s20p18d14f8g contracted to 22s20p18d14f8g pattern {1111111111111111111111/11111111111111111111/111111111111111111/11111111111111/11111111}

Atom   0C    basis set group =>   1
Atom   1H    basis set group =>   2
Atom   2H    basis set group =>   2
Atom   3H    basis set group =>   2
Atom   4C    basis set group =>   1
Atom   5O    basis set group =>   3
Atom   6N    basis set group =>   4
Atom   7C    basis set group =>   1
Atom   8H    basis set group =>   2
Atom   9H    basis set group =>   2
Atom  10C    basis set group =>   1
Atom  11H    basis set group =>   2
Atom  12H    basis set group =>   2
Atom  13C    basis set group =>   1
Atom  14H    basis set group =>   2
Atom  15H    basis set group =>   2
Atom  16C    basis set group =>   1
Atom  17C    basis set group =>   1
Atom  18C    basis set group =>   1
Atom  19C    basis set group =>   1
Atom  20H    basis set group =>   2
Atom  21C    basis set group =>   1
Atom  22H    basis set group =>   2
Atom  23C    basis set group =>   1
Atom  24H    basis set group =>   2
Atom  25H    basis set group =>   2
Atom  26C    basis set group =>   1
Atom  27N    basis set group =>   4
Atom  28O    basis set group =>   3
Atom  29C    basis set group =>   1
Atom  30H    basis set group =>   2
Atom  31H    basis set group =>   2
Atom  32H    basis set group =>   2
Atom  33C    basis set group =>   1
Atom  34H    basis set group =>   2
Atom  35H    basis set group =>   2
Atom  36H    basis set group =>   2
Atom  37Br   basis set group =>   5
---------------------------------
AUXILIARY/C BASIS SET INFORMATION
---------------------------------
There are 5 groups of distinct atoms

 Group   1 Type C   : 14s12p11d3f contracted to 14s12p11d3f pattern {11111111111111/111111111111/11111111111/111}
 Group   2 Type H   : 11s2p contracted to 11s2p pattern {11111111111/11}
 Group   3 Type O   : 14s12p11d3f contracted to 14s12p11d3f pattern {11111111111111/111111111111/11111111111/111}
 Group   4 Type N   : 14s12p10d3f contracted to 14s12p10d3f pattern {11111111111111/111111111111/1111111111/111}
 Group   5 Type Br  : 22s20p18d14f8g contracted to 22s20p18d14f8g pattern {1111111111111111111111/11111111111111111111/111111111111111111/11111111111111/11111111}

Atom   0C    basis set group =>   1
Atom   1H    basis set group =>   2
Atom   2H    basis set group =>   2
Atom   3H    basis set group =>   2
Atom   4C    basis set group =>   1
Atom   5O    basis set group =>   3
Atom   6N    basis set group =>   4
Atom   7C    basis set group =>   1
Atom   8H    basis set group =>   2
Atom   9H    basis set group =>   2
Atom  10C    basis set group =>   1
Atom  11H    basis set group =>   2
Atom  12H    basis set group =>   2
Atom  13C    basis set group =>   1
Atom  14H    basis set group =>   2
Atom  15H    basis set group =>   2
Atom  16C    basis set group =>   1
Atom  17C    basis set group =>   1
Atom  18C    basis set group =>   1
Atom  19C    basis set group =>   1
Atom  20H    basis set group =>   2
Atom  21C    basis set group =>   1
Atom  22H    basis set group =>   2
Atom  23C    basis set group =>   1
Atom  24H    basis set group =>   2
Atom  25H    basis set group =>   2
Atom  26C    basis set group =>   1
Atom  27N    basis set group =>   4
Atom  28O    basis set group =>   3
Atom  29C    basis set group =>   1
Atom  30H    basis set group =>   2
Atom  31H    basis set group =>   2
Atom  32H    basis set group =>   2
Atom  33C    basis set group =>   1
Atom  34H    basis set group =>   2
Atom  35H    basis set group =>   2
Atom  36H    basis set group =>   2
Atom  37Br   basis set group =>   5
----------------------------------
AUXILIARY/JK BASIS SET INFORMATION
----------------------------------
There are 5 groups of distinct atoms

 Group   1 Type C   : 14s12p11d3f contracted to 14s12p11d3f pattern {11111111111111/111111111111/11111111111/111}
 Group   2 Type H   : 11s2p contracted to 11s2p pattern {11111111111/11}
 Group   3 Type O   : 14s12p11d3f contracted to 14s12p11d3f pattern {11111111111111/111111111111/11111111111/111}
 Group   4 Type N   : 14s12p10d3f contracted to 14s12p10d3f pattern {11111111111111/111111111111/1111111111/111}
 Group   5 Type Br  : 22s20p18d14f8g contracted to 22s20p18d14f8g pattern {1111111111111111111111/11111111111111111111/111111111111111111/11111111111111/11111111}

Atom   0C    basis set group =>   1
Atom   1H    basis set group =>   2
Atom   2H    basis set group =>   2
Atom   3H    basis set group =>   2
Atom   4C    basis set group =>   1
Atom   5O    basis set group =>   3
Atom   6N    basis set group =>   4
Atom   7C    basis set group =>   1
Atom   8H    basis set group =>   2
Atom   9H    basis set group =>   2
Atom  10C    basis set group =>   1
Atom  11H    basis set group =>   2
Atom  12H    basis set group =>   2
Atom  13C    basis set group =>   1
Atom  14H    basis set group =>   2
Atom  15H    basis set group =>   2
Atom  16C    basis set group =>   1
Atom  17C    basis set group =>   1
Atom  18C    basis set group =>   1
Atom  19C    basis set group =>   1
Atom  20H    basis set group =>   2
Atom  21C    basis set group =>   1
Atom  22H    basis set group =>   2
Atom  23C    basis set group =>   1
Atom  24H    basis set group =>   2
Atom  25H    basis set group =>   2
Atom  26C    basis set group =>   1
Atom  27N    basis set group =>   4
Atom  28O    basis set group =>   3
Atom  29C    basis set group =>   1
Atom  30H    basis set group =>   2
Atom  31H    basis set group =>   2
Atom  32H    basis set group =>   2
Atom  33C    basis set group =>   1
Atom  34H    basis set group =>   2
Atom  35H    basis set group =>   2
Atom  36H    basis set group =>   2
Atom  37Br   basis set group =>   5


           ************************************************************
           *        Program running with 4 parallel MPI-processes     *
           *              working on a common directory               *
           ************************************************************
------------------------------------------------------------------------------
                           ORCA GTO INTEGRAL CALCULATION
                           -- RI-GTO INTEGRALS CHOSEN --
------------------------------------------------------------------------------
------------------------------------------------------------------------------
                   ___                                                        
                  /   \      - P O W E R E D   B Y -                         
                 /     \                                                     
                 |  |  |   _    _      __       _____    __    __             
                 |  |  |  | |  | |    /  \     |  _  \  |  |  /  |          
                  \  \/   | |  | |   /    \    | | | |  |  | /  /          
                 / \  \   | |__| |  /  /\  \   | |_| |  |  |/  /          
                |  |  |   |  __  | /  /__\  \  |    /   |      \           
                |  |  |   | |  | | |   __   |  |    \   |  |\   \          
                \     /   | |  | | |  |  |  |  | |\  \  |  | \   \       
                 \___/    |_|  |_| |__|  |__|  |_| \__\ |__|  \__/        
                                                                              
                      - O R C A' S   B I G   F R I E N D -                    
                                      &                                       
                       - I N T E G R A L  F E E D E R -                       
                                                                              
 v1 FN, 2020, v2 2021                                                         
------------------------------------------------------------------------------


Reading SHARK input file NfeBr_water.SHARKINP.tmp ... ok
----------------------
SHARK INTEGRAL PACKAGE
----------------------

Number of atoms                             ...     38
Number of basis functions                   ...    425
Number of shells                            ...    219
Maximum angular momentum                    ...      2
Integral batch strategy                     ... SHARK/LIBINT Hybrid
RI-J (if used) integral strategy            ... SPLIT-RIJ (Revised 2003 algorithm where possible)
Printlevel                                  ...      1
Contraction scheme used                     ... SEGMENTED contraction
Coulomb Range Separation                    ... NOT USED
Exchange Range Separation                   ... NOT USED
Finite Nucleus Model                        ... NOT USED
Auxiliary Coulomb fitting basis             ... AVAILABLE
   # of basis functions in Aux-J            ...   2923
   # of shells in Aux-J                     ...   1047
   Maximum angular momentum in Aux-J        ...      4
Auxiliary J/K fitting basis                 ... AVAILABLE
   # of basis functions in Aux-JK           ...   2923
   # of shells in Aux-JK                    ...   1047
   Maximum angular momentum in Aux-JK       ...      4
Auxiliary Correlation fitting basis         ... AVAILABLE
   # of basis functions in Aux-C            ...   2923
   # of shells in Aux-C                     ...   1047
   Maximum angular momentum in Aux-C        ...      4
Auxiliary 'external' fitting basis          ... NOT available
Integral threshold                          ...     2.500000e-11
Primitive cut-off                           ...     2.500000e-12
Primitive pair pre-selection threshold      ...     2.500000e-12

Calculating pre-screening integrals         ... done (  0.1 sec) Dimension = 219
Organizing shell pair data                  ... done (  0.1 sec)
Shell pair information
Total number of shell pairs                 ...     24090
Shell pairs after pre-screening             ...     16562
Total number of primitive shell pairs       ...     95298
Primitive shell pairs kept                  ...     40160
          la=0 lb=0:   6450 shell pairs
          la=1 lb=0:   5895 shell pairs
          la=1 lb=1:   1380 shell pairs
          la=2 lb=0:   1834 shell pairs
          la=2 lb=1:    858 shell pairs
          la=2 lb=2:    145 shell pairs

Calculating one electron integrals          ... done (  0.0 sec)
Calculating RI/J V-Matrix + Cholesky decomp.... done (  0.6 sec)
Calculating RI/JK V-Matrix + Cholesky decomp... done (  0.6 sec)
Calculating RI/C V-Matrix + Cholesky decomp.... done (  0.6 sec)
Calculating Nuclear repulsion               ... done (  0.0 sec) ENN=   1778.670967352738 Eh

SHARK setup successfully completed in   2.2 seconds

Maximum memory used throughout the entire GTOINT-calculation: 72.7 MB


           ************************************************************
           *        Program running with 4 parallel MPI-processes     *
           *              working on a common directory               *
           ************************************************************
-------------------------------------------------------------------------------
                                 ORCA SCF
-------------------------------------------------------------------------------

------------
SCF SETTINGS
------------
Hamiltonian:
 Density Functional     Method          .... DFT(GTOs)
 Exchange Functional    Exchange        .... B88
   X-Alpha parameter    XAlpha          ....  0.666667
   Becke's b parameter  XBeta           ....  0.004200
 Correlation Functional Correlation     .... LYP
 LDA part of GGA corr.  LDAOpt          .... VWN-5
 Gradients option       PostSCFGGA      .... off
 Hybrid DFT is turned on
   Fraction HF Exchange ScalHFX         ....  0.200000
   Scaling of DF-GGA-X  ScalDFX         ....  0.720000
   Scaling of DF-GGA-C  ScalDFC         ....  0.810000
   Scaling of DF-LDA-C  ScalLDAC        ....  1.000000
   Perturbative correction              ....  0.000000
   Density functional embedding theory  .... OFF
   NL short-range parameter             ....  4.800000
 RI-approximation to the Coulomb term is turned on
   Number of AuxJ basis functions       .... 2923
   RIJ-COSX (HFX calculated with COS-X)).... on


General Settings:
 Integral files         IntName         .... NfeBr_water
 Hartree-Fock type      HFTyp           .... RHF
 Total Charge           Charge          ....    0
 Multiplicity           Mult            ....    1
 Number of Electrons    NEL             ....  168
 Basis Dimension        Dim             ....  425
 Nuclear Repulsion      ENuc            ....   1778.6709673527 Eh

Convergence Acceleration:
 DIIS                   CNVDIIS         .... on
   Start iteration      DIISMaxIt       ....    12
   Startup error        DIISStart       ....  0.200000
   # of expansion vecs  DIISMaxEq       ....     5
   Bias factor          DIISBfac        ....   1.050
   Max. coefficient     DIISMaxC        ....  10.000
 Trust-Rad. Augm. Hess. CNVTRAH         .... auto
   Auto Start mean grad. ratio tolernc. ....  1.125000
   Auto Start start iteration           ....    20
   Auto Start num. interpolation iter.  ....    10
   Max. Number of Micro iterations      ....    16
   Max. Number of Macro iterations      .... Maxiter - #DIIS iter
   Number of Davidson start vectors     ....     2
   Converg. threshold I  (grad. norm)   ....   1.000e-05
   Converg. threshold II (energy diff.) ....   1.000e-08
   Grad. Scal. Fac. for Micro threshold ....   0.100
   Minimum threshold for Micro iter.    ....   0.010
   NR start threshold (gradient norm)   ....   0.001
   Initial trust radius                 ....   0.400
   Minimum AH scaling param. (alpha)    ....   1.000
   Maximum AH scaling param. (alpha)    .... 1000.000
   Orbital update algorithm             .... Taylor
   White noise on init. David. guess    .... on
   Maximum white noise                  ....   0.010
   Quad. conv. algorithm                .... NR
 SOSCF                  CNVSOSCF        .... on
   Start iteration      SOSCFMaxIt      ....   150
   Startup grad/error   SOSCFStart      ....  0.003300
 Level Shifting         CNVShift        .... on
   Level shift para.    LevelShift      ....    0.2500
   Turn off err/grad.   ShiftErr        ....    0.0010
 Zerner damping         CNVZerner       .... off
 Static damping         CNVDamp         .... on
   Fraction old density DampFac         ....    0.7000
   Max. Damping (<1)    DampMax         ....    0.9800
   Min. Damping (>=0)   DampMin         ....    0.0000
   Turn off err/grad.   DampErr         ....    0.1000
 Fernandez-Rico         CNVRico         .... off

SCF Procedure:
 Maximum # iterations   MaxIter         ....   125
 SCF integral mode      SCFMode         .... Direct
   Integral package                     .... SHARK and LIBINT hybrid scheme
 Reset frequency        DirectResetFreq ....    20
 Integral Threshold     Thresh          ....  2.500e-11 Eh
 Primitive CutOff       TCut            ....  2.500e-12 Eh

Convergence Tolerance:
 Convergence Check Mode ConvCheckMode   .... Total+1el-Energy
 Convergence forced     ConvForced      .... 0
 Energy Change          TolE            ....  1.000e-08 Eh
 1-El. energy change                    ....  1.000e-05 Eh
 Orbital Gradient       TolG            ....  1.000e-05
 Orbital Rotation angle TolX            ....  1.000e-05
 DIIS Error             TolErr          ....  5.000e-07


Diagonalization of the overlap matrix:
Smallest eigenvalue                        ... 1.710e-04
Time for diagonalization                   ...    0.033 sec
Threshold for overlap eigenvalues          ... 1.000e-08
Number of eigenvalues below threshold      ... 0
Time for construction of square roots      ...    0.016 sec
Total time needed                          ...    0.050 sec

Time for model grid setup =    0.461 sec

------------------------------
INITIAL GUESS: MODEL POTENTIAL
------------------------------
Loading Hartree-Fock densities                     ... done
Calculating cut-offs                               ... done
Initializing the effective Hamiltonian             ... done
Setting up the integral package (SHARK)            ... done
Starting the Coulomb interaction                   ... done (   0.5 sec)
Reading the grid                                   ... done
Mapping shells                                     ... done
Starting the XC term evaluation                    ... done (   0.3 sec)
  promolecular density results
     # of electrons  =    167.993790996
     EX              =   -196.907908832
     EC              =     -6.196876384
     EX+EC           =   -203.104785216
Transforming the Hamiltonian                       ... done (   0.0 sec)
Diagonalizing the Hamiltonian                      ... done (   0.0 sec)
Back transforming the eigenvectors                 ... done (   0.0 sec)
Now organizing SCF variables                       ... done
                      ------------------
                      INITIAL GUESS DONE (   1.3 sec)
                      ------------------
-------------------
DFT GRID GENERATION
-------------------

General Integration Accuracy     IntAcc      ... 4.388
Radial Grid Type                 RadialGrid  ... OptM3 with GC (2021)
Angular Grid (max. ang.)         AngularGrid ... 4 (Lebedev-302)
Angular grid pruning method      GridPruning ... 4 (adaptive)
Weight generation scheme         WeightScheme... Becke
Basis function cutoff            BFCut       ... 1.0000e-11
Integration weight cutoff        WCut        ... 1.0000e-14
Angular grids for H and He will be reduced by one unit
Partially contracted basis set               ... off
Rotationally invariant grid construction     ... off

Total number of grid points                  ...   178947
Total number of batches                      ...     2815
Average number of points per batch           ...       63
Average number of grid points per atom       ...     4709
Time for grid setup =    2.523 sec

--------------------
COSX GRID GENERATION
--------------------

GRIDX 1
-------
General Integration Accuracy     IntAcc      ... 3.816
Radial Grid Type                 RadialGrid  ... OptM3 with GC (2021)
Angular Grid (max. ang.)         AngularGrid ... 1 (Lebedev-50)
Angular grid pruning method      GridPruning ... 4 (adaptive)
Weight generation scheme         WeightScheme... Becke
Basis function cutoff            BFCut       ... 1.0000e-11
Integration weight cutoff        WCut        ... 1.0000e-14
Angular grids for H and He will be reduced by one unit
Partially contracted basis set               ... on
Rotationally invariant grid construction     ... off

Total number of grid points                  ...    22541
Total number of batches                      ...      373
Average number of points per batch           ...       60
Average number of grid points per atom       ...      593
UseSFitting                                  ... on

GRIDX 2
-------
General Integration Accuracy     IntAcc      ... 4.020
Radial Grid Type                 RadialGrid  ... OptM3 with GC (2021)
Angular Grid (max. ang.)         AngularGrid ... 2 (Lebedev-110)
Angular grid pruning method      GridPruning ... 4 (adaptive)
Weight generation scheme         WeightScheme... Becke
Basis function cutoff            BFCut       ... 1.0000e-11
Integration weight cutoff        WCut        ... 1.0000e-14
Angular grids for H and He will be reduced by one unit
Partially contracted basis set               ... on
Rotationally invariant grid construction     ... off

Total number of grid points                  ...    48104
Total number of batches                      ...      769
Average number of points per batch           ...       62
Average number of grid points per atom       ...     1266
UseSFitting                                  ... on

GRIDX 3
-------
General Integration Accuracy     IntAcc      ... 4.338
Radial Grid Type                 RadialGrid  ... OptM3 with GC (2021)
Angular Grid (max. ang.)         AngularGrid ... 3 (Lebedev-194)
Angular grid pruning method      GridPruning ... 4 (adaptive)
Weight generation scheme         WeightScheme... Becke
Basis function cutoff            BFCut       ... 1.0000e-11
Integration weight cutoff        WCut        ... 1.0000e-14
Angular grids for H and He will be reduced by one unit
Partially contracted basis set               ... on
Rotationally invariant grid construction     ... off

Total number of grid points                  ...   105141
Total number of batches                      ...     1663
Average number of points per batch           ...       63
Average number of grid points per atom       ...     2767
UseSFitting                                  ... on

Time for X-Grid setup             =    2.246 sec


--------------------
CPCM SOLVATION MODEL
--------------------
CPCM parameters:
  Epsilon                                         ...      80.4000
  Refrac                                          ...       1.3300
  Rsolv                                           ...       1.3000
  Surface type                                    ... GAUSSIAN VDW
  Epsilon function type                           ...         CPCM
Radii:
 Radius for C  used is    3.8550 Bohr (=   2.0400 Ang.)
 Radius for H  used is    2.4944 Bohr (=   1.3200 Ang.)
 Radius for O  used is    3.4469 Bohr (=   1.8240 Ang.)
 Radius for N  used is    3.5149 Bohr (=   1.8600 Ang.)
 Radius for Br used is    4.1952 Bohr (=   2.2200 Ang.)
Calculating surface                               ...        done! (  0.0s)
GEPOL surface points                              ...         2006
GEPOL Volume                                      ...    2327.2022
GEPOL Surface-area                                ...    1183.1436
Calculating surface distance matrix               ...        done! (  0.0s)
Performing Cholesky decomposition & store         ...        done! (  0.2s)
Overall time for CPCM initialization              ...                 0.2s
--------------
SCF ITERATIONS
--------------
ITER       Energy         Delta-E        Max-DP      RMS-DP      [F,P]     Damp
               ***  Starting incremental Fock matrix formation  ***
  0  -3378.0913586099   0.000000000000 0.07956375  0.00120122  0.3415318 0.7000
  1  -3378.3412606115  -0.249902001640 0.04892426  0.00079353  0.1328616 0.7000
                               ***Turning on DIIS***
  2  -3378.4384519091  -0.097191297598 0.06264319  0.00120286  0.0534639 0.0000
  3  -3378.5922887065  -0.153836797401 0.03365945  0.00057495  0.0639629 0.0000
  4  -3378.6255709645  -0.033282258010 0.01004421  0.00017004  0.0161648 0.0000
  5  -3378.6275896977  -0.002018733182 0.00343484  0.00005735  0.0086794 0.0000
                      *** Initiating the SOSCF procedure ***
                           *** Shutting down DIIS ***
                      *** Re-Reading the Fockian *** 
                      *** Removing any level shift *** 
ITER      Energy       Delta-E        Grad      Rot      Max-DP    RMS-DP
  6  -3378.62777993  -0.0001902310  0.000295  0.000295  0.001027  0.000026
               *** Restarting incremental Fock matrix formation ***
  7  -3378.62781460  -0.0000346740  0.000315  0.001260  0.001426  0.000015
  8  -3378.62780589   0.0000087162  0.000597  0.000879  0.000914  0.000009
  9  -3378.62781958  -0.0000136903  0.000069  0.000190  0.000220  0.000003
 10  -3378.62781910   0.0000004806  0.000143  0.000129  0.000145  0.000002
 11  -3378.62781969  -0.0000005971  0.000012  0.000008  0.000037  0.000000
 12  -3378.62781968   0.0000000098  0.000012  0.000004  0.000022  0.000000
                  ***Gradient check signals convergence***
              ***Rediagonalizing the Fockian in SOSCF/NRSCF***

               *****************************************************
               *                     SUCCESS                       *
               *           SCF CONVERGED AFTER  13 CYCLES          *
               *****************************************************

Old exchange energy                            =    -39.737422869 Eh
New exchange energy                            =    -39.737426315 Eh
Exchange energy change after final integration =     -0.000003445 Eh
Total energy after final integration           =  -3378.627823129 Eh
Final COS-X integration done in                =    22.795 sec

----------------
TOTAL SCF ENERGY
----------------

Total Energy       :        -3378.62782313 Eh          -91937.13706 eV

Components:
Nuclear Repulsion  :         1778.67096735 Eh           48400.09764 eV
Electronic Energy  :        -5157.29879048 Eh         -140337.23470 eV
One Electron Energy:        -8212.48689182 Eh         -223473.12948 eV
Two Electron Energy:         3055.18810134 Eh           83135.89478 eV
Max COSX asymmetry :            0.00000282 Eh               0.00008 eV
CPCM Dielectric    :           -0.02360929 Eh              -0.64244 eV

Virial components:
Potential Energy   :        -6751.61629358 Eh         -183720.81953 eV
Kinetic Energy     :         3372.98847045 Eh           91783.68247 eV
Virial Ratio       :            2.00167192


DFT components:
N(Alpha)           :       83.999836003683 electrons
N(Beta)            :       83.999836003683 electrons
N(Total)           :      167.999672007366 electrons
E(X)               :     -158.039431916387 Eh       
E(C)               :       -7.279377451212 Eh       
E(XC)              :     -165.318809367599 Eh       
DFET-embed. en.    :        0.000000000000 Eh       
CPCM Solvation Model Properties:
Surface-charge          :           -0.03082321
Charge-correction       :           -0.00007726 Eh              -0.00210 eV
Free-energy (cav+disp)  :  This term is not implemented in the current solvation scheme

---------------
SCF CONVERGENCE
---------------

  Last Energy change         ...    3.3288e-10  Tolerance :   1.0000e-08
  Last MAX-Density change    ...    2.4425e-15  Tolerance :   1.0000e-07
  Last RMS-Density change    ...    2.8875e-17  Tolerance :   5.0000e-09
  Last Orbital Gradient      ...    5.8760e-07  Tolerance :   1.0000e-05
  Last Orbital Rotation      ...    1.1824e-06  Tolerance :   1.0000e-05

             **** THE GBW FILE WAS UPDATED (NfeBr_water.gbw) ****
             **** DENSITY NfeBr_water.scfp WAS UPDATED ****
             **** ENERGY FILE WAS UPDATED (NfeBr_water.en.tmp) ****
             **** THE GBW FILE WAS UPDATED (NfeBr_water.gbw) ****
             **** DENSITY NfeBr_water.scfp WAS UPDATED ****
----------------
ORBITAL ENERGIES
----------------

  NO   OCC          E(Eh)            E(eV) 
   0   2.0000    -482.830234    -13138.4786 
   1   2.0000     -62.483364     -1700.2588 
   2   2.0000     -56.303568     -1532.0980 
   3   2.0000     -56.299882     -1531.9977 
   4   2.0000     -56.299744     -1531.9939 
   5   2.0000     -19.086778      -519.3776 
   6   2.0000     -19.085742      -519.3494 
   7   2.0000     -14.346863      -390.3980 
   8   2.0000     -14.345944      -390.3730 
   9   2.0000     -10.276002      -279.6242 
  10   2.0000     -10.272167      -279.5199 
  11   2.0000     -10.229375      -278.3554 
  12   2.0000     -10.206236      -277.7258 
  13   2.0000     -10.206080      -277.7215 
  14   2.0000     -10.191745      -277.3315 
  15   2.0000     -10.188184      -277.2346 
  16   2.0000     -10.186215      -277.1810 
  17   2.0000     -10.184622      -277.1376 
  18   2.0000     -10.184506      -277.1345 
  19   2.0000     -10.179589      -277.0007 
  20   2.0000     -10.177685      -276.9489 
  21   2.0000     -10.171726      -276.7867 
  22   2.0000     -10.166533      -276.6454 
  23   2.0000      -8.693175      -236.5533 
  24   2.0000      -6.524282      -177.5347 
  25   2.0000      -6.511913      -177.1982 
  26   2.0000      -6.511585      -177.1892 
  27   2.0000      -2.635330       -71.7110 
  28   2.0000      -2.631785       -71.6145 
  29   2.0000      -2.631553       -71.6082 
  30   2.0000      -2.621718       -71.3406 
  31   2.0000      -2.621710       -71.3404 
  32   2.0000      -1.041667       -28.3452 
  33   2.0000      -1.034655       -28.1544 
  34   2.0000      -0.942507       -25.6469 
  35   2.0000      -0.935121       -25.4459 
  36   2.0000      -0.877941       -23.8900 
  37   2.0000      -0.820280       -22.3210 
  38   2.0000      -0.777430       -21.1550 
  39   2.0000      -0.763106       -20.7652 
  40   2.0000      -0.757259       -20.6061 
  41   2.0000      -0.727328       -19.7916 
  42   2.0000      -0.716794       -19.5049 
  43   2.0000      -0.708841       -19.2885 
  44   2.0000      -0.675818       -18.3900 
  45   2.0000      -0.647146       -17.6097 
  46   2.0000      -0.620690       -16.8898 
  47   2.0000      -0.583740       -15.8844 
  48   2.0000      -0.557666       -15.1749 
  49   2.0000      -0.544109       -14.8060 
  50   2.0000      -0.520818       -14.1722 
  51   2.0000      -0.506732       -13.7889 
  52   2.0000      -0.493407       -13.4263 
  53   2.0000      -0.486400       -13.2356 
  54   2.0000      -0.475889       -12.9496 
  55   2.0000      -0.470968       -12.8157 
  56   2.0000      -0.466255       -12.6874 
  57   2.0000      -0.458959       -12.4889 
  58   2.0000      -0.451788       -12.2938 
  59   2.0000      -0.434486       -11.8230 
  60   2.0000      -0.423454       -11.5228 
  61   2.0000      -0.421203       -11.4615 
  62   2.0000      -0.414030       -11.2663 
  63   2.0000      -0.410264       -11.1638 
  64   2.0000      -0.401812       -10.9339 
  65   2.0000      -0.400757       -10.9051 
  66   2.0000      -0.399871       -10.8810 
  67   2.0000      -0.396918       -10.8007 
  68   2.0000      -0.388778       -10.5792 
  69   2.0000      -0.381713       -10.3869 
  70   2.0000      -0.377672       -10.2770 
  71   2.0000      -0.372741       -10.1428 
  72   2.0000      -0.364268        -9.9122 
  73   2.0000      -0.356045        -9.6885 
  74   2.0000      -0.347685        -9.4610 
  75   2.0000      -0.340108        -9.2548 
  76   2.0000      -0.314341        -8.5537 
  77   2.0000      -0.295222        -8.0334 
  78   2.0000      -0.270057        -7.3486 
  79   2.0000      -0.265142        -7.2149 
  80   2.0000      -0.263270        -7.1639 
  81   2.0000      -0.250561        -6.8181 
  82   2.0000      -0.246579        -6.7098 
  83   2.0000      -0.237372        -6.4592 
  84   0.0000      -0.020849        -0.5673 
  85   0.0000      -0.017787        -0.4840 
  86   0.0000      -0.004311        -0.1173 
  87   0.0000       0.002865         0.0779 
  88   0.0000       0.016805         0.4573 
  89   0.0000       0.046560         1.2670 
  90   0.0000       0.057548         1.5660 
  91   0.0000       0.073870         2.0101 
  92   0.0000       0.077194         2.1006 
  93   0.0000       0.090966         2.4753 
  94   0.0000       0.096560         2.6275 
  95   0.0000       0.099714         2.7133 
  96   0.0000       0.102766         2.7964 
  97   0.0000       0.111667         3.0386 
  98   0.0000       0.115159         3.1336 
  99   0.0000       0.120764         3.2862 
 100   0.0000       0.122043         3.3210 
 101   0.0000       0.134657         3.6642 
 102   0.0000       0.141000         3.8368 
 103   0.0000       0.146019         3.9734 
 104   0.0000       0.149238         4.0610 
 105   0.0000       0.156541         4.2597 
 106   0.0000       0.162341         4.4175 
 107   0.0000       0.169929         4.6240 
 108   0.0000       0.180842         4.9210 
 109   0.0000       0.181943         4.9509 
 110   0.0000       0.187106         5.0914 
 111   0.0000       0.200055         5.4438 
 112   0.0000       0.204126         5.5546 
 113   0.0000       0.212149         5.7729 
 114   0.0000       0.228587         6.2202 
 115   0.0000       0.233172         6.3449 
 116   0.0000       0.242165         6.5896 
 117   0.0000       0.245630         6.6839 
 118   0.0000       0.255730         6.9588 
 119   0.0000       0.268766         7.3135 
 120   0.0000       0.277765         7.5584 
 121   0.0000       0.284101         7.7308 
 122   0.0000       0.287314         7.8182 
 123   0.0000       0.289594         7.8803 
 124   0.0000       0.293418         7.9843 
 125   0.0000       0.304127         8.2757 
 126   0.0000       0.317962         8.6522 
 127   0.0000       0.322542         8.7768 
 128   0.0000       0.325705         8.8629 
 129   0.0000       0.339227         9.2308 
 130   0.0000       0.343165         9.3380 
 131   0.0000       0.349894         9.5211 
 132   0.0000       0.358108         9.7446 
 133   0.0000       0.368377        10.0241 
 134   0.0000       0.379963        10.3393 
 135   0.0000       0.388888        10.5822 
 136   0.0000       0.392202        10.6723 
 137   0.0000       0.397434        10.8147 
 138   0.0000       0.401392        10.9224 
 139   0.0000       0.410905        11.1813 
 140   0.0000       0.416777        11.3411 
 141   0.0000       0.425589        11.5809 
 142   0.0000       0.428889        11.6707 
 143   0.0000       0.435163        11.8414 
 144   0.0000       0.438034        11.9195 
 145   0.0000       0.442662        12.0454 
 146   0.0000       0.446707        12.1555 
 147   0.0000       0.450376        12.2553 
 148   0.0000       0.473480        12.8840 
 149   0.0000       0.480000        13.0615 
 150   0.0000       0.487693        13.2708 
 151   0.0000       0.495072        13.4716 
 152   0.0000       0.501977        13.6595 
 153   0.0000       0.507074        13.7982 
 154   0.0000       0.520405        14.1609 
 155   0.0000       0.528547        14.3825 
 156   0.0000       0.532976        14.5030 
 157   0.0000       0.541320        14.7301 
 158   0.0000       0.551522        15.0077 
 159   0.0000       0.555205        15.1079 
 160   0.0000       0.567580        15.4446 
 161   0.0000       0.568753        15.4766 
 162   0.0000       0.571717        15.5572 
 163   0.0000       0.574181        15.6243 
 164   0.0000       0.578314        15.7367 
 165   0.0000       0.584200        15.8969 
 166   0.0000       0.590722        16.0744 
 167   0.0000       0.596021        16.2185 
 168   0.0000       0.598591        16.2885 
 169   0.0000       0.604354        16.4453 
 170   0.0000       0.611124        16.6295 
 171   0.0000       0.611874        16.6499 
 172   0.0000       0.616369        16.7722 
 173   0.0000       0.619140        16.8477 
 174   0.0000       0.623106        16.9556 
 175   0.0000       0.626826        17.0568 
 176   0.0000       0.633512        17.2387 
 177   0.0000       0.641276        17.4500 
 178   0.0000       0.646404        17.5895 
 179   0.0000       0.656240        17.8572 
 180   0.0000       0.659593        17.9484 
 181   0.0000       0.669764        18.2252 
 182   0.0000       0.674666        18.3586 
 183   0.0000       0.680978        18.5303 
 184   0.0000       0.687009        18.6945 
 185   0.0000       0.688781        18.7427 
 186   0.0000       0.704573        19.1724 
 187   0.0000       0.716128        19.4868 
 188   0.0000       0.732326        19.9276 
 189   0.0000       0.740559        20.1516 
 190   0.0000       0.757233        20.6054 
 191   0.0000       0.763695        20.7812 
 192   0.0000       0.776472        21.1289 
 193   0.0000       0.779000        21.1977 
 194   0.0000       0.797196        21.6928 
 195   0.0000       0.804082        21.8802 
 196   0.0000       0.815696        22.1962 
 197   0.0000       0.824225        22.4283 
 198   0.0000       0.837016        22.7764 
 199   0.0000       0.846021        23.0214 
 200   0.0000       0.847905        23.0727 
 201   0.0000       0.872016        23.7288 
 202   0.0000       0.889865        24.2145 
 203   0.0000       0.897846        24.4316 
 204   0.0000       0.923305        25.1244 
 205   0.0000       0.935859        25.4660 
 206   0.0000       0.943643        25.6778 
 207   0.0000       0.947785        25.7905 
 208   0.0000       0.963104        26.2074 
 209   0.0000       0.974104        26.5067 
 210   0.0000       0.992410        27.0049 
 211   0.0000       0.993452        27.0332 
 212   0.0000       1.013943        27.5908 
 213   0.0000       1.017948        27.6998 
 214   0.0000       1.044138        28.4124 
 215   0.0000       1.055771        28.7290 
 216   0.0000       1.070459        29.1287 
 217   0.0000       1.078791        29.3554 
 218   0.0000       1.080498        29.4018 
 219   0.0000       1.106231        30.1021 
 220   0.0000       1.114189        30.3186 
 221   0.0000       1.136800        30.9339 
 222   0.0000       1.147547        31.2263 
 223   0.0000       1.162927        31.6449 
 224   0.0000       1.172448        31.9039 
 225   0.0000       1.194057        32.4920 
 226   0.0000       1.202406        32.7191 
 227   0.0000       1.216597        33.1053 
 228   0.0000       1.223981        33.3062 
 229   0.0000       1.241913        33.7942 
 230   0.0000       1.271387        34.5962 
 231   0.0000       1.275224        34.7006 
 232   0.0000       1.283893        34.9365 
 233   0.0000       1.290264        35.1099 
 234   0.0000       1.315643        35.8005 
 235   0.0000       1.334602        36.3164 
 236   0.0000       1.391433        37.8628 
 237   0.0000       1.419800        38.6347 
 238   0.0000       1.436948        39.1014 
 239   0.0000       1.443551        39.2810 
 240   0.0000       1.459591        39.7175 
 241   0.0000       1.472787        40.0766 
 242   0.0000       1.486677        40.4546 
 243   0.0000       1.489245        40.5244 
 244   0.0000       1.517036        41.2806 
 245   0.0000       1.520256        41.3683 
 246   0.0000       1.537853        41.8471 
 247   0.0000       1.540787        41.9269 
 248   0.0000       1.549346        42.1599 
 249   0.0000       1.558455        42.4077 
 250   0.0000       1.563425        42.5429 
 251   0.0000       1.573935        42.8290 
 252   0.0000       1.579539        42.9815 
 253   0.0000       1.590742        43.2863 
 254   0.0000       1.596107        43.4323 
 255   0.0000       1.607786        43.7501 
 256   0.0000       1.623733        44.1840 
 257   0.0000       1.633950        44.4620 
 258   0.0000       1.647627        44.8342 
 259   0.0000       1.670774        45.4641 
 260   0.0000       1.672830        45.5200 
 261   0.0000       1.685858        45.8745 
 262   0.0000       1.703515        46.3550 
 263   0.0000       1.707314        46.4584 
 264   0.0000       1.726687        46.9856 
 265   0.0000       1.730116        47.0789 
 266   0.0000       1.734917        47.2095 
 267   0.0000       1.754697        47.7477 
 268   0.0000       1.768301        48.1179 
 269   0.0000       1.774623        48.2899 
 270   0.0000       1.785239        48.5788 
 271   0.0000       1.793158        48.7943 
 272   0.0000       1.808206        49.2038 
 273   0.0000       1.819989        49.5244 
 274   0.0000       1.834676        49.9241 
 275   0.0000       1.851446        50.3804 
 276   0.0000       1.866988        50.8033 
 277   0.0000       1.895491        51.5789 
 278   0.0000       1.905792        51.8592 
 279   0.0000       1.911963        52.0272 
 280   0.0000       1.927340        52.4456 
 281   0.0000       1.933711        52.6190 
 282   0.0000       1.938998        52.7628 
 283   0.0000       1.944545        52.9137 
 284   0.0000       1.957871        53.2764 
 285   0.0000       1.976725        53.7894 
 286   0.0000       1.981785        53.9271 
 287   0.0000       2.016994        54.8852 
 288   0.0000       2.074662        56.4544 
 289   0.0000       2.095282        57.0155 
 290   0.0000       2.133771        58.0629 
 291   0.0000       2.144975        58.3677 
 292   0.0000       2.176426        59.2236 
 293   0.0000       2.203998        59.9738 
 294   0.0000       2.237212        60.8776 
 295   0.0000       2.263270        61.5867 
 296   0.0000       2.280238        62.0484 
 297   0.0000       2.280674        62.0603 
 298   0.0000       2.291787        62.3627 
 299   0.0000       2.307714        62.7961 
 300   0.0000       2.322916        63.2098 
 301   0.0000       2.327604        63.3373 
 302   0.0000       2.335179        63.5434 
 303   0.0000       2.343439        63.7682 
 304   0.0000       2.357915        64.1621 
 305   0.0000       2.375799        64.6488 
 306   0.0000       2.395961        65.1974 
 307   0.0000       2.404910        65.4409 
 308   0.0000       2.420768        65.8724 
 309   0.0000       2.428710        66.0886 
 310   0.0000       2.454126        66.7802 
 311   0.0000       2.460351        66.9496 
 312   0.0000       2.464365        67.0588 
 313   0.0000       2.495793        67.9140 
 314   0.0000       2.503558        68.1253 
 315   0.0000       2.516624        68.4808 
 316   0.0000       2.538910        69.0872 
 317   0.0000       2.544295        69.2338 
 318   0.0000       2.559602        69.6503 
 319   0.0000       2.582095        70.2624 
 320   0.0000       2.592667        70.5501 
 321   0.0000       2.630150        71.5700 
 322   0.0000       2.650547        72.1250 
 323   0.0000       2.672148        72.7128 
 324   0.0000       2.693415        73.2915 
 325   0.0000       2.722619        74.0862 
 326   0.0000       2.728289        74.2405 
 327   0.0000       2.749299        74.8122 
 328   0.0000       2.774265        75.4916 
 329   0.0000       2.794712        76.0480 
 330   0.0000       2.812737        76.5385 
 331   0.0000       2.842543        77.3495 
 332   0.0000       2.845698        77.4354 
 333   0.0000       2.857287        77.7507 
 334   0.0000       2.877631        78.3043 
 335   0.0000       2.895123        78.7803 
 336   0.0000       2.916371        79.3585 
[...]
    107      -0.008018  -0.004462   0.655216   0.101381  -0.000020  -0.000301
    108      -0.002298  -0.001357   0.186618   0.026099  -0.000060  -0.000008
    109       0.001604   0.000951  -0.127838  -0.016631   0.000044  -0.000009
    110      -0.001106  -0.000658   0.089209   0.012246  -0.000034   0.000006
    111      -0.000001  -0.000003   0.000000  -0.000000   0.000043  -0.000088
    112      -0.000008   0.000003   0.000000   0.000001   0.000003  -0.000002
    113      -0.000004   0.000002  -0.000000  -0.000001   0.000006  -0.000008


-----------
IR SPECTRUM
-----------

 Mode   freq       eps      Int      T**2         TX        TY        TZ
       cm**-1   L/(mol*cm) km/mol    a.u.
----------------------------------------------------------------------------
  6:     19.54   0.000105    0.53  0.001679  ( 0.028003  0.028646  0.008617)
  7:     28.81   0.000059    0.30  0.000636  (-0.005144 -0.024266 -0.004528)
  8:     35.91   0.000340    1.72  0.002952  (-0.048312 -0.000070 -0.024857)
  9:     52.31   0.000768    3.88  0.004580  ( 0.051398  0.009645 -0.042958)
 10:     67.13   0.001199    6.06  0.005575  ( 0.034993 -0.048152 -0.045076)
 11:     76.77   0.001173    5.93  0.004767  (-0.041580  0.049989  0.023222)
 12:     87.21   0.000071    0.36  0.000255  ( 0.012634  0.004238  0.008774)
 13:    103.72   0.001693    8.56  0.005095  (-0.002969  0.037827 -0.060462)
 14:    112.04   0.001569    7.93  0.004370  ( 0.001066  0.053686 -0.038552)
 15:    125.14   0.000481    2.43  0.001198  (-0.011767  0.031463 -0.008360)
 16:    149.00   0.000617    3.12  0.001292  (-0.008328  0.032828 -0.012032)
 17:    163.60   0.000314    1.59  0.000599  (-0.007688  0.021373  0.009106)
 18:    167.92   0.000010    0.05  0.000019  ( 0.003434 -0.002613 -0.000660)
 19:    214.93   0.000210    1.06  0.000306  (-0.014724  0.005949  0.007308)
 20:    217.71   0.000018    0.09  0.000025  (-0.001881  0.004020  0.002387)
 21:    255.43   0.001497    7.57  0.001829  (-0.026562  0.029901  0.015141)
 22:    277.42   0.002749   13.89  0.003093  ( 0.043656 -0.034109  0.004825)
 23:    283.75   0.000080    0.41  0.000088  (-0.003255  0.008519  0.002304)
 24:    337.69   0.000764    3.86  0.000706  ( 0.000070  0.008128 -0.025296)
 25:    357.28   0.000631    3.19  0.000551  ( 0.016960  0.016111  0.001871)
 26:    364.16   0.002422   12.24  0.002076  ( 0.027907 -0.008596  0.034970)
 27:    383.41   0.001798    9.09  0.001463  (-0.026487 -0.027236  0.004476)
 28:    392.59   0.002968   15.00  0.002359  (-0.023616 -0.026154  0.033431)
 29:    417.09   0.000025    0.12  0.000018  (-0.003818 -0.001128  0.001609)
 30:    433.28   0.000232    1.17  0.000167  (-0.002203  0.011845 -0.004667)
 31:    460.57   0.003150   15.92  0.002134  (-0.043304 -0.014760  0.006399)
 32:    500.13   0.004202   21.23  0.002622  ( 0.026652 -0.042559 -0.010011)
 33:    518.01   0.009221   46.60  0.005555  (-0.003713 -0.017762  0.072288)
 34:    579.24   0.004377   22.12  0.002358  (-0.009698 -0.042309  0.021771)
 35:    598.32   0.000693    3.50  0.000361  ( 0.008349  0.017011 -0.001549)
 36:    612.79   0.003992   20.17  0.002033  (-0.022823 -0.013598  0.036427)
 37:    644.93   0.000027    0.14  0.000013  (-0.001107 -0.002532 -0.002372)
 38:    654.13   0.005636   28.48  0.002689  (-0.042512 -0.009856 -0.028007)
 39:    699.88   0.000399    2.02  0.000178  ( 0.008884 -0.001940  0.009766)
 40:    727.57   0.001530    7.73  0.000656  ( 0.010559  0.013025 -0.019364)
 41:    761.48   0.004423   22.35  0.001812  ( 0.001460 -0.031009  0.029132)
 42:    775.89   0.002516   12.71  0.001012  ( 0.017740 -0.024039 -0.010924)
 43:    812.97   0.008373   42.31  0.003214  ( 0.048105 -0.005155  0.029554)
 44:    821.67   0.007216   36.47  0.002741  (-0.000444  0.024701 -0.046154)
 45:    836.78   0.000066    0.33  0.000025  (-0.000074  0.000516  0.004944)
 46:    865.66   0.005342   27.00  0.001926  ( 0.008239  0.016942 -0.039633)
 47:    955.19   0.000656    3.32  0.000214  (-0.010541  0.003006 -0.009706)
 48:    962.83   0.000270    1.36  0.000087  ( 0.007335 -0.002883  0.005024)
 49:    972.35   0.000001    0.00  0.000000  ( 0.000400  0.000002  0.000380)
 50:    996.77   0.005565   28.12  0.001742  (-0.019637  0.011171 -0.035097)
 51:   1004.41   0.009468   47.85  0.002942  ( 0.040905  0.029449 -0.020027)
 52:   1022.16   0.015890   80.30  0.004851  (-0.069534 -0.002355 -0.003255)
 53:   1027.48   0.010119   51.14  0.003073  ( 0.028231  0.044009  0.018430)
 54:   1030.20   0.005092   25.73  0.001543  ( 0.018128  0.007233 -0.034082)
 55:   1057.60   0.002324   11.74  0.000686  (-0.002354  0.012098 -0.023103)
 56:   1080.78   0.005640   28.50  0.001628  ( 0.040158  0.001457  0.003693)
 57:   1083.43   0.003776   19.08  0.001087  ( 0.022920  0.022717  0.006792)
 58:   1093.66   0.002657   13.43  0.000758  ( 0.012006 -0.005336  0.024196)
 59:   1131.10   0.000485    2.45  0.000134  ( 0.001351  0.011140  0.002801)
 60:   1134.76   0.002557   12.92  0.000703  (-0.009743 -0.010822 -0.022163)
 61:   1166.39   0.015671   79.20  0.004193  (-0.040090  0.025073 -0.044237)
 62:   1179.03   0.000454    2.29  0.000120  ( 0.005512 -0.000075  0.009473)
 63:   1203.11   0.000088    0.45  0.000023  (-0.004572  0.001002 -0.001023)
 64:   1212.34   0.011026   55.72  0.002838  (-0.000686 -0.022195 -0.048426)
 65:   1230.87   0.005522   27.91  0.001400  ( 0.030204  0.020727  0.007624)
 66:   1245.48   0.014477   73.16  0.003627  ( 0.037478  0.046040  0.010154)
 67:   1277.59   0.009519   48.11  0.002325  (-0.009105 -0.022244  0.041802)
 68:   1286.54   0.036783  185.89  0.008922  (-0.022899 -0.087391 -0.027577)
 69:   1320.88   0.000664    3.35  0.000157  ( 0.010161  0.007248 -0.000997)
 70:   1331.56   0.001343    6.79  0.000315  (-0.012896 -0.012180 -0.000056)
 71:   1331.97   0.000993    5.02  0.000233  ( 0.009789  0.011579 -0.001627)
 72:   1355.19   0.001254    6.34  0.000289  (-0.012952 -0.010995 -0.000230)
 73:   1367.97   0.000759    3.84  0.000173  ( 0.007342 -0.001671  0.010793)
 74:   1396.30   0.009505   48.04  0.002124  (-0.041341  0.012318  0.016233)
 75:   1402.52   0.011523   58.23  0.002564  (-0.040493 -0.029259 -0.008255)
 76:   1432.09   0.020180  101.98  0.004397  (-0.015843  0.029810 -0.057076)
 77:   1437.64   0.001917    9.69  0.000416  (-0.002367 -0.018272 -0.008750)
 78:   1446.71   0.013202   66.72  0.002848  ( 0.005104  0.048410 -0.021864)
 79:   1463.45   0.051480  260.16  0.010977  (-0.071009 -0.072562 -0.025883)
 80:   1471.70   0.004449   22.48  0.000943  ( 0.023080 -0.019878 -0.003951)
 81:   1478.83   0.000958    4.84  0.000202  ( 0.013552  0.003322 -0.002720)
 82:   1488.98   0.003131   15.82  0.000656  ( 0.011213  0.007223  0.021868)
 83:   1494.19   0.004657   23.53  0.000973  ( 0.005436 -0.022047 -0.021375)
 84:   1498.78   0.001641    8.30  0.000342  ( 0.010002  0.015547 -0.000088)
 85:   1501.01   0.003446   17.41  0.000716  ( 0.000676  0.026327 -0.004774)
 86:   1509.34   0.003366   17.01  0.000696  ( 0.024075 -0.010644 -0.001764)
 87:   1520.05   0.008165   41.26  0.001676  (-0.040219  0.007190  0.002626)
 88:   1520.71   0.021322  107.75  0.004376  ( 0.066102 -0.000441  0.002407)
 89:   1522.60   0.008710   44.02  0.001785  ( 0.005125  0.013644  0.039658)
 90:   1544.55   0.019298   97.52  0.003899  (-0.006197 -0.040571  0.047059)
 91:   1615.00   0.000205    1.04  0.000040  (-0.001000 -0.005619 -0.002666)
 92:   1631.83   0.000418    2.11  0.000080  ( 0.008838 -0.000582  0.001208)
 93:   1669.22   0.232400  1174.46  0.043448  ( 0.166643  0.054945  0.112512)
 94:   1675.20   0.052680  266.22  0.009814  (-0.072121  0.009489  0.067246)
 95:   3020.76   0.006187   31.27  0.000639  (-0.015036 -0.019743  0.004827)
 96:   3025.65   0.020584  104.02  0.002123  (-0.002287  0.000234  0.046019)
 97:   3050.34   0.000892    4.51  0.000091  (-0.006199  0.007251 -0.000453)
 98:   3062.93   0.002044   10.33  0.000208  ( 0.007445  0.006117  0.010743)
 99:   3071.21   0.004328   21.87  0.000440  (-0.007594  0.009725  0.016958)
100:   3075.06   0.017203   86.94  0.001746  ( 0.022176 -0.000472  0.035408)
101:   3082.93   0.018264   92.30  0.001849  ( 0.034993 -0.024863  0.002457)
102:   3085.03   0.002513   12.70  0.000254  ( 0.012304 -0.010136  0.000337)
103:   3105.33   0.000352    1.78  0.000035  ( 0.001648 -0.005709 -0.000142)
104:   3115.05   0.002825   14.28  0.000283  ( 0.000510  0.003161 -0.016514)
105:   3125.96   0.009536   48.19  0.000952  (-0.001581  0.029915  0.007388)
106:   3149.30   0.002142   10.82  0.000212  (-0.001597  0.013168 -0.006023)
107:   3151.14   0.003910   19.76  0.000387  (-0.017782 -0.007757 -0.003294)
108:   3171.12   0.002928   14.80  0.000288  ( 0.005263 -0.014886 -0.006235)
109:   3171.85   0.002633   13.31  0.000259  ( 0.013819  0.006509  0.005072)
110:   3174.59   0.001465    7.41  0.000144  (-0.004269 -0.009422 -0.006086)
111:   3177.46   0.000619    3.13  0.000061  (-0.007364  0.001088  0.002310)
112:   3202.16   0.001783    9.01  0.000174  (-0.001609  0.011689  0.005876)
113:   3204.02   0.000393    1.99  0.000038  ( 0.001520  0.005559  0.002251)

* The epsilon (eps) is given for a Dirac delta lineshape.
** The dipole moment derivative (T) already includes vibrational overlap.

The first frequency considered to be a vibration is 6
The total number of vibrations considered is 108


--------------------------
THERMOCHEMISTRY AT 298.15K
--------------------------

Temperature         ... 298.15 K
Pressure            ... 1.00 atm
Total Mass          ... 327.22 AMU

Throughout the following assumptions are being made:
  (1) The electronic state is orbitally nondegenerate
  (2) There are no thermally accessible electronically excited states
  (3) Hindered rotations indicated by low frequency modes are not
      treated as such but are treated as vibrations and this may
      cause some error
  (4) All equations used are the standard statistical mechanics
      equations for an ideal gas
  (5) All vibrations are strictly harmonic

freq.      19.54  E(vib)   ...       0.57 
freq.      28.81  E(vib)   ...       0.55 
freq.      35.91  E(vib)   ...       0.54 
freq.      52.31  E(vib)   ...       0.52 
freq.      67.13  E(vib)   ...       0.50 
freq.      76.77  E(vib)   ...       0.49 
freq.      87.21  E(vib)   ...       0.48 
freq.     103.72  E(vib)   ...       0.46 
freq.     112.04  E(vib)   ...       0.45 
freq.     125.14  E(vib)   ...       0.43 
freq.     149.00  E(vib)   ...       0.40 
freq.     163.60  E(vib)   ...       0.39 
freq.     167.92  E(vib)   ...       0.38 
freq.     214.93  E(vib)   ...       0.34 
freq.     217.71  E(vib)   ...       0.33 
freq.     255.43  E(vib)   ...       0.30 
freq.     277.42  E(vib)   ...       0.28 
freq.     283.75  E(vib)   ...       0.28 
freq.     337.69  E(vib)   ...       0.24 
freq.     357.28  E(vib)   ...       0.22 
freq.     364.16  E(vib)   ...       0.22 
freq.     383.41  E(vib)   ...       0.20 
freq.     392.59  E(vib)   ...       0.20 
freq.     417.09  E(vib)   ...       0.18 
freq.     433.28  E(vib)   ...       0.17 
freq.     460.57  E(vib)   ...       0.16 
freq.     500.13  E(vib)   ...       0.14 
freq.     518.01  E(vib)   ...       0.13 
freq.     579.24  E(vib)   ...       0.11 
freq.     598.32  E(vib)   ...       0.10 
freq.     612.79  E(vib)   ...       0.10 
freq.     644.93  E(vib)   ...       0.09 
freq.     654.13  E(vib)   ...       0.08 
freq.     699.88  E(vib)   ...       0.07 
freq.     727.57  E(vib)   ...       0.06 
freq.     761.48  E(vib)   ...       0.06 
freq.     775.89  E(vib)   ...       0.05 
freq.     812.97  E(vib)   ...       0.05 
freq.     821.67  E(vib)   ...       0.05 
freq.     836.78  E(vib)   ...       0.04 
freq.     865.66  E(vib)   ...       0.04 
freq.     955.19  E(vib)   ...       0.03 
freq.     962.83  E(vib)   ...       0.03 
freq.     972.35  E(vib)   ...       0.03 
freq.     996.77  E(vib)   ...       0.02 
freq.    1004.41  E(vib)   ...       0.02 
freq.    1022.16  E(vib)   ...       0.02 
freq.    1027.48  E(vib)   ...       0.02 
freq.    1030.20  E(vib)   ...       0.02 
freq.    1057.60  E(vib)   ...       0.02 
freq.    1080.78  E(vib)   ...       0.02 
freq.    1083.43  E(vib)   ...       0.02 
freq.    1093.66  E(vib)   ...       0.02 
freq.    1131.10  E(vib)   ...       0.01 
freq.    1134.76  E(vib)   ...       0.01 
freq.    1166.39  E(vib)   ...       0.01 
freq.    1179.03  E(vib)   ...       0.01 
freq.    1203.11  E(vib)   ...       0.01 
freq.    1212.34  E(vib)   ...       0.01 
freq.    1230.87  E(vib)   ...       0.01 
freq.    1245.48  E(vib)   ...       0.01 
freq.    1277.59  E(vib)   ...       0.01 
freq.    1286.54  E(vib)   ...       0.01 
freq.    1320.88  E(vib)   ...       0.01 
freq.    1331.56  E(vib)   ...       0.01 
freq.    1331.97  E(vib)   ...       0.01 
freq.    1355.19  E(vib)   ...       0.01 
freq.    1367.97  E(vib)   ...       0.01 
freq.    1396.30  E(vib)   ...       0.00 
freq.    1402.52  E(vib)   ...       0.00 
freq.    1432.09  E(vib)   ...       0.00 
freq.    1437.64  E(vib)   ...       0.00 
freq.    1446.71  E(vib)   ...       0.00 
freq.    1463.45  E(vib)   ...       0.00 
freq.    1471.70  E(vib)   ...       0.00 
freq.    1478.83  E(vib)   ...       0.00 
freq.    1488.98  E(vib)   ...       0.00 
freq.    1494.19  E(vib)   ...       0.00 
freq.    1498.78  E(vib)   ...       0.00 
freq.    1501.01  E(vib)   ...       0.00 
freq.    1509.34  E(vib)   ...       0.00 
freq.    1520.05  E(vib)   ...       0.00 
freq.    1520.71  E(vib)   ...       0.00 
freq.    1522.60  E(vib)   ...       0.00 
freq.    1544.55  E(vib)   ...       0.00 
freq.    1615.00  E(vib)   ...       0.00 
freq.    1631.83  E(vib)   ...       0.00 
freq.    1669.22  E(vib)   ...       0.00 
freq.    1675.20  E(vib)   ...       0.00 
freq.    3020.76  E(vib)   ...       0.00 
freq.    3025.65  E(vib)   ...       0.00 
freq.    3050.34  E(vib)   ...       0.00 
freq.    3062.93  E(vib)   ...       0.00 
freq.    3071.21  E(vib)   ...       0.00 
freq.    3075.06  E(vib)   ...       0.00 
freq.    3082.93  E(vib)   ...       0.00 
freq.    3085.03  E(vib)   ...       0.00 
freq.    3105.33  E(vib)   ...       0.00 
freq.    3115.05  E(vib)   ...       0.00 
freq.    3125.96  E(vib)   ...       0.00 
freq.    3149.30  E(vib)   ...       0.00 
freq.    3151.14  E(vib)   ...       0.00 
freq.    3171.12  E(vib)   ...       0.00 
freq.    3171.85  E(vib)   ...       0.00 
freq.    3174.59  E(vib)   ...       0.00 
freq.    3177.46  E(vib)   ...       0.00 
freq.    3202.16  E(vib)   ...       0.00 
freq.    3204.02  E(vib)   ...       0.00 

------------
INNER ENERGY
------------

The inner energy is: U= E(el) + E(ZPE) + E(vib) + E(rot) + E(trans)
    E(el)   - is the total energy from the electronic structure calculation
              = E(kin-el) + E(nuc-el) + E(el-el) + E(nuc-nuc)
    E(ZPE)  - the the zero temperature vibrational energy from the frequency calculation
    E(vib)  - the the finite temperature correction to E(ZPE) due to population
              of excited vibrational states
    E(rot)  - is the rotational thermal energy
    E(trans)- is the translational thermal energy

Summary of contributions to the inner energy U:
Electronic energy                ...  -3378.70560651 Eh
Zero point energy                ...      0.31438267 Eh     197.28 kcal/mol
Thermal vibrational correction   ...      0.01738740 Eh      10.91 kcal/mol
Thermal rotational correction    ...      0.00141627 Eh       0.89 kcal/mol
Thermal translational correction ...      0.00141627 Eh       0.89 kcal/mol
-----------------------------------------------------------------------
Total thermal energy                  -3378.37100390 Eh


Summary of corrections to the electronic energy:
(perhaps to be used in another calculation)
Total thermal correction                  0.02021995 Eh      12.69 kcal/mol
Non-thermal (ZPE) correction              0.31438267 Eh     197.28 kcal/mol
-----------------------------------------------------------------------
Total correction                          0.33460261 Eh     209.97 kcal/mol


--------
ENTHALPY
--------

The enthalpy is H = U + kB*T
                kB is Boltzmann's constant
Total free energy                 ...  -3378.37100390 Eh 
Thermal Enthalpy correction       ...      0.00094421 Eh       0.59 kcal/mol
-----------------------------------------------------------------------
Total Enthalpy                    ...  -3378.37005969 Eh


Note: Only C1 symmetry has been detected, increase convergence thresholds 
      if your molecule has a higher symmetry. Symmetry factor of 1.0 is   
      used for the rotational entropy correction. 
 

Note: Rotational entropy computed according to Herzberg 
Infrared and Raman Spectra, Chapter V,1, Van Nostrand Reinhold, 1945 
Point Group:  C1, Symmetry Number:   1  
Rotational constants in cm-1:     0.019320     0.003594     0.003233 

Vibrational entropy computed according to the QRRHO of S. Grimme
Chem.Eur.J. 2012 18 9955


-------
ENTROPY
-------

The entropy contributions are T*S = T*(S(el)+S(vib)+S(rot)+S(trans))
     S(el)   - electronic entropy
     S(vib)  - vibrational entropy
     S(rot)  - rotational entropy
     S(trans)- translational entropy
The entropies will be listed as multiplied by the temperature to get
units of energy

Electronic entropy                ...      0.00000000 Eh      0.00 kcal/mol
Vibrational entropy               ...      0.03158714 Eh     19.82 kcal/mol
Rotational entropy                ...      0.01673824 Eh     10.50 kcal/mol
Translational entropy             ...      0.02055017 Eh     12.90 kcal/mol
-----------------------------------------------------------------------
Final entropy term                ...      0.06887555 Eh     43.22 kcal/mol

In case the symmetry of your molecule has not been determined correctly
or in case you have a reason to use a different symmetry number we print 
out the resulting rotational entropy values for sn=1,12 :
 --------------------------------------------------------
|  sn= 1 | S(rot)=       0.01673824 Eh     10.50 kcal/mol|
|  sn= 2 | S(rot)=       0.01608378 Eh     10.09 kcal/mol|
|  sn= 3 | S(rot)=       0.01570095 Eh      9.85 kcal/mol|
|  sn= 4 | S(rot)=       0.01542933 Eh      9.68 kcal/mol|
|  sn= 5 | S(rot)=       0.01521864 Eh      9.55 kcal/mol|
|  sn= 6 | S(rot)=       0.01504649 Eh      9.44 kcal/mol|
|  sn= 7 | S(rot)=       0.01490095 Eh      9.35 kcal/mol|
|  sn= 8 | S(rot)=       0.01477487 Eh      9.27 kcal/mol|
|  sn= 9 | S(rot)=       0.01466366 Eh      9.20 kcal/mol|
|  sn=10 | S(rot)=       0.01456418 Eh      9.14 kcal/mol|
|  sn=11 | S(rot)=       0.01447419 Eh      9.08 kcal/mol|
|  sn=12 | S(rot)=       0.01439204 Eh      9.03 kcal/mol|
 --------------------------------------------------------


-------------------
GIBBS FREE ENERGY
-------------------

The Gibbs free energy is G = H - T*S

Total enthalpy                    ...  -3378.37005969 Eh 
Total entropy correction          ...     -0.06887555 Eh    -43.22 kcal/mol
-----------------------------------------------------------------------
Final Gibbs free energy         ...  -3378.43893524 Eh

For completeness - the Gibbs free energy minus the electronic energy
G-E(el)                           ...      0.26667127 Eh    167.34 kcal/mol


Timings for individual modules:

Sum of individual times         ...     4228.976 sec (=  70.483 min)
GTO integral calculation        ...       33.553 sec (=   0.559 min)   0.8 %
SCF iterations                  ...     1855.572 sec (=  30.926 min)  43.9 %
SCF Gradient evaluation         ...      550.261 sec (=   9.171 min)  13.0 %
Geometry relaxation             ...        1.397 sec (=   0.023 min)   0.0 %
Analytical frequency calculation...     1788.192 sec (=  29.803 min)  42.3 %
                             ****ORCA TERMINATED NORMALLY****
TOTAL RUN TIME: 0 days 1 hours 10 minutes 35 seconds 972 msec
