
                                 *****************
                                 * O   R   C   A *
                                 *****************

                                            #,                                       
                                            ###                                      
                                            ####                                     
                                            #####                                    
                                            ######                                   
                                           ########,                                 
                                     ,,################,,,,,                         
                               ,,#################################,,                 
                          ,,##########################################,,             
                       ,#########################################, ''#####,          
                    ,#############################################,,   '####,        
                  ,##################################################,,,,####,       
                ,###########''''           ''''###############################       
              ,#####''   ,,,,##########,,,,          '''####'''          '####       
            ,##' ,,,,###########################,,,                        '##       
           ' ,,###''''                  '''############,,,                           
         ,,##''                                '''############,,,,        ,,,,,,###''
      ,#''                                            '''#######################'''  
     '                                                          ''''####''''         
             ,#######,   #######,   ,#######,      ##                                
            ,#'     '#,  ##    ##  ,#'     '#,    #''#        ######   ,####,        
            ##       ##  ##   ,#'  ##            #'  '#       #        #'  '#        
            ##       ##  #######   ##           ,######,      #####,   #    #        
            '#,     ,#'  ##    ##  '#,     ,#' ,#      #,         ##   #,  ,#        
             '#######'   ##     ##  '#######'  #'      '#     #####' # '####'        



                  #######################################################
                  #                        -***-                        #
                  #          Department of theory and spectroscopy      #
                  #    Directorship and core code : Frank Neese         #
                  #        Max Planck Institute fuer Kohlenforschung    #
                  #                Kaiser Wilhelm Platz 1               #
                  #                 D-45470 Muelheim/Ruhr               #
                  #                      Germany                        #
                  #                                                     #
                  #                  All rights reserved                #
                  #                        -***-                        #
                  #######################################################


                         Program Version 5.0.4 -  RELEASE  -


 With contributions from (in alphabetic order):
   Daniel Aravena         : Magnetic Suceptibility
   Michael Atanasov       : Ab Initio Ligand Field Theory (pilot matlab implementation)
   Alexander A. Auer      : GIAO ZORA, VPT2 properties, NMR spectrum
   Ute Becker             : Parallelization
   Giovanni Bistoni       : ED, misc. LED, open-shell LED, HFLD
   Martin Brehm           : Molecular dynamics
   Dmytro Bykov           : SCF Hessian
   Vijay G. Chilkuri      : MRCI spin determinant printing, contributions to CSF-ICE
   Dipayan Datta          : RHF DLPNO-CCSD density
   Achintya Kumar Dutta   : EOM-CC, STEOM-CC
   Dmitry Ganyushin       : Spin-Orbit,Spin-Spin,Magnetic field MRCI
   Miquel Garcia          : C-PCM and meta-GGA Hessian, CC/C-PCM, Gaussian charge scheme
   Yang Guo               : DLPNO-NEVPT2, F12-NEVPT2, CIM, IAO-localization
   Andreas Hansen         : Spin unrestricted coupled pair/coupled cluster methods
   Benjamin Helmich-Paris : MC-RPA, TRAH-SCF, COSX integrals
   Lee Huntington         : MR-EOM, pCC
   Robert Izsak           : Overlap fitted RIJCOSX, COSX-SCS-MP3, EOM
   Marcus Kettner         : VPT2
   Christian Kollmar      : KDIIS, OOCD, Brueckner-CCSD(T), CCSD density, CASPT2, CASPT2-K
   Simone Kossmann        : Meta GGA functionals, TD-DFT gradient, OOMP2, MP2 Hessian
   Martin Krupicka        : Initial AUTO-CI
   Lucas Lang             : DCDCAS
   Marvin Lechner         : AUTO-CI (C++ implementation), FIC-MRCC
   Dagmar Lenk            : GEPOL surface, SMD
   Dimitrios Liakos       : Extrapolation schemes; Compound Job, initial MDCI parallelization
   Dimitrios Manganas     : Further ROCIS development; embedding schemes
   Dimitrios Pantazis     : SARC Basis sets
   Anastasios Papadopoulos: AUTO-CI, single reference methods and gradients
   Taras Petrenko         : DFT Hessian,TD-DFT gradient, ASA, ECA, R-Raman, ABS, FL, XAS/XES, NRVS
   Peter Pinski           : DLPNO-MP2, DLPNO-MP2 Gradient
   Christoph Reimann      : Effective Core Potentials
   Marius Retegan         : Local ZFS, SOC
   Christoph Riplinger    : Optimizer, TS searches, QM/MM, DLPNO-CCSD(T), (RO)-DLPNO pert. Triples
   Tobias Risthaus        : Range-separated hybrids, TD-DFT gradient, RPA, STAB
   Michael Roemelt        : Original ROCIS implementation
   Masaaki Saitow         : Open-shell DLPNO-CCSD energy and density
   Barbara Sandhoefer     : DKH picture change effects
   Avijit Sen             : IP-ROCIS
   Kantharuban Sivalingam : CASSCF convergence, NEVPT2, FIC-MRCI
   Bernardo de Souza      : ESD, SOC TD-DFT
   Georgi Stoychev        : AutoAux, RI-MP2 NMR, DLPNO-MP2 response
   Willem Van den Heuvel  : Paramagnetic NMR
   Boris Wezisla          : Elementary symmetry handling
   Frank Wennmohs         : Technical directorship


 We gratefully acknowledge several colleagues who have allowed us to
 interface, adapt or use parts of their codes:
   Stefan Grimme, W. Hujo, H. Kruse, P. Pracht,  : VdW corrections, initial TS optimization,
                  C. Bannwarth, S. Ehlert          DFT functionals, gCP, sTDA/sTD-DF
   Ed Valeev, F. Pavosevic, A. Kumar             : LibInt (2-el integral package), F12 methods
   Garnet Chan, S. Sharma, J. Yang, R. Olivares  : DMRG
   Ulf Ekstrom                                   : XCFun DFT Library
   Mihaly Kallay                                 : mrcc  (arbitrary order and MRCC methods)
   Jiri Pittner, Ondrej Demel                    : Mk-CCSD
   Frank Weinhold                                : gennbo (NPA and NBO analysis)
   Christopher J. Cramer and Donald G. Truhlar   : smd solvation model
   Lars Goerigk                                  : TD-DFT with DH, B97 family of functionals
   V. Asgeirsson, H. Jonsson                     : NEB implementation
   FAccTs GmbH                                   : IRC, NEB, NEB-TS, DLPNO-Multilevel, CI-OPT
                                                   MM, QMMM, 2- and 3-layer-ONIOM, Crystal-QMMM,
                                                   LR-CPCM, SF, NACMEs, symmetry and pop. for TD-DFT,
                                                   nearIR, NL-DFT gradient (VV10), updates on ESD,
                                                   ML-optimized integration grids
   S Lehtola, MJT Oliveira, MAL Marques          : LibXC Library
   Liviu Ungur et al                             : ANISO software


 Your calculation uses the libint2 library for the computation of 2-el integrals
 For citations please refer to: http://libint.valeyev.net

 Your ORCA version has been built with support for libXC version: 5.1.0
 For citations please refer to: https://tddft.org/programs/libxc/

 This ORCA versions uses:
   CBLAS   interface :  Fast vector & matrix operations
   LAPACKE interface :  Fast linear algebra routines
   SCALAPACK package :  Parallel linear algebra routines
   Shared memory     :  Shared parallel matrices
   BLAS/LAPACK       :  OpenBLAS 0.3.15  USE64BITINT DYNAMIC_ARCH NO_AFFINITY SkylakeX SINGLE_THREADED
        Core in use  :  SkylakeX
   Copyright (c) 2011-2014, The OpenBLAS Project




***************************************
The coordinates will be read from file: /users/fjb15167/WWenergy/structures/Nq.xyz
***************************************


Your calculation utilizes the atom-pairwise dispersion correction
based on tight binding partial charges (D4)
Cite in your paper:
E.Caldeweyher, C.Bannwarth, S.Grimme, J.Chem.Phys., (2017), 147, 034112.
E.Caldeweyher, S.Ehlert, A.Hansen, H.Neugebauer, S.Grimme, J.Chem.Phys., (2018), in progress.
   

================================================================================

----- Orbital basis set information -----
Your calculation utilizes the basis: 6-31G(d)
   H-He, Li-Ne : W. J. Hehre, R. Ditchfield and J.A. Pople, J. Chem. Phys. 56, 2257 (1972).
                 Note: He and Ne are unpublished basis sets taken from the Gaussian program.
                 Note: Li and B from J. D. Dill and J. A. Pople, J. Chem. Phys. 62, 2921 (1975).
   Na - Ar     : M. M. Francl, W. J. Pietro, W. J. Hehre, J. S. Binkley, M. S. Gordon, 
                 D. J. DeFrees and J. A. Pople, J. Chem. Phys. 77, 3654 (1982).
   K - Zn      : V. A. Rassolov, J. A. Pople, M. A. Ratner, and T. L. Windus, J. Chem. Phys. 109, 1223 (1998).

----- AuxJ basis set information -----
Your calculation utilizes the AutoAux generation procedure.
  G. L. Stoychev, A. A. Auer, F. Neese, J. Chem. Theory Comput. 13, 554 (2017)

----- AuxC basis set information -----
Your calculation utilizes the AutoAux generation procedure.
  G. L. Stoychev, A. A. Auer, F. Neese, J. Chem. Theory Comput. 13, 554 (2017)

----- AuxJK basis set information -----
Your calculation utilizes the AutoAux generation procedure.
  G. L. Stoychev, A. A. Auer, F. Neese, J. Chem. Theory Comput. 13, 554 (2017)

================================================================================
                                        WARNINGS
                       Please study these warnings very carefully!
================================================================================


WARNING: Geometry Optimization
  ===> : Switching off AutoStart
         For restart on a previous wavefunction, please use MOREAD

INFO   : the flag for use of the SHARK integral package has been found!

================================================================================
                                       INPUT FILE
================================================================================
NAME = Nq_water.inp
|  1> ! OPT FREQ B3LYP 6-31G(d) D4 AUTOAUX CPCM(water)
|  2> 
|  3> %PAL NPROCS 4 END
|  4> 
|  5> %maxcore 3375
|  6> 
|  7> *xyzfile 0 1 /users/fjb15167/WWenergy/structures/Nq.xyz
|  8> 
|  9>                          ****END OF INPUT****
================================================================================

                       *****************************
                       * Geometry Optimization Run *
                       *****************************

Geometry optimization settings:
Update method            Update   .... BFGS
Choice of coordinates    CoordSys .... Z-matrix Internals
Initial Hessian          InHess   .... Almoef's Model

Convergence Tolerances:
Energy Change            TolE     ....  5.0000e-06 Eh
Max. Gradient            TolMAXG  ....  3.0000e-04 Eh/bohr
RMS Gradient             TolRMSG  ....  1.0000e-04 Eh/bohr
Max. Displacement        TolMAXD  ....  4.0000e-03 bohr
RMS Displacement         TolRMSD  ....  2.0000e-03 bohr
Strict Convergence                ....  False
------------------------------------------------------------------------------
                        ORCA OPTIMIZATION COORDINATE SETUP
------------------------------------------------------------------------------

The optimization will be done in new redundant internal coordinates
Making redundant internal coordinates   ...  (new redundants) done
Evaluating the initial hessian          ...  (Almloef) done
Evaluating the coordinates              ...  done
Calculating the B-matrix                .... done
Calculating the G-matrix                .... done
Diagonalizing the G-matrix              .... done
Small eigenvalue found = 4.178e-03
Small eigenvalue found = 6.145e-03
Small eigenvalue found = 1.273e-02
Small eigenvalue found = 1.421e-02
Small eigenvalue found = 2.934e-02
The first mode is                       ....   58
The number of degrees of freedom        ....   90

    -----------------------------------------------------------------
                    Redundant Internal Coordinates


    -----------------------------------------------------------------
         Definition                    Initial Value    Approx d2E/dq
    -----------------------------------------------------------------
      1. B(H   1,C   0)                  1.0923         0.357043   
      2. B(H   2,C   0)                  1.0948         0.353808   
      3. B(H   3,C   0)                  1.0896         0.360646   
      4. B(C   4,C   0)                  1.5306         0.372764   
      5. B(O   5,C   4)                  1.2183         1.051666   
      6. B(N   6,C   4)                  1.3819         0.576552   
      7. B(C   7,N   6)                  1.4580         0.435830   
      8. B(H   8,C   7)                  1.0959         0.352408   
      9. B(H   9,C   7)                  1.0897         0.360442   
     10. B(C  10,N   6)                  1.4589         0.434462   
     11. B(H  11,C  10)                  1.0908         0.358995   
     12. B(H  12,C  10)                  1.0957         0.352701   
     13. B(C  13,C  10)                  1.5341         0.367938   
     14. B(H  14,C  13)                  1.0930         0.356129   
     15. B(H  15,C  13)                  1.0961         0.352128   
     16. B(C  16,C   7)                  1.5253         0.380075   
     17. B(N  17,C  16)                  1.3638         0.616140   
     18. B(O  18,C  16)                  1.2422         0.963256   
     19. B(C  19,N  17)                  1.4555         0.439911   
     20. B(H  20,C  19)                  1.0969         0.351060   
     21. B(H  21,C  19)                  1.0955         0.352854   
     22. B(H  22,C  19)                  1.0876         0.363253   
     23. B(C  23,N  17)                  1.4543         0.441838   
     24. B(H  24,C  23)                  1.0968         0.351190   
     25. B(H  25,C  23)                  1.0885         0.362089   
     26. B(H  26,C  23)                  1.0936         0.355376   
     27. B(C  27,C  13)                  1.5189         0.389084   
     28. B(O  28,C  27)                  1.2328         0.997073   
     29. B(N  29,C  27)                  1.3641         0.615427   
     30. B(H  30,N  29)                  1.0120         0.429540   
     31. B(H  31,N  29)                  1.0092         0.433979   
     32. A(H   1,C   0,C   4)          113.9355         0.323750   
     33. A(H   2,C   0,H   3)          108.6367         0.290105   
     34. A(H   1,C   0,H   2)          107.4471         0.289648   
     35. A(H   1,C   0,H   3)          109.9349         0.290519   
     36. A(H   3,C   0,C   4)          106.5661         0.324284   
     37. A(H   2,C   0,C   4)          110.2320         0.323267   
     38. A(C   0,C   4,O   5)          121.4430         0.432751   
     39. A(O   5,C   4,N   6)          122.9512         0.465292   
     40. A(C   0,C   4,N   6)          115.6057         0.389028   
     41. A(C   4,N   6,C  10)          124.3162         0.397055   
     42. A(C   7,N   6,C  10)          117.0393         0.378150   
     43. A(C   4,N   6,C   7)          118.5615         0.397274   
     44. A(H   8,C   7,C  16)          105.4199         0.324088   
     45. A(N   6,C   7,H   9)          107.8445         0.330720   
     46. A(H   9,C   7,C  16)          113.8270         0.325290   
     47. A(H   8,C   7,H   9)          108.9874         0.289899   
     48. A(N   6,C   7,C  16)          111.0611         0.371856   
     49. A(N   6,C   7,H   8)          109.6358         0.329490   
     50. A(H  12,C  10,C  13)          109.5458         0.322411   
     51. A(H  11,C  10,C  13)          108.8418         0.323347   
     52. A(N   6,C  10,C  13)          113.4038         0.369586   
     53. A(H  11,C  10,H  12)          107.5130         0.289754   
     54. A(N   6,C  10,H  12)          107.4419         0.329364   
     55. A(N   6,C  10,H  11)          109.9270         0.330328   
     56. A(H  14,C  13,H  15)          107.9169         0.289316   
     57. A(H  15,C  13,C  27)          107.0216         0.325295   
     58. A(C  10,C  13,H  15)          109.2495         0.322325   
     59. A(C  10,C  13,H  14)          110.4695         0.322923   
     60. A(H  14,C  13,C  27)          112.2158         0.325900   
     61. A(C  10,C  13,C  27)          109.8516         0.364938   
     62. A(N  17,C  16,O  18)          122.5615         0.463474   
     63. A(C   7,C  16,O  18)          119.1873         0.427471   
     64. A(C   7,C  16,N  17)          118.2222         0.394913   
     65. A(C  16,N  17,C  19)          125.5907         0.402604   
     66. A(C  19,N  17,C  23)          115.2694         0.379867   
     67. A(C  16,N  17,C  23)          118.3959         0.402914   
     68. A(H  21,C  19,H  22)          108.9112         0.290310   
     69. A(H  20,C  19,H  22)          108.4489         0.290078   
     70. A(N  17,C  19,H  22)          112.0277         0.331657   
     71. A(H  20,C  19,H  21)          108.1543         0.288760   
     72. A(N  17,C  19,H  21)          109.1576         0.330067   
     73. A(N  17,C  19,H  20)          110.0557         0.329789   
     74. A(H  25,C  23,H  26)          110.1359         0.290488   
     75. A(H  24,C  23,H  26)          108.6095         0.289099   
     76. A(N  17,C  23,H  26)          109.3471         0.330695   
     77. A(H  24,C  23,H  25)          109.4605         0.289949   
     78. A(N  17,C  23,H  25)          108.5354         0.331721   
     79. A(N  17,C  23,H  24)          110.7479         0.330047   
     80. A(O  28,C  27,N  29)          122.6862         0.466311   
     81. A(C  13,C  27,N  29)          115.6948         0.396459   
     82. A(C  13,C  27,O  28)          121.5701         0.431938   
     83. A(H  30,N  29,H  31)          118.1271         0.303043   
     84. A(C  27,N  29,H  31)          121.3250         0.358396   
     85. A(C  27,N  29,H  30)          117.3195         0.357770   
     86. D(O   5,C   4,C   0,H   2)    105.2090         0.010395   
     87. D(O   5,C   4,C   0,H   3)    -12.4990         0.010395   
     88. D(N   6,C   4,C   0,H   1)     46.0381         0.010395   
     89. D(N   6,C   4,C   0,H   2)    -74.8393         0.010395   
     90. D(N   6,C   4,C   0,H   3)    167.4528         0.010395   
     91. D(O   5,C   4,C   0,H   1)   -133.9136         0.010395   
     92. D(C   7,N   6,C   4,C   0)    175.8472         0.026641   
     93. D(C  10,N   6,C   4,C   0)     -0.7352         0.026641   
     94. D(C   7,N   6,C   4,O   5)     -4.2019         0.026641   
     95. D(C  10,N   6,C   4,O   5)    179.2158         0.026641   
     96. D(C  16,C   7,N   6,C   4)    123.8866         0.016195   
     97. D(H   9,C   7,N   6,C   4)     -1.4755         0.016195   
     98. D(H   8,C   7,N   6,C  10)     56.8160         0.016195   
     99. D(H   9,C   7,N   6,C  10)    175.3555         0.016195   
    100. D(H   8,C   7,N   6,C   4)   -120.0151         0.016195   
    101. D(C  16,C   7,N   6,C  10)    -59.2823         0.016195   
    102. D(C  13,C  10,N   6,C   7)     90.2757         0.016094   
    103. D(C  13,C  10,N   6,C   4)    -93.0943         0.016094   
    104. D(H  12,C  10,N   6,C   7)    -30.9296         0.016094   
    105. D(H  12,C  10,N   6,C   4)    145.7003         0.016094   
    106. D(H  11,C  10,N   6,C   7)   -147.6358         0.016094   
    107. D(H  11,C  10,N   6,C   4)     28.9942         0.016094   
    108. D(C  27,C  13,C  10,H  11)     35.8814         0.010830   
    109. D(C  27,C  13,C  10,N   6)    158.5719         0.010830   
    110. D(H  15,C  13,C  10,H  12)    161.4755         0.010830   
    111. D(H  15,C  13,C  10,H  11)    -81.2308         0.010830   
    112. D(H  15,C  13,C  10,N   6)     41.4597         0.010830   
    113. D(H  14,C  13,C  10,H  12)     42.9098         0.010830   
    114. D(H  14,C  13,C  10,H  11)    160.2035         0.010830   
    115. D(C  27,C  13,C  10,H  12)    -81.4123         0.010830   
    116. D(H  14,C  13,C  10,N   6)    -77.1061         0.010830   
    117. D(O  18,C  16,C   7,H   9)   -138.8669         0.010779   
    118. D(O  18,C  16,C   7,H   8)    -19.4762         0.010779   
    119. D(O  18,C  16,C   7,N   6)     99.1934         0.010779   
    120. D(N  17,C  16,C   7,H   9)     43.0383         0.010779   
    121. D(N  17,C  16,C   7,H   8)    162.4290         0.010779   
    122. D(N  17,C  16,C   7,N   6)    -78.9015         0.010779   
    123. D(C  23,N  17,C  16,O  18)     -1.7023         0.030711   
    124. D(C  23,N  17,C  16,C   7)    176.3242         0.030711   
    125. D(C  19,N  17,C  16,O  18)   -171.3226         0.030711   
    126. D(C  19,N  17,C  16,C   7)      6.7039         0.030711   
    127. D(H  22,C  19,N  17,C  16)    -12.4552         0.016502   
    128. D(H  21,C  19,N  17,C  23)     56.9298         0.016502   
    129. D(H  21,C  19,N  17,C  16)   -133.1642         0.016502   
    130. D(H  20,C  19,N  17,C  23)    -61.6227         0.016502   
    131. D(H  22,C  19,N  17,C  23)    177.6389         0.016502   
    132. D(H  20,C  19,N  17,C  16)    108.2833         0.016502   
    133. D(H  26,C  23,N  17,C  19)    -52.6817         0.016648   
    134. D(H  26,C  23,N  17,C  16)    136.6423         0.016648   
    135. D(H  25,C  23,N  17,C  19)   -172.8497         0.016648   
    136. D(H  25,C  23,N  17,C  16)     16.4743         0.016648   
    137. D(H  24,C  23,N  17,C  19)     66.9671         0.016648   
    138. D(H  24,C  23,N  17,C  16)   -103.7089         0.016648   
    139. D(N  29,C  27,C  13,H  14)     11.6901         0.011266   
    140. D(N  29,C  27,C  13,C  10)    134.9933         0.011266   
    141. D(O  28,C  27,C  13,H  15)     71.0126         0.011266   
    142. D(O  28,C  27,C  13,H  14)   -170.7867         0.011266   
    143. D(N  29,C  27,C  13,H  15)   -106.5106         0.011266   
    144. D(O  28,C  27,C  13,C  10)    -47.4835         0.011266   
    145. D(H  31,N  29,C  27,O  28)    167.0443         0.030634   
    146. D(H  31,N  29,C  27,C  13)    -15.4630         0.030634   
    147. D(H  30,N  29,C  27,O  28)      7.7279         0.030634   
    148. D(H  30,N  29,C  27,C  13)   -174.7793         0.030634   
    -----------------------------------------------------------------

Number of atoms                         .... 32
Number of degrees of freedom            .... 148

         *************************************************************
         *                GEOMETRY OPTIMIZATION CYCLE   1            *
         *************************************************************
---------------------------------
CARTESIAN COORDINATES (ANGSTROEM)
---------------------------------
  C     -1.175000    2.741000   -0.057000
  H     -1.791000    1.976000    0.421000
  H     -1.653000    3.001000   -1.007000
  H     -1.137000    3.632000    0.569000
  C      0.275000    2.312000   -0.294000
  O      1.208000    3.044000   -0.015000
  N      0.444000    1.053000   -0.838000
  C      1.793000    0.615000   -1.176000
  H      1.851000    0.395000   -2.248000
  H      2.477000    1.431000   -0.944000
  C     -0.650000    0.146000   -1.168000
  H     -1.544000    0.718000   -1.420000
  H     -0.354000   -0.414000   -2.062000
  C     -0.991000   -0.834000   -0.038000
  H     -0.256000   -1.642000    0.002000
  H     -0.962000   -0.304000    0.921000
  C      2.136000   -0.695000   -0.474000
  N      2.498000   -0.647000    0.840000
  O      2.042000   -1.762000   -1.103000
  C      2.458000    0.536000    1.687000
  H      1.642000    0.450000    2.415000
  H      3.401000    0.615000    2.239000
  H      2.310000    1.446000    1.110000
  C      2.747000   -1.900000    1.535000
  H      1.905000   -2.155000    2.190000
  H      2.881000   -2.686000    0.794000
  H      3.648000   -1.802000    2.147000
  C     -2.407000   -1.354000   -0.216000
  O     -3.349000   -0.594000   -0.450000
  N     -2.569000   -2.698000   -0.048000
  H     -3.485000   -3.083000   -0.240000
  H     -1.779000   -3.326000   -0.050000

----------------------------
CARTESIAN COORDINATES (A.U.)
----------------------------
  NO LB      ZA    FRAG     MASS         X           Y           Z
   0 C     6.0000    0    12.011   -2.220428    5.179739   -0.107714
   1 H     1.0000    0     1.008   -3.384500    3.734099    0.795575
   2 H     1.0000    0     1.008   -3.123717    5.671068   -1.902954
   3 H     1.0000    0     1.008   -2.148619    6.863485    1.075254
   4 C     6.0000    0    12.011    0.519675    4.369047   -0.555579
   5 O     8.0000    0    15.999    2.282789    5.752326   -0.028346
   6 N     7.0000    0    14.007    0.839038    1.989882   -1.583591
   7 C     6.0000    0    12.011    3.388279    1.162182   -2.222318
   8 H     1.0000    0     1.008    3.497883    0.746442   -4.248104
   9 H     1.0000    0     1.008    4.680852    2.704198   -1.783901
  10 C     6.0000    0    12.011   -1.228322    0.275900   -2.207200
  11 H     1.0000    0     1.008   -2.917737    1.356823   -2.683411
  12 H     1.0000    0     1.008   -0.668963   -0.782347   -3.896615
  13 C     6.0000    0    12.011   -1.872719   -1.576032   -0.071810
  14 H     1.0000    0     1.008   -0.483770   -3.102930    0.003779
  15 H     1.0000    0     1.008   -1.817917   -0.574477    1.740438
  16 C     6.0000    0    12.011    4.036455   -1.313360   -0.895730
  17 N     7.0000    0    14.007    4.720536   -1.222653    1.587370
  18 O     8.0000    0    15.999    3.858821   -3.329697   -2.084368
  19 C     6.0000    0    12.011    4.644947    1.012893    3.187968
  20 H     1.0000    0     1.008    3.102930    0.850377    4.563689
  21 H     1.0000    0     1.008    6.426959    1.162182    4.231097
  22 H     1.0000    0     1.008    4.365267    2.732544    2.097596
  23 C     6.0000    0    12.011    5.191078   -3.590480    2.900730
  24 H     1.0000    0     1.008    3.599928   -4.072360    4.138500
  25 H     1.0000    0     1.008    5.444301   -5.075804    1.500443
  26 H     1.0000    0     1.008    6.893721   -3.405286    4.057242
  27 C     6.0000    0    12.011   -4.548571   -2.558689   -0.408181
  28 O     8.0000    0    15.999   -6.328693   -1.122497   -0.850377
  29 N     7.0000    0    14.007   -4.854706   -5.098481   -0.090707
  30 H     1.0000    0     1.008   -6.585696   -5.826026   -0.453534
  31 H     1.0000    0     1.008   -3.361823   -6.285229   -0.094486

--------------------------------
INTERNAL COORDINATES (ANGSTROEM)
--------------------------------
 C      0   0   0     0.000000000000     0.00000000     0.00000000
 H      1   0   0     1.092320923538     0.00000000     0.00000000
 H      1   2   0     1.094798611618   107.44708491     0.00000000
 H      1   2   3     1.089587536639   109.93493684   118.05469566
 C      1   2   3     1.530591388974   113.93546463   237.58078161
 O      5   1   2     1.218258593239   121.44303647   226.08636556
 N      5   1   2     1.381874813433   115.60572583    46.03811749
 C      7   5   1     1.458042866311   118.56149604   175.84715856
 H      8   7   5     1.095877730406   109.63582849   239.98489402
 H      8   7   5     1.089741253693   107.84454272   358.52446679
 C      7   5   1     1.458898557131   124.31616879   359.26481157
 H     11   7   5     1.090836376364   109.92700799    28.99418066
 H     11   7   5     1.095651404417   107.44192446   145.70031765
 C     11   7   5     1.534138520473   113.40380660   266.90566400
 H     14  11   7     1.093018298108   110.46946057   282.89389117
 H     14  11   7     1.096093974073   109.24950926    41.45967433
 C      8   7   5     1.525304231948   111.06114815   123.88658085
 N     17   8   7     1.363797638948   118.22222055   281.09854350
 O     17   8   7     1.242161825206   119.18734412    99.19336253
 C     18  17   8     1.455506097548   125.59072535     6.70391788
 H     20  18  17     1.096921145753   110.05565419   108.28327173
 H     20  18  17     1.095533659912   109.15757151   226.83580982
 H     20  18  17     1.087627233936   112.02774758   347.54483504
 C     18  17   8     1.454315990423   118.39587566   176.32421267
 H     24  18  17     1.096819948761   110.74786018   256.29113500
 H     24  18  17     1.088500344511   108.53543280    16.47430252
 H     24  18  17     1.093594531808   109.34712165   136.64234053
 C     14  11   7     1.518927253031   109.85158726   158.57187205
 O     28  14  11     1.232769240369   121.57008995   312.51651288
 N     28  14  11     1.364112898553   115.69482817   134.99328516
 H     30  28  14     1.012000494071   117.31953064   185.22065003
 H     30  28  14     1.009201664684   121.32495257   344.53704407

---------------------------
INTERNAL COORDINATES (A.U.)
---------------------------
 C      0   0   0     0.000000000000     0.00000000     0.00000000
 H      1   0   0     2.064187395840     0.00000000     0.00000000
 H      1   2   0     2.068869547755   107.44708491     0.00000000
 H      1   2   3     2.059022043182   109.93493684   118.05469566
 C      1   2   3     2.892398548098   113.93546463   237.58078161
 O      5   1   2     2.302175101517   121.44303647   226.08636556
 N      5   1   2     2.611364948752   115.60572583    46.03811749
 C      7   5   1     2.755301708845   118.56149604   175.84715856
 H      8   7   5     2.070908786731   109.63582849   239.98489402
 H      8   7   5     2.059312526315   107.84454272   358.52446679
 C      7   5   1     2.756918730151   124.31616879   359.26481157
 H     11   7   5     2.061382008248   109.92700799    28.99418066
 H     11   7   5     2.070481092594   107.44192446   145.70031765
 C     11   7   5     2.899101655194   113.40380660   266.90566400
 H     14  11   7     2.065505242790   110.46946057   282.89389117
 H     14  11   7     2.071317428040   109.24950926    41.45967433
 C      8   7   5     2.882407269294   111.06114815   123.88658085
 N     17   8   7     2.577204039700   118.22222055   281.09854350
 O     17   8   7     2.347345663652   119.18734412    99.19336253
 C     18  17   8     2.750507910619   125.59072535     6.70391788
 H     20  18  17     2.072880555980   110.05565419   108.28327173
 H     20  18  17     2.070258587726   109.15757151   226.83580982
 H     20  18  17     2.055317607934   112.02774758   347.54483504
 C     18  17   8     2.748258934082   118.39587566   176.32421267
 H     24  18  17     2.072689321380   110.74786018   256.29113500
 H     24  18  17     2.056967547804   108.53543280    16.47430252
 H     24  18  17     2.066594166671   109.34712165   136.64234053
 C     14  11   7     2.870356525578   109.85158726   158.57187205
 O     28  14  11     2.329596250620   121.57008995   312.51651288
 N     28  14  11     2.577799794016   115.69482817   134.99328516
 H     30  28  14     1.912403781187   117.31953064   185.22065003
 H     30  28  14     1.907114760149   121.32495257   344.53704407

---------------------
BASIS SET INFORMATION
---------------------
There are 4 groups of distinct atoms

 Group   1 Type C   : 10s4p1d contracted to 3s2p1d pattern {631/31/1}
 Group   2 Type H   : 4s contracted to 2s pattern {31}
 Group   3 Type O   : 10s4p1d contracted to 3s2p1d pattern {631/31/1}
 Group   4 Type N   : 10s4p1d contracted to 3s2p1d pattern {631/31/1}

Atom   0C    basis set group =>   1
Atom   1H    basis set group =>   2
Atom   2H    basis set group =>   2
Atom   3H    basis set group =>   2
Atom   4C    basis set group =>   1
Atom   5O    basis set group =>   3
Atom   6N    basis set group =>   4
Atom   7C    basis set group =>   1
Atom   8H    basis set group =>   2
Atom   9H    basis set group =>   2
Atom  10C    basis set group =>   1
Atom  11H    basis set group =>   2
Atom  12H    basis set group =>   2
Atom  13C    basis set group =>   1
Atom  14H    basis set group =>   2
Atom  15H    basis set group =>   2
Atom  16C    basis set group =>   1
Atom  17N    basis set group =>   4
Atom  18O    basis set group =>   3
Atom  19C    basis set group =>   1
Atom  20H    basis set group =>   2
Atom  21H    basis set group =>   2
Atom  22H    basis set group =>   2
Atom  23C    basis set group =>   1
Atom  24H    basis set group =>   2
Atom  25H    basis set group =>   2
Atom  26H    basis set group =>   2
Atom  27C    basis set group =>   1
Atom  28O    basis set group =>   3
Atom  29N    basis set group =>   4
Atom  30H    basis set group =>   2
Atom  31H    basis set group =>   2
---------------------------------
AUXILIARY/J BASIS SET INFORMATION
---------------------------------
There are 4 groups of distinct atoms

 Group   1 Type C   : 13s11p10d2f contracted to 13s11p10d2f pattern {1111111111111/11111111111/1111111111/11}
 Group   2 Type H   : 9s2p contracted to 9s2p pattern {111111111/11}
 Group   3 Type O   : 14s11p10d2f contracted to 14s11p10d2f pattern {11111111111111/11111111111/1111111111/11}
 Group   4 Type N   : 14s11p10d2f contracted to 14s11p10d2f pattern {11111111111111/11111111111/1111111111/11}

Atom   0C    basis set group =>   1
Atom   1H    basis set group =>   2
Atom   2H    basis set group =>   2
Atom   3H    basis set group =>   2
Atom   4C    basis set group =>   1
Atom   5O    basis set group =>   3
Atom   6N    basis set group =>   4
Atom   7C    basis set group =>   1
Atom   8H    basis set group =>   2
Atom   9H    basis set group =>   2
Atom  10C    basis set group =>   1
Atom  11H    basis set group =>   2
Atom  12H    basis set group =>   2
Atom  13C    basis set group =>   1
Atom  14H    basis set group =>   2
Atom  15H    basis set group =>   2
Atom  16C    basis set group =>   1
Atom  17N    basis set group =>   4
Atom  18O    basis set group =>   3
Atom  19C    basis set group =>   1
Atom  20H    basis set group =>   2
Atom  21H    basis set group =>   2
Atom  22H    basis set group =>   2
Atom  23C    basis set group =>   1
Atom  24H    basis set group =>   2
Atom  25H    basis set group =>   2
Atom  26H    basis set group =>   2
Atom  27C    basis set group =>   1
Atom  28O    basis set group =>   3
Atom  29N    basis set group =>   4
Atom  30H    basis set group =>   2
Atom  31H    basis set group =>   2
---------------------------------
AUXILIARY/C BASIS SET INFORMATION
---------------------------------
There are 4 groups of distinct atoms

 Group   1 Type C   : 13s11p10d2f contracted to 13s11p10d2f pattern {1111111111111/11111111111/1111111111/11}
 Group   2 Type H   : 9s2p contracted to 9s2p pattern {111111111/11}
 Group   3 Type O   : 14s11p10d2f contracted to 14s11p10d2f pattern {11111111111111/11111111111/1111111111/11}
 Group   4 Type N   : 14s11p10d2f contracted to 14s11p10d2f pattern {11111111111111/11111111111/1111111111/11}

Atom   0C    basis set group =>   1
Atom   1H    basis set group =>   2
Atom   2H    basis set group =>   2
Atom   3H    basis set group =>   2
Atom   4C    basis set group =>   1
Atom   5O    basis set group =>   3
Atom   6N    basis set group =>   4
Atom   7C    basis set group =>   1
Atom   8H    basis set group =>   2
Atom   9H    basis set group =>   2
Atom  10C    basis set group =>   1
Atom  11H    basis set group =>   2
Atom  12H    basis set group =>   2
Atom  13C    basis set group =>   1
Atom  14H    basis set group =>   2
Atom  15H    basis set group =>   2
Atom  16C    basis set group =>   1
Atom  17N    basis set group =>   4
Atom  18O    basis set group =>   3
Atom  19C    basis set group =>   1
Atom  20H    basis set group =>   2
Atom  21H    basis set group =>   2
Atom  22H    basis set group =>   2
Atom  23C    basis set group =>   1
Atom  24H    basis set group =>   2
Atom  25H    basis set group =>   2
Atom  26H    basis set group =>   2
Atom  27C    basis set group =>   1
Atom  28O    basis set group =>   3
Atom  29N    basis set group =>   4
Atom  30H    basis set group =>   2
Atom  31H    basis set group =>   2
----------------------------------
AUXILIARY/JK BASIS SET INFORMATION
----------------------------------
There are 4 groups of distinct atoms

 Group   1 Type C   : 13s11p10d2f contracted to 13s11p10d2f pattern {1111111111111/11111111111/1111111111/11}
 Group   2 Type H   : 9s2p contracted to 9s2p pattern {111111111/11}
 Group   3 Type O   : 14s11p10d2f contracted to 14s11p10d2f pattern {11111111111111/11111111111/1111111111/11}
 Group   4 Type N   : 14s11p10d2f contracted to 14s11p10d2f pattern {11111111111111/11111111111/1111111111/11}

Atom   0C    basis set group =>   1
Atom   1H    basis set group =>   2
Atom   2H    basis set group =>   2
Atom   3H    basis set group =>   2
Atom   4C    basis set group =>   1
Atom   5O    basis set group =>   3
Atom   6N    basis set group =>   4
Atom   7C    basis set group =>   1
Atom   8H    basis set group =>   2
Atom   9H    basis set group =>   2
Atom  10C    basis set group =>   1
Atom  11H    basis set group =>   2
Atom  12H    basis set group =>   2
Atom  13C    basis set group =>   1
Atom  14H    basis set group =>   2
Atom  15H    basis set group =>   2
Atom  16C    basis set group =>   1
Atom  17N    basis set group =>   4
Atom  18O    basis set group =>   3
Atom  19C    basis set group =>   1
Atom  20H    basis set group =>   2
Atom  21H    basis set group =>   2
Atom  22H    basis set group =>   2
Atom  23C    basis set group =>   1
Atom  24H    basis set group =>   2
Atom  25H    basis set group =>   2
Atom  26H    basis set group =>   2
Atom  27C    basis set group =>   1
Atom  28O    basis set group =>   3
Atom  29N    basis set group =>   4
Atom  30H    basis set group =>   2
Atom  31H    basis set group =>   2


           ************************************************************
           *        Program running with 4 parallel MPI-processes     *
           *              working on a common directory               *
           ************************************************************
------------------------------------------------------------------------------
                           ORCA GTO INTEGRAL CALCULATION
                           -- RI-GTO INTEGRALS CHOSEN --
------------------------------------------------------------------------------
------------------------------------------------------------------------------
                   ___                                                        
                  /   \      - P O W E R E D   B Y -                         
                 /     \                                                     
                 |  |  |   _    _      __       _____    __    __             
                 |  |  |  | |  | |    /  \     |  _  \  |  |  /  |          
                  \  \/   | |  | |   /    \    | | | |  |  | /  /          
                 / \  \   | |__| |  /  /\  \   | |_| |  |  |/  /          
                |  |  |   |  __  | /  /__\  \  |    /   |      \           
                |  |  |   | |  | | |   __   |  |    \   |  |\   \          
                \     /   | |  | | |  |  |  |  | |\  \  |  | \   \       
                 \___/    |_|  |_| |__|  |__|  |_| \__\ |__|  \__/        
                                                                              
                      - O R C A' S   B I G   F R I E N D -                    
                                      &                                       
                       - I N T E G R A L  F E E D E R -                       
                                                                              
 v1 FN, 2020, v2 2021                                                         
------------------------------------------------------------------------------


Reading SHARK input file Nq_water.SHARKINP.tmp ... ok
----------------------
SHARK INTEGRAL PACKAGE
----------------------

Number of atoms                             ...     32
Number of basis functions                   ...    244
Number of shells                            ...    124
Maximum angular momentum                    ...      2
Integral batch strategy                     ... SHARK/LIBINT Hybrid
RI-J (if used) integral strategy            ... SPLIT-RIJ (Revised 2003 algorithm where possible)
Printlevel                                  ...      1
Contraction scheme used                     ... SEGMENTED contraction
Coulomb Range Separation                    ... NOT USED
Exchange Range Separation                   ... NOT USED
Finite Nucleus Model                        ... NOT USED
Auxiliary Coulomb fitting basis             ... AVAILABLE
   # of basis functions in Aux-J            ...   1911
   # of shells in Aux-J                     ...    733
   Maximum angular momentum in Aux-J        ...      3
Auxiliary J/K fitting basis                 ... AVAILABLE
   # of basis functions in Aux-JK           ...   1911
   # of shells in Aux-JK                    ...    733
   Maximum angular momentum in Aux-JK       ...      3
Auxiliary Correlation fitting basis         ... AVAILABLE
   # of basis functions in Aux-C            ...   1911
   # of shells in Aux-C                     ...    733
   Maximum angular momentum in Aux-C        ...      3
Auxiliary 'external' fitting basis          ... NOT available
Integral threshold                          ...     2.500000e-11
Primitive cut-off                           ...     2.500000e-12
Primitive pair pre-selection threshold      ...     2.500000e-12

Calculating pre-screening integrals         ... done (  0.0 sec) Dimension = 124
Organizing shell pair data                  ... done (  0.0 sec)
Shell pair information
Total number of shell pairs                 ...      7750
Shell pairs after pre-screening             ...      6598
Total number of primitive shell pairs       ...     43437
Primitive shell pairs kept                  ...     21520
          la=0 lb=0:   2617 shell pairs
          la=1 lb=0:   2118 shell pairs
          la=1 lb=1:    440 shell pairs
          la=2 lb=0:    935 shell pairs
          la=2 lb=1:    394 shell pairs
          la=2 lb=2:     94 shell pairs

Calculating one electron integrals          ... done (  0.0 sec)
Calculating RI/J V-Matrix + Cholesky decomp.... done (  0.6 sec)
Calculating RI/JK V-Matrix + Cholesky decomp... done (  0.2 sec)
Calculating RI/C V-Matrix + Cholesky decomp.... done (  0.2 sec)
Calculating Nuclear repulsion               ... done (  0.0 sec) ENN=   1087.461486778013 Eh

SHARK setup successfully completed in   1.6 seconds

Maximum memory used throughout the entire GTOINT-calculation: 32.4 MB


           ************************************************************
           *        Program running with 4 parallel MPI-processes     *
           *              working on a common directory               *
           ************************************************************
-------------------------------------------------------------------------------
                                 ORCA SCF
-------------------------------------------------------------------------------

------------
SCF SETTINGS
------------
Hamiltonian:
 Density Functional     Method          .... DFT(GTOs)
 Exchange Functional    Exchange        .... B88
   X-Alpha parameter    XAlpha          ....  0.666667
   Becke's b parameter  XBeta           ....  0.004200
 Correlation Functional Correlation     .... LYP
 LDA part of GGA corr.  LDAOpt          .... VWN-5
 Gradients option       PostSCFGGA      .... off
 Hybrid DFT is turned on
   Fraction HF Exchange ScalHFX         ....  0.200000
   Scaling of DF-GGA-X  ScalDFX         ....  0.720000
   Scaling of DF-GGA-C  ScalDFC         ....  0.810000
   Scaling of DF-LDA-C  ScalLDAC        ....  1.000000
   Perturbative correction              ....  0.000000
   Density functional embedding theory  .... OFF
   NL short-range parameter             ....  4.800000
 RI-approximation to the Coulomb term is turned on
   Number of AuxJ basis functions       .... 1911
   RIJ-COSX (HFX calculated with COS-X)).... on


General Settings:
 Integral files         IntName         .... Nq_water
 Hartree-Fock type      HFTyp           .... RHF
 Total Charge           Charge          ....    0
 Multiplicity           Mult            ....    1
 Number of Electrons    NEL             ....  116
 Basis Dimension        Dim             ....  244
 Nuclear Repulsion      ENuc            ....   1087.4614867780 Eh

Convergence Acceleration:
 DIIS                   CNVDIIS         .... on
   Start iteration      DIISMaxIt       ....    12
   Startup error        DIISStart       ....  0.200000
   # of expansion vecs  DIISMaxEq       ....     5
   Bias factor          DIISBfac        ....   1.050
   Max. coefficient     DIISMaxC        ....  10.000
 Trust-Rad. Augm. Hess. CNVTRAH         .... auto
   Auto Start mean grad. ratio tolernc. ....  1.125000
   Auto Start start iteration           ....    20
   Auto Start num. interpolation iter.  ....    10
   Max. Number of Micro iterations      ....    16
   Max. Number of Macro iterations      .... Maxiter - #DIIS iter
   Number of Davidson start vectors     ....     2
   Converg. threshold I  (grad. norm)   ....   1.000e-05
   Converg. threshold II (energy diff.) ....   1.000e-08
   Grad. Scal. Fac. for Micro threshold ....   0.100
   Minimum threshold for Micro iter.    ....   0.010
   NR start threshold (gradient norm)   ....   0.001
   Initial trust radius                 ....   0.400
   Minimum AH scaling param. (alpha)    ....   1.000
   Maximum AH scaling param. (alpha)    .... 1000.000
   Orbital update algorithm             .... Taylor
   White noise on init. David. guess    .... on
   Maximum white noise                  ....   0.010
   Quad. conv. algorithm                .... NR
 SOSCF                  CNVSOSCF        .... on
   Start iteration      SOSCFMaxIt      ....   150
   Startup grad/error   SOSCFStart      ....  0.003300
 Level Shifting         CNVShift        .... on
   Level shift para.    LevelShift      ....    0.2500
   Turn off err/grad.   ShiftErr        ....    0.0010
 Zerner damping         CNVZerner       .... off
 Static damping         CNVDamp         .... on
   Fraction old density DampFac         ....    0.7000
   Max. Damping (<1)    DampMax         ....    0.9800
   Min. Damping (>=0)   DampMin         ....    0.0000
   Turn off err/grad.   DampErr         ....    0.1000
 Fernandez-Rico         CNVRico         .... off

SCF Procedure:
 Maximum # iterations   MaxIter         ....   125
 SCF integral mode      SCFMode         .... Direct
   Integral package                     .... SHARK and LIBINT hybrid scheme
 Reset frequency        DirectResetFreq ....    20
 Integral Threshold     Thresh          ....  2.500e-11 Eh
 Primitive CutOff       TCut            ....  2.500e-12 Eh

Convergence Tolerance:
 Convergence Check Mode ConvCheckMode   .... Total+1el-Energy
 Convergence forced     ConvForced      .... 0
 Energy Change          TolE            ....  1.000e-08 Eh
 1-El. energy change                    ....  1.000e-05 Eh
 Orbital Gradient       TolG            ....  1.000e-05
 Orbital Rotation angle TolX            ....  1.000e-05
 DIIS Error             TolErr          ....  5.000e-07


Diagonalization of the overlap matrix:
Smallest eigenvalue                        ... 2.790e-03
Time for diagonalization                   ...    0.009 sec
Threshold for overlap eigenvalues          ... 1.000e-08
Number of eigenvalues below threshold      ... 0
Time for construction of square roots      ...    0.026 sec
Total time needed                          ...    0.035 sec

Time for model grid setup =    0.351 sec

------------------------------
INITIAL GUESS: MODEL POTENTIAL
------------------------------
Loading Hartree-Fock densities                     ... done
Calculating cut-offs                               ... done
Initializing the effective Hamiltonian             ... done
Setting up the integral package (SHARK)            ... done
Starting the Coulomb interaction                   ... done (   0.4 sec)
Reading the grid                                   ... done
Mapping shells                                     ... done
Starting the XC term evaluation                    ... done (   0.1 sec)
  promolecular density results
     # of electrons  =    115.997625680
     EX              =    -95.672647301
     EC              =     -3.948673275
     EX+EC           =    -99.621320575
Transforming the Hamiltonian                       ... done (   0.0 sec)
Diagonalizing the Hamiltonian                      ... done (   0.0 sec)
Back transforming the eigenvectors                 ... done (   0.0 sec)
Now organizing SCF variables                       ... done
                      ------------------
                      INITIAL GUESS DONE (   1.0 sec)
                      ------------------
-------------------
DFT GRID GENERATION
-------------------

General Integration Accuracy     IntAcc      ... 4.388
Radial Grid Type                 RadialGrid  ... OptM3 with GC (2021)
Angular Grid (max. ang.)         AngularGrid ... 4 (Lebedev-302)
Angular grid pruning method      GridPruning ... 4 (adaptive)
Weight generation scheme         WeightScheme... Becke
Basis function cutoff            BFCut       ... 1.0000e-11
Integration weight cutoff        WCut        ... 1.0000e-14
Angular grids for H and He will be reduced by one unit
Partially contracted basis set               ... off
Rotationally invariant grid construction     ... off

Total number of grid points                  ...   143864
Total number of batches                      ...     2266
Average number of points per batch           ...       63
Average number of grid points per atom       ...     4496
Time for grid setup =    0.991 sec

--------------------
COSX GRID GENERATION
--------------------

GRIDX 1
-------
General Integration Accuracy     IntAcc      ... 3.816
Radial Grid Type                 RadialGrid  ... OptM3 with GC (2021)
Angular Grid (max. ang.)         AngularGrid ... 1 (Lebedev-50)
Angular grid pruning method      GridPruning ... 4 (adaptive)
Weight generation scheme         WeightScheme... Becke
Basis function cutoff            BFCut       ... 1.0000e-11
Integration weight cutoff        WCut        ... 1.0000e-14
Angular grids for H and He will be reduced by one unit
Partially contracted basis set               ... on
Rotationally invariant grid construction     ... off

Total number of grid points                  ...    18312
Total number of batches                      ...      306
Average number of points per batch           ...       59
Average number of grid points per atom       ...      572
UseSFitting                                  ... on

GRIDX 2
-------
General Integration Accuracy     IntAcc      ... 4.020
Radial Grid Type                 RadialGrid  ... OptM3 with GC (2021)
Angular Grid (max. ang.)         AngularGrid ... 2 (Lebedev-110)
Angular grid pruning method      GridPruning ... 4 (adaptive)
Weight generation scheme         WeightScheme... Becke
Basis function cutoff            BFCut       ... 1.0000e-11
Integration weight cutoff        WCut        ... 1.0000e-14
Angular grids for H and He will be reduced by one unit
Partially contracted basis set               ... on
Rotationally invariant grid construction     ... off

Total number of grid points                  ...    38997
Total number of batches                      ...      625
Average number of points per batch           ...       62
Average number of grid points per atom       ...     1219
UseSFitting                                  ... on

GRIDX 3
-------
General Integration Accuracy     IntAcc      ... 4.338
Radial Grid Type                 RadialGrid  ... OptM3 with GC (2021)
Angular Grid (max. ang.)         AngularGrid ... 3 (Lebedev-194)
Angular grid pruning method      GridPruning ... 4 (adaptive)
Weight generation scheme         WeightScheme... Becke
Basis function cutoff            BFCut       ... 1.0000e-11
Integration weight cutoff        WCut        ... 1.0000e-14
Angular grids for H and He will be reduced by one unit
Partially contracted basis set               ... on
Rotationally invariant grid construction     ... off

Total number of grid points                  ...    85009
Total number of batches                      ...     1348
Average number of points per batch           ...       63
Average number of grid points per atom       ...     2657
UseSFitting                                  ... on

Time for X-Grid setup             =    1.106 sec


--------------------
CPCM SOLVATION MODEL
--------------------
CPCM parameters:
  Epsilon                                         ...      80.4000
  Refrac                                          ...       1.3300
  Rsolv                                           ...       1.3000
  Surface type                                    ... GAUSSIAN VDW
  Epsilon function type                           ...         CPCM
Radii:
 Radius for C  used is    3.8550 Bohr (=   2.0400 Ang.)
 Radius for H  used is    2.4944 Bohr (=   1.3200 Ang.)
 Radius for O  used is    3.4469 Bohr (=   1.8240 Ang.)
 Radius for N  used is    3.5149 Bohr (=   1.8600 Ang.)
Calculating surface                               ...        done! (  0.0s)
GEPOL surface points                              ...         1691
GEPOL Volume                                      ...    1781.5363
GEPOL Surface-area                                ...     953.1009
Calculating surface distance matrix               ...        done! (  0.0s)
Performing Cholesky decomposition & store         ...        done! (  0.1s)
Overall time for CPCM initialization              ...                 0.1s
--------------
SCF ITERATIONS
--------------
ITER       Energy         Delta-E        Max-DP      RMS-DP      [F,P]     Damp
               ***  Starting incremental Fock matrix formation  ***
  0   -742.2453536916   0.000000000000 0.09874600  0.00225722  0.2783027 0.7000
  1   -742.4793994612  -0.234045769606 0.05785057  0.00146243  0.1151835 0.7000
                               ***Turning on DIIS***
  2   -742.5661962137  -0.086796752546 0.07125252  0.00217773  0.0407084 0.0000
  3   -742.7091040866  -0.142907872897 0.03720787  0.00098674  0.0569654 0.0000
  4   -742.7370775024  -0.027973415783 0.00894932  0.00031170  0.0126371 0.0000
  5   -742.7390534297  -0.001975927310 0.00316433  0.00009510  0.0043793 0.0000
                      *** Initiating the SOSCF procedure ***
                           *** Shutting down DIIS ***
                      *** Re-Reading the Fockian *** 
                      *** Removing any level shift *** 
ITER      Energy       Delta-E        Grad      Rot      Max-DP    RMS-DP
  6   -742.73914981  -0.0000963793  0.000222  0.000222  0.000996  0.000030
               *** Restarting incremental Fock matrix formation ***
  7   -742.73922425  -0.0000744429  0.000079  0.000287  0.000512  0.000019
  8   -742.73922472  -0.0000004715  0.000098  0.000190  0.000404  0.000008
  9   -742.73922559  -0.0000008616  0.000035  0.000087  0.000139  0.000005
 10   -742.73922558   0.0000000054  0.000041  0.000057  0.000107  0.000002
 11   -742.73922567  -0.0000000919  0.000011  0.000024  0.000043  0.000001
 12   -742.73922567   0.0000000049  0.000008  0.000009  0.000022  0.000001
 13   -742.73922569  -0.0000000196  0.000003  0.000008  0.000011  0.000000
 14   -742.73922569  -0.0000000078  0.000004  0.000005  0.000008  0.000000
                  ***Gradient check signals convergence***
              ***Rediagonalizing the Fockian in SOSCF/NRSCF***

               *****************************************************
               *                     SUCCESS                       *
               *           SCF CONVERGED AFTER  15 CYCLES          *
               *****************************************************

Old exchange energy                            =    -19.471993318 Eh
New exchange energy                            =    -19.472004000 Eh
Exchange energy change after final integration =     -0.000010682 Eh
Total energy after final integration           =   -742.739236378 Eh
Final COS-X integration done in                =     9.049 sec

----------------
TOTAL SCF ENERGY
----------------

Total Energy       :         -742.73923638 Eh          -20210.96213 eV

Components:
Nuclear Repulsion  :         1087.46148678 Eh           29591.33145 eV
Electronic Energy  :        -1830.20072316 Eh          -49802.29358 eV
One Electron Energy:        -3171.26127489 Eh          -86294.40641 eV
Two Electron Energy:         1341.06055174 Eh           36492.11284 eV
Max COSX asymmetry :            0.00000209 Eh               0.00006 eV
CPCM Dielectric    :           -0.02864532 Eh              -0.77948 eV

Virial components:
Potential Energy   :        -1481.10081526 Eh          -40302.80214 eV
Kinetic Energy     :          738.36157888 Eh           20091.84001 eV
Virial Ratio       :            2.00592888


DFT components:
N(Alpha)           :       57.999954509896 electrons
N(Beta)            :       57.999954509896 electrons
N(Total)           :      115.999909019791 electrons
E(X)               :      -77.359833078984 Eh       
E(C)               :       -4.651968452441 Eh       
E(XC)              :      -82.011801531426 Eh       
DFET-embed. en.    :        0.000000000000 Eh       
CPCM Solvation Model Properties:
Surface-charge          :           -0.01766981
Charge-correction       :           -0.00009136 Eh              -0.00249 eV
Free-energy (cav+disp)  :  This term is not implemented in the current solvation scheme

---------------
SCF CONVERGENCE
---------------

  Last Energy change         ...   -2.2735e-09  Tolerance :   1.0000e-08
  Last MAX-Density change    ...    3.9968e-15  Tolerance :   1.0000e-07
  Last RMS-Density change    ...    4.7196e-17  Tolerance :   5.0000e-09
  Last Orbital Gradient      ...    3.6454e-07  Tolerance :   1.0000e-05
  Last Orbital Rotation      ...    8.9234e-07  Tolerance :   1.0000e-05

             **** THE GBW FILE WAS UPDATED (Nq_water.gbw) ****
             **** DENSITY Nq_water.scfp WAS UPDATED ****
             **** ENERGY FILE WAS UPDATED (Nq_water.en.tmp) ****
             **** THE GBW FILE WAS UPDATED (Nq_water.gbw) ****
             **** DENSITY Nq_water.scfp WAS UPDATED ****
----------------
ORBITAL ENERGIES
----------------

  NO   OCC          E(Eh)            E(eV) 
   0   2.0000     -19.115378      -520.1559 
   1   2.0000     -19.110483      -520.0227 
   2   2.0000     -19.108254      -519.9620 
   3   2.0000     -14.359580      -390.7440 
   4   2.0000     -14.359481      -390.7413 
   5   2.0000     -14.340802      -390.2331 
   6   2.0000     -10.285696      -279.8880 
   7   2.0000     -10.284978      -279.8685 
   8   2.0000     -10.279563      -279.7211 
   9   2.0000     -10.212024      -277.8833 
  10   2.0000     -10.210330      -277.8372 
  11   2.0000     -10.197519      -277.4886 
  12   2.0000     -10.194253      -277.3997 
  13   2.0000     -10.179403      -276.9956 
  14   2.0000     -10.171647      -276.7846 
  15   2.0000      -1.042058       -28.3558 
  16   2.0000      -1.027909       -27.9708 
  17   2.0000      -1.026886       -27.9430 
  18   2.0000      -0.936312       -25.4783 
  19   2.0000      -0.927446       -25.2371 
  20   2.0000      -0.895469       -24.3670 
  21   2.0000      -0.775429       -21.1005 
  22   2.0000      -0.753313       -20.4987 
  23   2.0000      -0.717645       -19.5281 
  24   2.0000      -0.706186       -19.2163 
  25   2.0000      -0.672492       -18.2994 
  26   2.0000      -0.659581       -17.9481 
  27   2.0000      -0.575380       -15.6569 
  28   2.0000      -0.551271       -15.0008 
  29   2.0000      -0.538947       -14.6655 
  30   2.0000      -0.525463       -14.2986 
  31   2.0000      -0.513408       -13.9705 
  32   2.0000      -0.489162       -13.3108 
  33   2.0000      -0.479374       -13.0444 
  34   2.0000      -0.469671       -12.7804 
  35   2.0000      -0.463487       -12.6121 
  36   2.0000      -0.456788       -12.4298 
  37   2.0000      -0.447701       -12.1826 
  38   2.0000      -0.429600       -11.6900 
  39   2.0000      -0.415872       -11.3165 
  40   2.0000      -0.407841       -11.0979 
  41   2.0000      -0.404323       -11.0022 
  42   2.0000      -0.399328       -10.8663 
  43   2.0000      -0.395193       -10.7537 
  44   2.0000      -0.393025       -10.6948 
  45   2.0000      -0.389214       -10.5911 
  46   2.0000      -0.379468       -10.3258 
  47   2.0000      -0.371812       -10.1175 
  48   2.0000      -0.371539       -10.1101 
  49   2.0000      -0.359894        -9.7932 
  50   2.0000      -0.351955        -9.5772 
  51   2.0000      -0.341097        -9.2817 
  52   2.0000      -0.267583        -7.2813 
  53   2.0000      -0.261013        -7.1025 
  54   2.0000      -0.257084        -6.9956 
  55   2.0000      -0.253781        -6.9057 
  56   2.0000      -0.237564        -6.4644 
  57   2.0000      -0.234358        -6.3772 
  58   0.0000       0.013416         0.3651 
  59   0.0000       0.022973         0.6251 
  60   0.0000       0.032078         0.8729 
  61   0.0000       0.086864         2.3637 
  62   0.0000       0.108943         2.9645 
  63   0.0000       0.116107         3.1594 
  64   0.0000       0.119695         3.2571 
  65   0.0000       0.136539         3.7154 
  66   0.0000       0.144154         3.9226 
  67   0.0000       0.148891         4.0515 
  68   0.0000       0.161609         4.3976 
  69   0.0000       0.165172         4.4946 
  70   0.0000       0.167908         4.5690 
  71   0.0000       0.172073         4.6824 
  72   0.0000       0.179617         4.8876 
  73   0.0000       0.185462         5.0467 
  74   0.0000       0.192531         5.2390 
  75   0.0000       0.195218         5.3122 
  76   0.0000       0.196807         5.3554 
  77   0.0000       0.206582         5.6214 
  78   0.0000       0.216628         5.8947 
  79   0.0000       0.227784         6.1983 
  80   0.0000       0.229857         6.2547 
  81   0.0000       0.238384         6.4868 
  82   0.0000       0.241973         6.5844 
  83   0.0000       0.258274         7.0280 
  84   0.0000       0.279391         7.6026 
  85   0.0000       0.291029         7.9193 
  86   0.0000       0.329547         8.9674 
  87   0.0000       0.341951         9.3049 
  88   0.0000       0.362011         9.8508 
  89   0.0000       0.378371        10.2960 
  90   0.0000       0.405578        11.0363 
  91   0.0000       0.421840        11.4788 
  92   0.0000       0.479132        13.0378 
  93   0.0000       0.500606        13.6222 
  94   0.0000       0.510605        13.8943 
  95   0.0000       0.513870        13.9831 
  96   0.0000       0.526249        14.3200 
  97   0.0000       0.537390        14.6231 
  98   0.0000       0.551978        15.0201 
  99   0.0000       0.569070        15.4852 
 100   0.0000       0.574633        15.6366 
 101   0.0000       0.594541        16.1783 
 102   0.0000       0.608390        16.5551 
 103   0.0000       0.610143        16.6028 
 104   0.0000       0.625743        17.0273 
 105   0.0000       0.641769        17.4634 
 106   0.0000       0.650225        17.6935 
 107   0.0000       0.662408        18.0251 
 108   0.0000       0.670299        18.2398 
 109   0.0000       0.673364        18.3232 
 110   0.0000       0.684359        18.6223 
 111   0.0000       0.689794        18.7702 
 112   0.0000       0.701064        19.0769 
 113   0.0000       0.720851        19.6154 
 114   0.0000       0.725482        19.7414 
 115   0.0000       0.755855        20.5679 
 116   0.0000       0.758471        20.6391 
 117   0.0000       0.767592        20.8872 
 118   0.0000       0.788858        21.4659 
 119   0.0000       0.800153        21.7733 
 120   0.0000       0.808593        22.0029 
 121   0.0000       0.820017        22.3138 
 122   0.0000       0.831269        22.6200 
 123   0.0000       0.838758        22.8238 
 124   0.0000       0.853909        23.2360 
 125   0.0000       0.858666        23.3655 
 126   0.0000       0.870263        23.6811 
 127   0.0000       0.878716        23.9111 
 128   0.0000       0.885420        24.0935 
 129   0.0000       0.893262        24.3069 
 130   0.0000       0.897589        24.4246 
 131   0.0000       0.899867        24.4866 
 132   0.0000       0.912789        24.8382 
 133   0.0000       0.923300        25.1243 
 134   0.0000       0.927538        25.2396 
 135   0.0000       0.935342        25.4519 
 136   0.0000       0.943842        25.6832 
 137   0.0000       0.963866        26.2281 
 138   0.0000       0.972489        26.4628 
 139   0.0000       0.978659        26.6307 
 140   0.0000       0.987934        26.8830 
 141   0.0000       0.995134        27.0790 
 142   0.0000       1.005876        27.3713 
 143   0.0000       1.010491        27.4969 
 144   0.0000       1.033614        28.1261 
 145   0.0000       1.043472        28.3943 
 146   0.0000       1.071348        29.1529 
 147   0.0000       1.098845        29.9011 
 148   0.0000       1.118051        30.4237 
 149   0.0000       1.137532        30.9538 
 150   0.0000       1.149985        31.2927 
 151   0.0000       1.159966        31.5643 
 152   0.0000       1.172691        31.9105 
 153   0.0000       1.221416        33.2364 
 154   0.0000       1.257363        34.2146 
 155   0.0000       1.269966        34.5575 
 156   0.0000       1.276422        34.7332 
 157   0.0000       1.310734        35.6669 
 158   0.0000       1.327858        36.1329 
 159   0.0000       1.343957        36.5709 
 160   0.0000       1.361409        37.0458 
 161   0.0000       1.406036        38.2602 
 162   0.0000       1.416426        38.5429 
 163   0.0000       1.426540        38.8181 
 164   0.0000       1.433461        39.0065 
 165   0.0000       1.438442        39.1420 
 166   0.0000       1.465662        39.8827 
 167   0.0000       1.485690        40.4277 
 168   0.0000       1.500156        40.8213 
 169   0.0000       1.542014        41.9603 
 170   0.0000       1.581296        43.0292 
 171   0.0000       1.619276        44.0627 
 172   0.0000       1.666393        45.3449 
 173   0.0000       1.693260        46.0760 
 174   0.0000       1.710777        46.5526 
 175   0.0000       1.721833        46.8535 
 176   0.0000       1.740374        47.3580 
 177   0.0000       1.755818        47.7782 
 178   0.0000       1.781890        48.4877 
 179   0.0000       1.787781        48.6480 
 180   0.0000       1.802770        49.0559 
 181   0.0000       1.803657        49.0800 
 182   0.0000       1.828475        49.7553 
 183   0.0000       1.843149        50.1546 
 184   0.0000       1.848762        50.3074 
 185   0.0000       1.885481        51.3066 
 186   0.0000       1.886920        51.3457 
 187   0.0000       1.902840        51.7789 
 188   0.0000       1.908714        51.9388 
 189   0.0000       1.925143        52.3858 
 190   0.0000       1.947083        52.9828 
 191   0.0000       1.950215        53.0680 
 192   0.0000       1.961474        53.3744 
 193   0.0000       1.973209        53.6938 
 194   0.0000       1.984909        54.0121 
 195   0.0000       1.991250        54.1847 
 196   0.0000       2.025334        55.1121 
 197   0.0000       2.030916        55.2640 
 198   0.0000       2.043801        55.6147 
 199   0.0000       2.054132        55.8958 
 200   0.0000       2.073729        56.4290 
 201   0.0000       2.086916        56.7879 
 202   0.0000       2.097765        57.0831 
 203   0.0000       2.106673        57.3255 
 204   0.0000       2.138049        58.1793 
 205   0.0000       2.152828        58.5814 
 206   0.0000       2.199744        59.8581 
 207   0.0000       2.212532        60.2061 
 208   0.0000       2.221080        60.4386 
 209   0.0000       2.248559        61.1864 
 210   0.0000       2.264612        61.6232 
 211   0.0000       2.282284        62.1041 
 212   0.0000       2.286617        62.2220 
 213   0.0000       2.310370        62.8684 
 214   0.0000       2.326618        63.3105 
 215   0.0000       2.342057        63.7306 
 216   0.0000       2.369712        64.4831 
 217   0.0000       2.389969        65.0344 
 218   0.0000       2.418905        65.8217 
 219   0.0000       2.426119        66.0180 
 220   0.0000       2.426785        66.0362 
 221   0.0000       2.467554        67.1456 
 222   0.0000       2.491231        67.7898 
 223   0.0000       2.512893        68.3793 
 224   0.0000       2.550231        69.3953 
 225   0.0000       2.571813        69.9826 
 226   0.0000       2.609706        71.0137 
 227   0.0000       2.618021        71.2400 
 228   0.0000       2.640253        71.8449 
 229   0.0000       2.658693        72.3467 
 230   0.0000       2.669675        72.6456 
 231   0.0000       2.688697        73.1632 
 232   0.0000       2.722747        74.0897 
 233   0.0000       2.735930        74.4484 
 234   0.0000       2.745962        74.7214 
 235   0.0000       2.846150        77.4477 
 236   0.0000       2.937868        79.9435 
 237   0.0000       2.966555        80.7241 
 238   0.0000       2.988314        81.3162 
 239   0.0000       3.005395        81.7810 
 240   0.0000       3.012837        81.9834 
 241   0.0000       3.069396        83.5225 
 242   0.0000       3.165382        86.1344 
 243   0.0000       3.184064        86.6428 

                    ********************************
                    * MULLIKEN POPULATION ANALYSIS *
                    ********************************

-----------------------
MULLIKEN ATOMIC CHARGES
-----------------------
   0 C :   -0.565188
   1 H :    0.189663
   2 H :    0.199043
   3 H :    0.178909
   4 C :    0.530013
   5 O :   -0.513055
   6 N :   -0.377698
   7 C :   -0.247164
   8 H :    0.180361
   9 H :    0.202895
  10 C :   -0.175112
  11 H :    0.190138
  12 H :    0.181736
  13 C :   -0.375213
  14 H :    0.183289
  15 H :    0.195701
  16 C :    0.532244
  17 N :   -0.360979
  18 O :   -0.550202
  19 C :   -0.351581
  20 H :    0.172878
  21 H :    0.172729
  22 H :    0.198663
  23 C :   -0.329496
  24 H :    0.171425
  25 H :    0.183595
  26 H :    0.172534
  27 C :    0.537989
  28 O :   -0.534000
  29 N :   -0.739257
  30 H :    0.365704
  31 H :    0.379436
Sum of atomic charges:   -0.0000000

--------------------------------
MULLIKEN REDUCED ORBITAL CHARGES
--------------------------------
  0 C s       :     3.327261  s :     3.327261
      pz      :     1.101580  p :     3.206250
      px      :     1.003206
      py      :     1.101465
      dz2     :     0.005020  d :     0.031677
      dxz     :     0.005959
      dyz     :     0.007865
      dx2y2   :     0.006644
      dxy     :     0.006189
  1 H s       :     0.810337  s :     0.810337
  2 H s       :     0.800957  s :     0.800957
  3 H s       :     0.821091  s :     0.821091
  4 C s       :     2.980388  s :     2.980388
      pz      :     0.783716  p :     2.379038
      px      :     0.831384
      py      :     0.763938
      dz2     :     0.011641  d :     0.110562
      dxz     :     0.014250
      dyz     :     0.019265
      dx2y2   :     0.041542
      dxy     :     0.023863
  5 O s       :     3.851353  s :     3.851353
      pz      :     1.507788  p :     4.635603
      px      :     1.524559
      py      :     1.603256
      dz2     :     0.003104  d :     0.026098
      dxz     :     0.005674
      dyz     :     0.003615
      dx2y2   :     0.006300
      dxy     :     0.007404
  6 N s       :     3.533966  s :     3.533966
      pz      :     1.532716  p :     3.807274
      px      :     1.090967
      py      :     1.183590
      dz2     :     0.004352  d :     0.036458
      dxz     :     0.005395
      dyz     :     0.005715
      dx2y2   :     0.010810
      dxy     :     0.010186
  7 C s       :     3.249062  s :     3.249062
      pz      :     1.073065  p :     2.946056
      px      :     0.861473
      py      :     1.011518
      dz2     :     0.013472  d :     0.052046
      dxz     :     0.008229
      dyz     :     0.007096
      dx2y2   :     0.010029
      dxy     :     0.013220
  8 H s       :     0.819639  s :     0.819639
  9 H s       :     0.797105  s :     0.797105
 10 C s       :     3.218978  s :     3.218978
      pz      :     1.012054  p :     2.902276
      px      :     0.944697
      py      :     0.945525
      dz2     :     0.009780  d :     0.053859
      dxz     :     0.008360
      dyz     :     0.012812
      dx2y2   :     0.006186
      dxy     :     0.016720
 11 H s       :     0.809862  s :     0.809862
 12 H s       :     0.818264  s :     0.818264
 13 C s       :     3.279438  s :     3.279438
      pz      :     1.027304  p :     3.058836
      px      :     0.977565
      py      :     1.053967
      dz2     :     0.009352  d :     0.036939
      dxz     :     0.003093
      dyz     :     0.008520
      dx2y2   :     0.005472
      dxy     :     0.010502
 14 H s       :     0.816711  s :     0.816711
 15 H s       :     0.804299  s :     0.804299
 16 C s       :     2.982374  s :     2.982374
      pz      :     0.771564  p :     2.378080
      px      :     0.802978
      py      :     0.803538
      dz2     :     0.031787  d :     0.107302
      dxz     :     0.017606
      dyz     :     0.028065
      dx2y2   :     0.015356
      dxy     :     0.014488
 17 N s       :     3.534579  s :     3.534579
      pz      :     1.100561  p :     3.788629
      px      :     1.573414
      py      :     1.114654
      dz2     :     0.009110  d :     0.037771
      dxz     :     0.006871
      dyz     :     0.011165
      dx2y2   :     0.005899
      dxy     :     0.004726
 18 O s       :     3.864022  s :     3.864022
      pz      :     1.682673  p :     4.661368
      px      :     1.509403
      py      :     1.469291
      dz2     :     0.003690  d :     0.024812
      dxz     :     0.002305
      dyz     :     0.007428
      dx2y2   :     0.004908
      dxy     :     0.006482
 19 C s       :     3.271048  s :     3.271048
      pz      :     1.010305  p :     3.032432
      px      :     1.100716
      py      :     0.921411
      dz2     :     0.002788  d :     0.048101
      dxz     :     0.014285
      dyz     :     0.014022
      dx2y2   :     0.012510
      dxy     :     0.004495
 20 H s       :     0.827122  s :     0.827122
 21 H s       :     0.827271  s :     0.827271
 22 H s       :     0.801337  s :     0.801337
 23 C s       :     3.258708  s :     3.258708
      pz      :     1.044342  p :     3.022871
      px      :     1.086915
      py      :     0.891614
      dz2     :     0.002542  d :     0.047917
      dxz     :     0.012956
      dyz     :     0.014151
      dx2y2   :     0.011715
      dxy     :     0.006554
 24 H s       :     0.828575  s :     0.828575
 25 H s       :     0.816405  s :     0.816405
 26 H s       :     0.827466  s :     0.827466
 27 C s       :     2.989455  s :     2.989455
      pz      :     0.760989  p :     2.362551
      px      :     0.856465
      py      :     0.745097
      dz2     :     0.007470  d :     0.110005
      dxz     :     0.011454
      dyz     :     0.021189
      dx2y2   :     0.044333
      dxy     :     0.025559
 28 O s       :     3.850200  s :     3.850200
      pz      :     1.482295  p :     4.658704
      px      :     1.547241
      py      :     1.629168
      dz2     :     0.002788  d :     0.025096
      dxz     :     0.005456
      dyz     :     0.003721
      dx2y2   :     0.005841
      dxy     :     0.007289
 29 N s       :     3.597779  s :     3.597779
      pz      :     1.701447  p :     4.116544
      px      :     1.256455
      py      :     1.158642
      dz2     :     0.003820  d :     0.024935
      dxz     :     0.001116
      dyz     :     0.003093
      dx2y2   :     0.005644
      dxy     :     0.011263
 30 H s       :     0.634296  s :     0.634296
 31 H s       :     0.620564  s :     0.620564


                     *******************************
                     * LOEWDIN POPULATION ANALYSIS *
                     *******************************

----------------------
LOEWDIN ATOMIC CHARGES
----------------------
   0 C :   -0.397446
   1 H :    0.150436
   2 H :    0.159197
   3 H :    0.148913
   4 C :    0.113313
   5 O :   -0.311886
   6 N :   -0.073998
   7 C :   -0.178415
   8 H :    0.144705
   9 H :    0.158100
  10 C :   -0.157523
  11 H :    0.146844
  12 H :    0.143445
  13 C :   -0.271868
  14 H :    0.145687
  15 H :    0.157126
  16 C :    0.098956
  17 N :   -0.066790
  18 O :   -0.345563
  19 C :   -0.287362
  20 H :    0.133785
  21 H :    0.136020
  22 H :    0.150264
  23 C :   -0.280702
  24 H :    0.132930
  25 H :    0.147000
  26 H :    0.136944
  27 C :    0.112338
  28 O :   -0.336990
  29 N :   -0.354493
  30 H :    0.270280
  31 H :    0.276752

-------------------------------
LOEWDIN REDUCED ORBITAL CHARGES
-------------------------------
  0 C s       :     2.986337  s :     2.986337
      pz      :     1.142547  p :     3.349262
      px      :     1.067261
      py      :     1.139454
      dz2     :     0.009234  d :     0.061847
      dxz     :     0.011753
      dyz     :     0.014185
      dx2y2   :     0.014208
      dxy     :     0.012469
  1 H s       :     0.849564  s :     0.849564
  2 H s       :     0.840803  s :     0.840803
  3 H s       :     0.851087  s :     0.851087
  4 C s       :     2.848856  s :     2.848856
      pz      :     0.822063  p :     2.775890
      px      :     1.023040
      py      :     0.930787
      dz2     :     0.025781  d :     0.261941
      dxz     :     0.029438
      dyz     :     0.045809
      dx2y2   :     0.104851
      dxy     :     0.056062
  5 O s       :     3.549476  s :     3.549476
      pz      :     1.502638  p :     4.708196
      px      :     1.590912
      py      :     1.614646
      dz2     :     0.006797  d :     0.054214
      dxz     :     0.009302
      dyz     :     0.006404
      dx2y2   :     0.012938
      dxy     :     0.018773
  6 N s       :     3.096627  s :     3.096627
      pz      :     1.508044  p :     3.882405
      px      :     1.153818
      py      :     1.220543
      dz2     :     0.009003  d :     0.094966
      dxz     :     0.013385
      dyz     :     0.013493
      dx2y2   :     0.030704
      dxy     :     0.028382
  7 C s       :     2.930124  s :     2.930124
      pz      :     1.104398  p :     3.138033
      px      :     0.963150
      py      :     1.070485
      dz2     :     0.026821  d :     0.110258
      dxz     :     0.017307
      dyz     :     0.014971
      dx2y2   :     0.022705
      dxy     :     0.028453
  8 H s       :     0.855295  s :     0.855295
  9 H s       :     0.841900  s :     0.841900
 10 C s       :     2.920470  s :     2.920470
      pz      :     1.081135  p :     3.122741
      px      :     1.017612
      py      :     1.023995
      dz2     :     0.019402  d :     0.114312
      dxz     :     0.017635
      dyz     :     0.028613
      dx2y2   :     0.013214
      dxy     :     0.035447
 11 H s       :     0.853156  s :     0.853156
 12 H s       :     0.856555  s :     0.856555
 13 C s       :     2.948381  s :     2.948381
[...]
     61       0.000027   0.000005  -0.001193   0.001731   0.000006  -0.000003
     62       0.000060   0.000277   0.045643  -0.036262  -0.000023   0.000005
     63       0.001089   0.000524   0.137618  -0.101693   0.000046  -0.000013
     64       0.000044  -0.000034   0.001408   0.000659  -0.000000   0.000001
     65       0.000975   0.000549   0.119096  -0.087579   0.000043  -0.000017
     66      -0.000028  -0.000097  -0.030827   0.023973  -0.000019   0.000010
     67      -0.002289   0.000380  -0.643619   0.492098   0.000017  -0.000014
     68       0.001419  -0.000271   0.393885  -0.300492  -0.000016   0.000009
     69       0.000029   0.000063   0.005169   0.006910  -0.000002   0.000002
     70       0.000058   0.000113  -0.034026  -0.043793   0.000009  -0.000004
     71      -0.000010   0.000007  -0.043163  -0.056360  -0.000006   0.000003
     72      -0.000623  -0.000970  -0.074398  -0.098670  -0.000046   0.000031
     73      -0.000222  -0.000323  -0.026282  -0.033987  -0.000022   0.000014
     74       0.000391   0.000601   0.042364   0.056873   0.000032  -0.000027
     75       0.000085   0.000204  -0.104014  -0.137192   0.000001  -0.000000
     76      -0.000329  -0.000785   0.409731   0.538674  -0.000002  -0.000000
     77      -0.000357  -0.000771   0.395203   0.518171  -0.000007   0.000000
     78       0.000107  -0.000055   0.120802   0.152731   0.000035  -0.000009
     79      -0.000017  -0.000051   0.013791   0.019149  -0.000004   0.000005
     80       0.000106  -0.000007   0.084871   0.107437   0.000039  -0.000020
     81       0.000352   0.000561  -0.000016   0.000010   0.000372  -0.001151
     82      -0.000256  -0.000544  -0.000001   0.000003   0.001714  -0.000410
     83       0.000253   0.000458  -0.000007   0.000008  -0.000300  -0.000200
     84       0.000010   0.000072   0.000004  -0.000003  -0.000705   0.000541
     85       0.000259   0.000509   0.000002  -0.000003   0.000806  -0.000444
     86      -0.000173  -0.000329  -0.000001   0.000001  -0.000409   0.000286
     87      -0.000103  -0.000161   0.000004  -0.000004  -0.013589  -0.082957
     88       0.000051   0.000120   0.000007  -0.000002  -0.050767   0.008228
     89      -0.000054  -0.000099   0.000002   0.000004   0.014440  -0.024026
     90      -0.000209  -0.000204  -0.000002  -0.000004   0.684514   0.558588
     91      -0.000109  -0.000058   0.000019  -0.000014   0.349458   0.289471
     92      -0.000078  -0.000130   0.000003   0.000006   0.049007   0.036999
     93       0.000976   0.001617  -0.000002   0.000022  -0.493762   0.595473
     94      -0.000545  -0.001009  -0.000014  -0.000016   0.320032  -0.392937
     95       0.000375   0.000631  -0.000003   0.000012  -0.240203   0.293748


-----------
IR SPECTRUM
-----------

 Mode   freq       eps      Int      T**2         TX        TY        TZ
       cm**-1   L/(mol*cm) km/mol    a.u.
----------------------------------------------------------------------------
  6:     29.75   0.004540   22.94  0.047615  ( 0.012921 -0.096347 -0.195360)
  7:     36.31   0.001029    5.20  0.008842  (-0.062640 -0.058812  0.038202)
  8:     46.00   0.000071    0.36  0.000479  ( 0.020778  0.003920  0.005614)
  9:     62.39   0.001398    7.07  0.006993  (-0.070599  0.012764  0.042968)
 10:     70.99   0.001296    6.55  0.005695  ( 0.072377 -0.008234 -0.019727)
 11:     73.89   0.000216    1.09  0.000911  (-0.021395  0.008131  0.019670)
 12:     99.31   0.000592    2.99  0.001859  (-0.000293  0.034992 -0.025188)
 13:    111.87   0.003088   15.60  0.008613  ( 0.000940 -0.056756  0.073424)
 14:    132.94   0.001436    7.26  0.003370  (-0.052177  0.017685 -0.018301)
 15:    162.09   0.000605    3.06  0.001165  (-0.029666 -0.014024 -0.009417)
 16:    184.76   0.000257    1.30  0.000434  (-0.017352 -0.005954  0.009856)
 17:    199.85   0.000500    2.53  0.000781  (-0.017886 -0.011555 -0.018106)
 18:    205.27   0.066969  338.43  0.101808  ( 0.078092 -0.115597 -0.286962)
 19:    230.95   0.000502    2.54  0.000679  (-0.012874  0.022270  0.004113)
 20:    260.62   0.004145   20.95  0.004963  (-0.069776 -0.009630  0.001412)
 21:    278.40   0.000574    2.90  0.000644  ( 0.006927 -0.004468  0.023993)
 22:    347.16   0.002800   14.15  0.002517  ( 0.007472  0.004794 -0.049378)
 23:    358.07   0.000608    3.07  0.000530  ( 0.003208 -0.022763 -0.001222)
 24:    388.73   0.002708   13.68  0.002174  (-0.003670  0.022971 -0.040406)
 25:    429.49   0.000151    0.77  0.000110  ( 0.000453  0.009752 -0.003831)
 26:    448.28   0.003028   15.30  0.002108  (-0.043475 -0.004158 -0.014161)
 27:    461.85   0.002813   14.22  0.001901  (-0.000856  0.043087 -0.006602)
 28:    500.08   0.004184   21.14  0.002611  (-0.048759  0.005269  0.014338)
 29:    544.17   0.003439   17.38  0.001972  (-0.019609 -0.032538  0.022993)
 30:    575.50   0.005851   29.57  0.003173  (-0.000593  0.055960 -0.006383)
 31:    590.82   0.003854   19.47  0.002035  ( 0.019132  0.030430  0.027265)
 32:    605.68   0.002780   14.05  0.001432  (-0.004759  0.008937 -0.036464)
 33:    643.26   0.001794    9.07  0.000871  (-0.009806 -0.001896  0.027763)
 34:    684.39   0.002178   11.00  0.000993  (-0.000686  0.007691  0.030550)
 35:    711.95   0.000589    2.98  0.000258  ( 0.008994  0.010953  0.007577)
 36:    761.70   0.002415   12.20  0.000989  (-0.011078  0.006232 -0.028770)
 37:    781.60   0.003117   15.75  0.001244  (-0.031070  0.014615 -0.008096)
 38:    826.13   0.003060   15.46  0.001156  ( 0.005356  0.010873  0.031764)
 39:    908.53   0.003317   16.76  0.001139  (-0.001849 -0.022582 -0.025017)
 40:    960.34   0.001939    9.80  0.000630  (-0.007868 -0.019361 -0.013909)
 41:   1002.64   0.006757   34.15  0.002103  (-0.007469  0.011649 -0.043723)
 42:   1014.38   0.007915   40.00  0.002435  (-0.012257 -0.047207  0.007510)
 43:   1040.59   0.007347   37.13  0.002203  ( 0.025607 -0.036134 -0.015555)
 44:   1055.28   0.003002   15.17  0.000888  ( 0.008895  0.022330 -0.017605)
 45:   1062.66   0.002040   10.31  0.000599  ( 0.002547 -0.005805  0.023638)
 46:   1089.45   0.002731   13.80  0.000782  ( 0.001080  0.026853  0.007755)
 47:   1100.55   0.003798   19.19  0.001077  ( 0.008861  0.011206  0.029544)
 48:   1127.16   0.002931   14.81  0.000812  (-0.013823  0.004911 -0.024420)
 49:   1135.47   0.000634    3.21  0.000174  (-0.007457  0.010795  0.001474)
 50:   1175.43   0.012805   64.71  0.003399  (-0.018257 -0.013745 -0.053640)
 51:   1184.54   0.000062    0.31  0.000016  ( 0.001834  0.001495  0.003267)
 52:   1224.55   0.008094   40.90  0.002063  ( 0.018317  0.001076 -0.041545)
 53:   1254.15   0.016031   81.02  0.003989  ( 0.006109 -0.060451 -0.017244)
 54:   1286.85   0.009526   48.14  0.002310  ( 0.008194  0.021475 -0.042212)
 55:   1289.06   0.024640  124.52  0.005965  ( 0.042088 -0.063777 -0.011230)
 56:   1304.42   0.015889   80.30  0.003801  (-0.018596  0.058782 -0.000198)
 57:   1331.72   0.027058  136.74  0.006341  ( 0.029409  0.073201 -0.010830)
 58:   1369.67   0.002729   13.79  0.000622  ( 0.008008  0.022623  0.006775)
 59:   1401.90   0.000964    4.87  0.000215  (-0.006718  0.010353 -0.007894)
 60:   1412.84   0.005295   26.76  0.001170  ( 0.030099  0.012754 -0.010045)
 61:   1434.44   0.039214  198.17  0.008531  ( 0.052694  0.074246  0.015553)
 62:   1439.74   0.013089   66.14  0.002837  ( 0.002427 -0.016537  0.050573)
 63:   1456.49   0.017828   90.10  0.003820  (-0.022047  0.036347 -0.044862)
 64:   1474.44   0.040717  205.77  0.008618  (-0.008821  0.085738  0.034481)
 65:   1482.78   0.000780    3.94  0.000164  (-0.012438 -0.003055 -0.000487)
 66:   1487.96   0.002266   11.45  0.000475  (-0.015909  0.006806 -0.013258)
 67:   1491.51   0.007822   39.53  0.001637  (-0.038646  0.011932  0.000845)
 68:   1503.14   0.005848   29.55  0.001214  (-0.026514  0.020781  0.008900)
 69:   1505.74   0.005213   26.34  0.001080  ( 0.010967 -0.009064 -0.029630)
 70:   1509.77   0.000854    4.32  0.000177  (-0.002737 -0.012997  0.000392)
 71:   1517.33   0.002336   11.80  0.000480  ( 0.017949  0.000386  0.012573)
 72:   1529.46   0.007326   37.02  0.001495  ( 0.034938  0.016196  0.003432)
 73:   1532.90   0.003855   19.48  0.000785  (-0.008075  0.002234  0.026732)
 74:   1554.50   0.017384   87.85  0.003490  ( 0.010732 -0.029530  0.050026)
 75:   1636.66   0.034732  175.52  0.006622  ( 0.032105  0.073375 -0.014413)
 76:   1703.74   0.170518  861.73  0.031233  (-0.075812 -0.127885 -0.095553)
 77:   1708.56   0.059754  301.97  0.010914  ( 0.042794 -0.029832 -0.090513)
 78:   1741.96   0.114907  580.69  0.020585  (-0.073922  0.112075 -0.050594)
 79:   3035.13   0.005985   30.25  0.000615  ( 0.007429 -0.020347 -0.012091)
 80:   3040.60   0.018458   93.28  0.001894  (-0.009990 -0.011313  0.040823)
 81:   3062.10   0.000536    2.71  0.000055  ( 0.003708 -0.001593  0.006194)
 82:   3063.23   0.000715    3.61  0.000073  (-0.006974 -0.000214  0.004919)
 83:   3083.46   0.003790   19.15  0.000384  (-0.007132 -0.003392 -0.017922)
 84:   3086.97   0.011151   56.35  0.001127  (-0.008944  0.010323  0.030671)
 85:   3098.94   0.018362   92.79  0.001849  ( 0.040666  0.003027  0.013644)
 86:   3100.99   0.000083    0.42  0.000008  ( 0.001359  0.000003 -0.002543)
 87:   3127.63   0.001671    8.44  0.000167  (-0.003043 -0.003556  0.012033)
 88:   3133.35   0.003024   15.28  0.000301  (-0.009056  0.014805  0.000093)
 89:   3162.10   0.001824    9.22  0.000180  (-0.006595  0.009242 -0.007147)
 90:   3169.60   0.004514   22.81  0.000444  ( 0.001981 -0.020374 -0.005041)
 91:   3175.38   0.001121    5.67  0.000110  ( 0.009211 -0.003853  0.003242)
 92:   3192.34   0.001117    5.65  0.000109  ( 0.008069 -0.006555 -0.001070)
 93:   3193.76   0.000522    2.64  0.000051  (-0.002943 -0.005946 -0.002639)
 94:   3574.63   0.017170   86.77  0.001499  ( 0.005520  0.036723 -0.010950)
 95:   3699.34   0.015907   80.39  0.001342  ( 0.034473 -0.005893  0.010895)

* The epsilon (eps) is given for a Dirac delta lineshape.
** The dipole moment derivative (T) already includes vibrational overlap.

The first frequency considered to be a vibration is 6
The total number of vibrations considered is 90


--------------------------
THERMOCHEMISTRY AT 298.15K
--------------------------

Temperature         ... 298.15 K
Pressure            ... 1.00 atm
Total Mass          ... 215.25 AMU

Throughout the following assumptions are being made:
  (1) The electronic state is orbitally nondegenerate
  (2) There are no thermally accessible electronically excited states
  (3) Hindered rotations indicated by low frequency modes are not
      treated as such but are treated as vibrations and this may
      cause some error
  (4) All equations used are the standard statistical mechanics
      equations for an ideal gas
  (5) All vibrations are strictly harmonic

freq.      29.75  E(vib)   ...       0.55 
freq.      36.31  E(vib)   ...       0.54 
freq.      46.00  E(vib)   ...       0.53 
freq.      62.39  E(vib)   ...       0.51 
freq.      70.99  E(vib)   ...       0.50 
freq.      73.89  E(vib)   ...       0.49 
freq.      99.31  E(vib)   ...       0.46 
freq.     111.87  E(vib)   ...       0.45 
freq.     132.94  E(vib)   ...       0.42 
freq.     162.09  E(vib)   ...       0.39 
freq.     184.76  E(vib)   ...       0.37 
freq.     199.85  E(vib)   ...       0.35 
freq.     205.27  E(vib)   ...       0.35 
freq.     230.95  E(vib)   ...       0.32 
freq.     260.62  E(vib)   ...       0.30 
freq.     278.40  E(vib)   ...       0.28 
freq.     347.16  E(vib)   ...       0.23 
freq.     358.07  E(vib)   ...       0.22 
freq.     388.73  E(vib)   ...       0.20 
freq.     429.49  E(vib)   ...       0.18 
freq.     448.28  E(vib)   ...       0.17 
freq.     461.85  E(vib)   ...       0.16 
freq.     500.08  E(vib)   ...       0.14 
freq.     544.17  E(vib)   ...       0.12 
freq.     575.50  E(vib)   ...       0.11 
freq.     590.82  E(vib)   ...       0.10 
freq.     605.68  E(vib)   ...       0.10 
freq.     643.26  E(vib)   ...       0.09 
freq.     684.39  E(vib)   ...       0.07 
freq.     711.95  E(vib)   ...       0.07 
freq.     761.70  E(vib)   ...       0.06 
freq.     781.60  E(vib)   ...       0.05 
freq.     826.13  E(vib)   ...       0.04 
freq.     908.53  E(vib)   ...       0.03 
freq.     960.34  E(vib)   ...       0.03 
freq.    1002.64  E(vib)   ...       0.02 
freq.    1014.38  E(vib)   ...       0.02 
freq.    1040.59  E(vib)   ...       0.02 
freq.    1055.28  E(vib)   ...       0.02 
freq.    1062.66  E(vib)   ...       0.02 
freq.    1089.45  E(vib)   ...       0.02 
freq.    1100.55  E(vib)   ...       0.02 
freq.    1127.16  E(vib)   ...       0.01 
freq.    1135.47  E(vib)   ...       0.01 
freq.    1175.43  E(vib)   ...       0.01 
freq.    1184.54  E(vib)   ...       0.01 
freq.    1224.55  E(vib)   ...       0.01 
freq.    1254.15  E(vib)   ...       0.01 
freq.    1286.85  E(vib)   ...       0.01 
freq.    1289.06  E(vib)   ...       0.01 
freq.    1304.42  E(vib)   ...       0.01 
freq.    1331.72  E(vib)   ...       0.01 
freq.    1369.67  E(vib)   ...       0.01 
freq.    1401.90  E(vib)   ...       0.00 
freq.    1412.84  E(vib)   ...       0.00 
freq.    1434.44  E(vib)   ...       0.00 
freq.    1439.74  E(vib)   ...       0.00 
freq.    1456.49  E(vib)   ...       0.00 
freq.    1474.44  E(vib)   ...       0.00 
freq.    1482.78  E(vib)   ...       0.00 
freq.    1487.96  E(vib)   ...       0.00 
freq.    1491.51  E(vib)   ...       0.00 
freq.    1503.14  E(vib)   ...       0.00 
freq.    1505.74  E(vib)   ...       0.00 
freq.    1509.77  E(vib)   ...       0.00 
freq.    1517.33  E(vib)   ...       0.00 
freq.    1529.46  E(vib)   ...       0.00 
freq.    1532.90  E(vib)   ...       0.00 
freq.    1554.50  E(vib)   ...       0.00 
freq.    1636.66  E(vib)   ...       0.00 
freq.    1703.74  E(vib)   ...       0.00 
freq.    1708.56  E(vib)   ...       0.00 
freq.    1741.96  E(vib)   ...       0.00 
freq.    3035.13  E(vib)   ...       0.00 
freq.    3040.60  E(vib)   ...       0.00 
freq.    3062.10  E(vib)   ...       0.00 
freq.    3063.23  E(vib)   ...       0.00 
freq.    3083.46  E(vib)   ...       0.00 
freq.    3086.97  E(vib)   ...       0.00 
freq.    3098.94  E(vib)   ...       0.00 
freq.    3100.99  E(vib)   ...       0.00 
freq.    3127.63  E(vib)   ...       0.00 
freq.    3133.35  E(vib)   ...       0.00 
freq.    3162.10  E(vib)   ...       0.00 
freq.    3169.60  E(vib)   ...       0.00 
freq.    3175.38  E(vib)   ...       0.00 
freq.    3192.34  E(vib)   ...       0.00 
freq.    3193.76  E(vib)   ...       0.00 
freq.    3574.63  E(vib)   ...       0.00 
freq.    3699.34  E(vib)   ...       0.00 

------------
INNER ENERGY
------------

The inner energy is: U= E(el) + E(ZPE) + E(vib) + E(rot) + E(trans)
    E(el)   - is the total energy from the electronic structure calculation
              = E(kin-el) + E(nuc-el) + E(el-el) + E(nuc-nuc)
    E(ZPE)  - the the zero temperature vibrational energy from the frequency calculation
    E(vib)  - the the finite temperature correction to E(ZPE) due to population
              of excited vibrational states
    E(rot)  - is the rotational thermal energy
    E(trans)- is the translational thermal energy

Summary of contributions to the inner energy U:
Electronic energy                ...   -742.79593227 Eh
Zero point energy                ...      0.27175593 Eh     170.53 kcal/mol
Thermal vibrational correction   ...      0.01477374 Eh       9.27 kcal/mol
Thermal rotational correction    ...      0.00141627 Eh       0.89 kcal/mol
Thermal translational correction ...      0.00141627 Eh       0.89 kcal/mol
-----------------------------------------------------------------------
Total thermal energy                   -742.50657005 Eh


Summary of corrections to the electronic energy:
(perhaps to be used in another calculation)
Total thermal correction                  0.01760629 Eh      11.05 kcal/mol
Non-thermal (ZPE) correction              0.27175593 Eh     170.53 kcal/mol
-----------------------------------------------------------------------
Total correction                          0.28936222 Eh     181.58 kcal/mol


--------
ENTHALPY
--------

The enthalpy is H = U + kB*T
                kB is Boltzmann's constant
Total free energy                 ...   -742.50657005 Eh 
Thermal Enthalpy correction       ...      0.00094421 Eh       0.59 kcal/mol
-----------------------------------------------------------------------
Total Enthalpy                    ...   -742.50562584 Eh


Note: Only C1 symmetry has been detected, increase convergence thresholds 
      if your molecule has a higher symmetry. Symmetry factor of 1.0 is   
      used for the rotational entropy correction. 
 

Note: Rotational entropy computed according to Herzberg 
Infrared and Raman Spectra, Chapter V,1, Van Nostrand Reinhold, 1945 
Point Group:  C1, Symmetry Number:   1  
Rotational constants in cm-1:     0.020992     0.016025     0.011016 

Vibrational entropy computed according to the QRRHO of S. Grimme
Chem.Eur.J. 2012 18 9955


-------
ENTROPY
-------

The entropy contributions are T*S = T*(S(el)+S(vib)+S(rot)+S(trans))
     S(el)   - electronic entropy
     S(vib)  - vibrational entropy
     S(rot)  - rotational entropy
     S(trans)- translational entropy
The entropies will be listed as multiplied by the temperature to get
units of energy

Electronic entropy                ...      0.00000000 Eh      0.00 kcal/mol
Vibrational entropy               ...      0.02679752 Eh     16.82 kcal/mol
Rotational entropy                ...      0.01541458 Eh      9.67 kcal/mol
Translational entropy             ...      0.01995702 Eh     12.52 kcal/mol
-----------------------------------------------------------------------
Final entropy term                ...      0.06216912 Eh     39.01 kcal/mol

In case the symmetry of your molecule has not been determined correctly
or in case you have a reason to use a different symmetry number we print 
out the resulting rotational entropy values for sn=1,12 :
 --------------------------------------------------------
|  sn= 1 | S(rot)=       0.01541458 Eh      9.67 kcal/mol|
|  sn= 2 | S(rot)=       0.01476012 Eh      9.26 kcal/mol|
|  sn= 3 | S(rot)=       0.01437729 Eh      9.02 kcal/mol|
|  sn= 4 | S(rot)=       0.01410567 Eh      8.85 kcal/mol|
|  sn= 5 | S(rot)=       0.01389498 Eh      8.72 kcal/mol|
|  sn= 6 | S(rot)=       0.01372283 Eh      8.61 kcal/mol|
|  sn= 7 | S(rot)=       0.01357729 Eh      8.52 kcal/mol|
|  sn= 8 | S(rot)=       0.01345121 Eh      8.44 kcal/mol|
|  sn= 9 | S(rot)=       0.01334000 Eh      8.37 kcal/mol|
|  sn=10 | S(rot)=       0.01324052 Eh      8.31 kcal/mol|
|  sn=11 | S(rot)=       0.01315053 Eh      8.25 kcal/mol|
|  sn=12 | S(rot)=       0.01306838 Eh      8.20 kcal/mol|
 --------------------------------------------------------


-------------------
GIBBS FREE ENERGY
-------------------

The Gibbs free energy is G = H - T*S

Total enthalpy                    ...   -742.50562584 Eh 
Total entropy correction          ...     -0.06216912 Eh    -39.01 kcal/mol
-----------------------------------------------------------------------
Final Gibbs free energy         ...   -742.56779496 Eh

For completeness - the Gibbs free energy minus the electronic energy
G-E(el)                           ...      0.22813731 Eh    143.16 kcal/mol


Timings for individual modules:

Sum of individual times         ...     1700.620 sec (=  28.344 min)
GTO integral calculation        ...       17.988 sec (=   0.300 min)   1.1 %
SCF iterations                  ...      820.813 sec (=  13.680 min)  48.3 %
SCF Gradient evaluation         ...      235.091 sec (=   3.918 min)  13.8 %
Geometry relaxation             ...        1.219 sec (=   0.020 min)   0.1 %
Analytical frequency calculation...      625.510 sec (=  10.425 min)  36.8 %
                             ****ORCA TERMINATED NORMALLY****
TOTAL RUN TIME: 0 days 0 hours 28 minutes 26 seconds 341 msec
