
                                 *****************
                                 * O   R   C   A *
                                 *****************

                                            #,                                       
                                            ###                                      
                                            ####                                     
                                            #####                                    
                                            ######                                   
                                           ########,                                 
                                     ,,################,,,,,                         
                               ,,#################################,,                 
                          ,,##########################################,,             
                       ,#########################################, ''#####,          
                    ,#############################################,,   '####,        
                  ,##################################################,,,,####,       
                ,###########''''           ''''###############################       
              ,#####''   ,,,,##########,,,,          '''####'''          '####       
            ,##' ,,,,###########################,,,                        '##       
           ' ,,###''''                  '''############,,,                           
         ,,##''                                '''############,,,,        ,,,,,,###''
      ,#''                                            '''#######################'''  
     '                                                          ''''####''''         
             ,#######,   #######,   ,#######,      ##                                
            ,#'     '#,  ##    ##  ,#'     '#,    #''#        ######   ,####,        
            ##       ##  ##   ,#'  ##            #'  '#       #        #'  '#        
            ##       ##  #######   ##           ,######,      #####,   #    #        
            '#,     ,#'  ##    ##  '#,     ,#' ,#      #,         ##   #,  ,#        
             '#######'   ##     ##  '#######'  #'      '#     #####' # '####'        



                  #######################################################
                  #                        -***-                        #
                  #          Department of theory and spectroscopy      #
                  #    Directorship and core code : Frank Neese         #
                  #        Max Planck Institute fuer Kohlenforschung    #
                  #                Kaiser Wilhelm Platz 1               #
                  #                 D-45470 Muelheim/Ruhr               #
                  #                      Germany                        #
                  #                                                     #
                  #                  All rights reserved                #
                  #                        -***-                        #
                  #######################################################


                         Program Version 5.0.4 -  RELEASE  -


 With contributions from (in alphabetic order):
   Daniel Aravena         : Magnetic Suceptibility
   Michael Atanasov       : Ab Initio Ligand Field Theory (pilot matlab implementation)
   Alexander A. Auer      : GIAO ZORA, VPT2 properties, NMR spectrum
   Ute Becker             : Parallelization
   Giovanni Bistoni       : ED, misc. LED, open-shell LED, HFLD
   Martin Brehm           : Molecular dynamics
   Dmytro Bykov           : SCF Hessian
   Vijay G. Chilkuri      : MRCI spin determinant printing, contributions to CSF-ICE
   Dipayan Datta          : RHF DLPNO-CCSD density
   Achintya Kumar Dutta   : EOM-CC, STEOM-CC
   Dmitry Ganyushin       : Spin-Orbit,Spin-Spin,Magnetic field MRCI
   Miquel Garcia          : C-PCM and meta-GGA Hessian, CC/C-PCM, Gaussian charge scheme
   Yang Guo               : DLPNO-NEVPT2, F12-NEVPT2, CIM, IAO-localization
   Andreas Hansen         : Spin unrestricted coupled pair/coupled cluster methods
   Benjamin Helmich-Paris : MC-RPA, TRAH-SCF, COSX integrals
   Lee Huntington         : MR-EOM, pCC
   Robert Izsak           : Overlap fitted RIJCOSX, COSX-SCS-MP3, EOM
   Marcus Kettner         : VPT2
   Christian Kollmar      : KDIIS, OOCD, Brueckner-CCSD(T), CCSD density, CASPT2, CASPT2-K
   Simone Kossmann        : Meta GGA functionals, TD-DFT gradient, OOMP2, MP2 Hessian
   Martin Krupicka        : Initial AUTO-CI
   Lucas Lang             : DCDCAS
   Marvin Lechner         : AUTO-CI (C++ implementation), FIC-MRCC
   Dagmar Lenk            : GEPOL surface, SMD
   Dimitrios Liakos       : Extrapolation schemes; Compound Job, initial MDCI parallelization
   Dimitrios Manganas     : Further ROCIS development; embedding schemes
   Dimitrios Pantazis     : SARC Basis sets
   Anastasios Papadopoulos: AUTO-CI, single reference methods and gradients
   Taras Petrenko         : DFT Hessian,TD-DFT gradient, ASA, ECA, R-Raman, ABS, FL, XAS/XES, NRVS
   Peter Pinski           : DLPNO-MP2, DLPNO-MP2 Gradient
   Christoph Reimann      : Effective Core Potentials
   Marius Retegan         : Local ZFS, SOC
   Christoph Riplinger    : Optimizer, TS searches, QM/MM, DLPNO-CCSD(T), (RO)-DLPNO pert. Triples
   Tobias Risthaus        : Range-separated hybrids, TD-DFT gradient, RPA, STAB
   Michael Roemelt        : Original ROCIS implementation
   Masaaki Saitow         : Open-shell DLPNO-CCSD energy and density
   Barbara Sandhoefer     : DKH picture change effects
   Avijit Sen             : IP-ROCIS
   Kantharuban Sivalingam : CASSCF convergence, NEVPT2, FIC-MRCI
   Bernardo de Souza      : ESD, SOC TD-DFT
   Georgi Stoychev        : AutoAux, RI-MP2 NMR, DLPNO-MP2 response
   Willem Van den Heuvel  : Paramagnetic NMR
   Boris Wezisla          : Elementary symmetry handling
   Frank Wennmohs         : Technical directorship


 We gratefully acknowledge several colleagues who have allowed us to
 interface, adapt or use parts of their codes:
   Stefan Grimme, W. Hujo, H. Kruse, P. Pracht,  : VdW corrections, initial TS optimization,
                  C. Bannwarth, S. Ehlert          DFT functionals, gCP, sTDA/sTD-DF
   Ed Valeev, F. Pavosevic, A. Kumar             : LibInt (2-el integral package), F12 methods
   Garnet Chan, S. Sharma, J. Yang, R. Olivares  : DMRG
   Ulf Ekstrom                                   : XCFun DFT Library
   Mihaly Kallay                                 : mrcc  (arbitrary order and MRCC methods)
   Jiri Pittner, Ondrej Demel                    : Mk-CCSD
   Frank Weinhold                                : gennbo (NPA and NBO analysis)
   Christopher J. Cramer and Donald G. Truhlar   : smd solvation model
   Lars Goerigk                                  : TD-DFT with DH, B97 family of functionals
   V. Asgeirsson, H. Jonsson                     : NEB implementation
   FAccTs GmbH                                   : IRC, NEB, NEB-TS, DLPNO-Multilevel, CI-OPT
                                                   MM, QMMM, 2- and 3-layer-ONIOM, Crystal-QMMM,
                                                   LR-CPCM, SF, NACMEs, symmetry and pop. for TD-DFT,
                                                   nearIR, NL-DFT gradient (VV10), updates on ESD,
                                                   ML-optimized integration grids
   S Lehtola, MJT Oliveira, MAL Marques          : LibXC Library
   Liviu Ungur et al                             : ANISO software


 Your calculation uses the libint2 library for the computation of 2-el integrals
 For citations please refer to: http://libint.valeyev.net

 Your ORCA version has been built with support for libXC version: 5.1.0
 For citations please refer to: https://tddft.org/programs/libxc/

 This ORCA versions uses:
   CBLAS   interface :  Fast vector & matrix operations
   LAPACKE interface :  Fast linear algebra routines
   SCALAPACK package :  Parallel linear algebra routines
   Shared memory     :  Shared parallel matrices
   BLAS/LAPACK       :  OpenBLAS 0.3.15  USE64BITINT DYNAMIC_ARCH NO_AFFINITY SkylakeX SINGLE_THREADED
        Core in use  :  SkylakeX
   Copyright (c) 2011-2014, The OpenBLAS Project




***************************************
The coordinates will be read from file: /users/fjb15167/WWenergy/structures/Nm.xyz
***************************************


Your calculation utilizes the atom-pairwise dispersion correction
based on tight binding partial charges (D4)
Cite in your paper:
E.Caldeweyher, C.Bannwarth, S.Grimme, J.Chem.Phys., (2017), 147, 034112.
E.Caldeweyher, S.Ehlert, A.Hansen, H.Neugebauer, S.Grimme, J.Chem.Phys., (2018), in progress.
   

================================================================================

----- Orbital basis set information -----
Your calculation utilizes the basis: 6-31G(d)
   H-He, Li-Ne : W. J. Hehre, R. Ditchfield and J.A. Pople, J. Chem. Phys. 56, 2257 (1972).
                 Note: He and Ne are unpublished basis sets taken from the Gaussian program.
                 Note: Li and B from J. D. Dill and J. A. Pople, J. Chem. Phys. 62, 2921 (1975).
   Na - Ar     : M. M. Francl, W. J. Pietro, W. J. Hehre, J. S. Binkley, M. S. Gordon, 
                 D. J. DeFrees and J. A. Pople, J. Chem. Phys. 77, 3654 (1982).
   K - Zn      : V. A. Rassolov, J. A. Pople, M. A. Ratner, and T. L. Windus, J. Chem. Phys. 109, 1223 (1998).

----- AuxJ basis set information -----
Your calculation utilizes the AutoAux generation procedure.
  G. L. Stoychev, A. A. Auer, F. Neese, J. Chem. Theory Comput. 13, 554 (2017)

----- AuxC basis set information -----
Your calculation utilizes the AutoAux generation procedure.
  G. L. Stoychev, A. A. Auer, F. Neese, J. Chem. Theory Comput. 13, 554 (2017)

----- AuxJK basis set information -----
Your calculation utilizes the AutoAux generation procedure.
  G. L. Stoychev, A. A. Auer, F. Neese, J. Chem. Theory Comput. 13, 554 (2017)

================================================================================
                                        WARNINGS
                       Please study these warnings very carefully!
================================================================================


WARNING: Geometry Optimization
  ===> : Switching off AutoStart
         For restart on a previous wavefunction, please use MOREAD

INFO   : the flag for use of the SHARK integral package has been found!

================================================================================
                                       INPUT FILE
================================================================================
NAME = Nm_gas.inp
|  1> ! OPT FREQ B3LYP 6-31G(d) D4 AUTOAUX
|  2> 
|  3> %PAL NPROCS 4 END
|  4> 
|  5> %maxcore 3375
|  6> 
|  7> *xyzfile 0 1 /users/fjb15167/WWenergy/structures/Nm.xyz
|  8> 
|  9>                          ****END OF INPUT****
================================================================================

                       *****************************
                       * Geometry Optimization Run *
                       *****************************

Geometry optimization settings:
Update method            Update   .... BFGS
Choice of coordinates    CoordSys .... Z-matrix Internals
Initial Hessian          InHess   .... Almoef's Model

Convergence Tolerances:
Energy Change            TolE     ....  5.0000e-06 Eh
Max. Gradient            TolMAXG  ....  3.0000e-04 Eh/bohr
RMS Gradient             TolRMSG  ....  1.0000e-04 Eh/bohr
Max. Displacement        TolMAXD  ....  4.0000e-03 bohr
RMS Displacement         TolRMSD  ....  2.0000e-03 bohr
Strict Convergence                ....  False
------------------------------------------------------------------------------
                        ORCA OPTIMIZATION COORDINATE SETUP
------------------------------------------------------------------------------

The optimization will be done in new redundant internal coordinates
Making redundant internal coordinates   ...  (new redundants) done
Evaluating the initial hessian          ...  (Almloef) done
Evaluating the coordinates              ...  done
Calculating the B-matrix                .... done
Calculating the G-matrix                .... done
Diagonalizing the G-matrix              .... done
Small eigenvalue found = 4.590e-03
Small eigenvalue found = 5.730e-03
Small eigenvalue found = 1.112e-02
Small eigenvalue found = 1.399e-02
Small eigenvalue found = 1.847e-02
Small eigenvalue found = 2.962e-02
The first mode is                       ....   55
The number of degrees of freedom        ....   90

    -----------------------------------------------------------------
                    Redundant Internal Coordinates


    -----------------------------------------------------------------
         Definition                    Initial Value    Approx d2E/dq
    -----------------------------------------------------------------
      1. B(H   1,C   0)                  1.0926         0.356639   
      2. B(H   2,C   0)                  1.0948         0.353742   
      3. B(H   3,C   0)                  1.0898         0.360303   
      4. B(C   4,C   0)                  1.5146         0.395376   
      5. B(O   5,C   4)                  1.2397         0.972173   
      6. B(N   6,C   4)                  1.3740         0.593573   
      7. B(C   7,N   6)                  1.4602         0.432461   
      8. B(H   8,C   7)                  1.0945         0.354134   
      9. B(H   9,C   7)                  1.0905         0.359498   
     10. B(C  10,N   6)                  1.4629         0.428062   
     11. B(H  11,C  10)                  1.0934         0.355624   
     12. B(H  12,C  10)                  1.0930         0.356117   
     13. B(C  13,C  10)                  1.5290         0.374951   
     14. B(H  14,C  13)                  1.0926         0.356674   
     15. B(H  15,C  13)                  1.0944         0.354267   
     16. B(C  16,C   7)                  1.5247         0.380945   
     17. B(N  17,C  16)                  1.3637         0.616364   
     18. B(O  18,C  16)                  1.2425         0.961998   
     19. B(C  19,N  17)                  1.4553         0.440220   
     20. B(H  20,C  19)                  1.0971         0.350859   
     21. B(H  21,C  19)                  1.0950         0.353575   
     22. B(H  22,C  19)                  1.0878         0.362994   
     23. B(C  23,N  17)                  1.4560         0.439083   
     24. B(H  24,C  23)                  1.0968         0.351163   
     25. B(H  25,C  23)                  1.0877         0.363097   
     26. B(H  26,C  23)                  1.0941         0.354732   
     27. B(S  27,C  13)                  1.8113         0.358337   
     28. B(C  28,S  27)                  1.8144         0.354331   
     29. B(H  29,C  28)                  1.0924         0.356964   
     30. B(H  30,C  28)                  1.0917         0.357800   
     31. B(H  31,C  28)                  1.0912         0.358523   
     32. A(H   1,C   0,C   4)          112.6276         0.326839   
     33. A(H   2,C   0,H   3)          108.8670         0.290053   
     34. A(H   3,C   0,C   4)          107.1536         0.327390   
     35. A(H   1,C   0,H   3)          109.3811         0.290424   
     36. A(H   1,C   0,H   2)          107.9335         0.289588   
     37. A(H   2,C   0,C   4)          110.8205         0.326400   
     38. A(C   0,C   4,O   5)          121.0397         0.431221   
     39. A(O   5,C   4,N   6)          121.8532         0.461100   
     40. A(C   0,C   4,N   6)          117.1031         0.395062   
     41. A(C   4,N   6,C  10)          124.4882         0.398050   
     42. A(C   7,N   6,C  10)          116.2418         0.376675   
     43. A(C   4,N   6,C   7)          119.0850         0.398767   
     44. A(H   8,C   7,H   9)          108.9995         0.290002   
     45. A(N   6,C   7,H   9)          107.8552         0.330153   
     46. A(H   9,C   7,C  16)          113.7132         0.325272   
     47. A(H   8,C   7,C  16)          105.4582         0.324470   
     48. A(N   6,C   7,C  16)          111.0529         0.371506   
     49. A(N   6,C   7,H   8)          109.7036         0.329334   
     50. A(H  12,C  10,C  13)          109.7334         0.323923   
     51. A(H  11,C  10,C  13)          109.7984         0.323849   
     52. A(N   6,C  10,C  13)          112.6458         0.369843   
     53. A(H  11,C  10,H  12)          107.2932         0.289763   
     54. A(N   6,C  10,H  12)          106.7744         0.329081   
     55. A(N   6,C  10,H  11)          110.4145         0.329006   
     56. A(H  14,C  13,H  15)          107.6585         0.289660   
     57. A(H  15,C  13,S  27)          106.2677         0.337556   
     58. A(C  10,C  13,H  15)          110.1785         0.323646   
     59. A(C  10,C  13,H  14)          110.4076         0.324006   
     60. A(H  14,C  13,S  27)          109.1838         0.337937   
     61. A(C  10,C  13,S  27)          112.9352         0.380100   
     62. A(N  17,C  16,O  18)          122.7023         0.463394   
     63. A(C   7,C  16,O  18)          119.1803         0.427546   
     64. A(C   7,C  16,N  17)          118.0916         0.395097   
     65. A(C  16,N  17,C  19)          125.2406         0.402679   
     66. A(C  19,N  17,C  23)          115.4360         0.379502   
     67. A(C  16,N  17,C  23)          118.2592         0.402496   
     68. A(H  21,C  19,H  22)          108.7882         0.290370   
     69. A(H  20,C  19,H  22)          108.5467         0.290019   
     70. A(N  17,C  19,H  22)          111.9700         0.331656   
     71. A(H  20,C  19,H  21)          108.2169         0.288826   
     72. A(N  17,C  19,H  21)          109.0065         0.330216   
     73. A(N  17,C  19,H  20)          110.2291         0.329796   
     74. A(H  25,C  23,H  26)          110.1659         0.290532   
     75. A(H  24,C  23,H  26)          108.6762         0.289013   
     76. A(N  17,C  23,H  26)          109.1579         0.330254   
     77. A(H  24,C  23,H  25)          109.3442         0.290071   
     78. A(N  17,C  23,H  25)          108.6566         0.331530   
     79. A(N  17,C  23,H  24)          110.8352         0.329702   
     80. A(C  13,S  27,C  28)           99.2859         0.396573   
     81. A(H  29,C  28,H  31)          108.9725         0.290240   
     82. A(S  27,C  28,H  31)          112.1235         0.337595   
     83. A(H  29,C  28,H  30)          109.1716         0.290148   
     84. A(S  27,C  28,H  30)          107.4577         0.337482   
     85. A(H  30,C  28,H  31)          108.6433         0.290347   
     86. A(S  27,C  28,H  29)          110.4097         0.337350   
     87. D(O   5,C   4,C   0,H   2)    110.8342         0.011614   
     88. D(O   5,C   4,C   0,H   1)   -128.1412         0.011614   
     89. D(N   6,C   4,C   0,H   1)     52.5728         0.011614   
     90. D(N   6,C   4,C   0,H   2)    -68.4518         0.011614   
     91. D(O   5,C   4,C   0,H   3)     -7.8151         0.011614   
     92. D(N   6,C   4,C   0,H   3)    172.8989         0.011614   
     93. D(C   7,N   6,C   4,C   0)    173.2596         0.028347   
     94. D(C  10,N   6,C   4,C   0)     -1.6035         0.028347   
     95. D(C   7,N   6,C   4,O   5)     -6.0202         0.028347   
     96. D(C  10,N   6,C   4,O   5)    179.1167         0.028347   
     97. D(C  16,C   7,N   6,C   4)    127.0440         0.015945   
     98. D(H   9,C   7,N   6,C   4)      1.8235         0.015945   
     99. D(H   8,C   7,N   6,C  10)     58.5056         0.015945   
    100. D(H   9,C   7,N   6,C  10)    177.1039         0.015945   
    101. D(H   8,C   7,N   6,C   4)   -116.7749         0.015945   
    102. D(C  16,C   7,N   6,C  10)    -57.6756         0.015945   
    103. D(C  13,C  10,N   6,C   7)     95.1324         0.015622   
    104. D(C  13,C  10,N   6,C   4)    -89.8722         0.015622   
    105. D(H  12,C  10,N   6,C   7)    -25.3893         0.015622   
    106. D(H  12,C  10,N   6,C   4)    149.6061         0.015622   
    107. D(H  11,C  10,N   6,C   7)   -141.7146         0.015622   
    108. D(H  11,C  10,N   6,C   4)     33.2808         0.015622   
    109. D(S  27,C  13,C  10,H  11)     62.1398         0.011221   
    110. D(S  27,C  13,C  10,N   6)   -174.3642         0.011221   
    111. D(H  15,C  13,C  10,H  12)   -174.2132         0.011221   
    112. D(H  15,C  13,C  10,H  11)    -56.5172         0.011221   
    113. D(H  15,C  13,C  10,N   6)     66.9788         0.011221   
    114. D(H  14,C  13,C  10,H  12)     67.0001         0.011221   
    115. D(H  14,C  13,C  10,H  11)   -175.3039         0.011221   
    116. D(S  27,C  13,C  10,H  12)    -55.5562         0.011221   
    117. D(H  14,C  13,C  10,N   6)    -51.8079         0.011221   
    118. D(O  18,C  16,C   7,H   9)   -138.0701         0.010826   
    119. D(O  18,C  16,C   7,H   8)    -18.7035         0.010826   
    120. D(O  18,C  16,C   7,N   6)    100.0651         0.010826   
    121. D(N  17,C  16,C   7,H   9)     43.7286         0.010826   
    122. D(N  17,C  16,C   7,H   8)    163.0951         0.010826   
    123. D(N  17,C  16,C   7,N   6)    -78.1362         0.010826   
    124. D(C  23,N  17,C  16,O  18)     -2.5670         0.030735   
    125. D(C  23,N  17,C  16,C   7)    175.5667         0.030735   
    126. D(C  19,N  17,C  16,O  18)   -170.1980         0.030735   
    127. D(C  19,N  17,C  16,C   7)      7.9358         0.030735   
    128. D(H  22,C  19,N  17,C  16)    -15.3935         0.016525   
    129. D(H  21,C  19,N  17,C  23)     56.2500         0.016525   
    130. D(H  21,C  19,N  17,C  16)   -135.8096         0.016525   
    131. D(H  20,C  19,N  17,C  23)    -62.3903         0.016525   
    132. D(H  22,C  19,N  17,C  23)    176.6661         0.016525   
    133. D(H  20,C  19,N  17,C  16)    105.5501         0.016525   
    134. D(H  26,C  23,N  17,C  19)    -51.9179         0.016439   
    135. D(H  26,C  23,N  17,C  16)    139.2526         0.016439   
    136. D(H  25,C  23,N  17,C  19)   -172.0829         0.016439   
    137. D(H  25,C  23,N  17,C  16)     19.0876         0.016439   
    138. D(H  24,C  23,N  17,C  19)     67.7470         0.016439   
    139. D(H  24,C  23,N  17,C  16)   -101.0825         0.016439   
    140. D(C  28,S  27,C  13,H  15)   -170.6734         0.003554   
    141. D(C  28,S  27,C  13,H  14)    -54.8182         0.003554   
    142. D(C  28,S  27,C  13,C  10)     68.4191         0.003554   
    143. D(H  31,C  28,S  27,C  13)    -83.0799         0.003507   
    144. D(H  30,C  28,S  27,C  13)    157.6061         0.003507   
    145. D(H  29,C  28,S  27,C  13)     38.6375         0.003507   
    -----------------------------------------------------------------

Number of atoms                         .... 32
Number of degrees of freedom            .... 145

         *************************************************************
         *                GEOMETRY OPTIMIZATION CYCLE   1            *
         *************************************************************
---------------------------------
CARTESIAN COORDINATES (ANGSTROEM)
---------------------------------
  C     -1.391000    3.054000   -0.526000
  H     -0.616000    2.912000   -1.283000
  H     -0.998000    3.736000    0.235000
  H     -2.268000    3.508000   -0.987000
  C     -1.840000    1.750000    0.100000
  O     -3.041000    1.448000    0.156000
  N     -0.862000    0.932000    0.612000
  C     -1.253000   -0.262000    1.356000
  H     -0.906000   -0.182000    2.391000
  H     -2.342000   -0.318000    1.350000
  C      0.571000    1.222000    0.561000
  H      0.745000    2.299000    0.634000
  H      1.018000    0.760000    1.445000
  C      1.238000    0.674000   -0.701000
  H      1.001000   -0.385000   -0.828000
  H      0.869000    1.205000   -1.584000
  C     -0.572000   -1.505000    0.794000
  N     -1.076000   -2.052000   -0.349000
  O      0.432000   -1.958000    1.369000
  C     -2.115000   -1.458000   -1.177000
  H     -1.679000   -1.047000   -2.096000
  H     -2.835000   -2.234000   -1.457000
  H     -2.643000   -0.661000   -0.658000
  C     -0.371000   -3.179000   -0.943000
  H      0.238000   -2.853000   -1.795000
  H      0.274000   -3.623000   -0.188000
  H     -1.101000   -3.914000   -1.295000
  S      3.037000    0.885000   -0.697000
  C      3.465000   -0.276000    0.630000
  H      2.837000   -1.168000    0.573000
  H      4.509000   -0.563000    0.490000
  H      3.356000    0.172000    1.619000

----------------------------
CARTESIAN COORDINATES (A.U.)
----------------------------
  NO LB      ZA    FRAG     MASS         X           Y           Z
   0 C     6.0000    0    12.011   -2.628609    5.771224   -0.993996
   1 H     1.0000    0     1.008   -1.164071    5.502883   -2.424519
   2 H     1.0000    0     1.008   -1.885947    7.060017    0.444086
   3 H     1.0000    0     1.008   -4.285899    6.629159   -1.865160
   4 C     6.0000    0    12.011   -3.477096    3.307021    0.188973
   5 O     8.0000    0    15.999   -5.746657    2.736323    0.294797
   6 N     7.0000    0    14.007   -1.628944    1.761225    1.156512
   7 C     6.0000    0    12.011   -2.367827   -0.495108    2.562469
   8 H     1.0000    0     1.008   -1.712092   -0.343930    4.518335
   9 H     1.0000    0     1.008   -4.425739   -0.600933    2.551130
  10 C     6.0000    0    12.011    1.079034    2.309245    1.060136
  11 H     1.0000    0     1.008    1.407846    4.344480    1.198086
  12 H     1.0000    0     1.008    1.923741    1.436192    2.730654
  13 C     6.0000    0    12.011    2.339481    1.273675   -1.324698
  14 H     1.0000    0     1.008    1.891616   -0.727545   -1.564693
  15 H     1.0000    0     1.008    1.642172    2.277120   -2.993326
  16 C     6.0000    0    12.011   -1.080923   -2.844038    1.500443
  17 N     7.0000    0    14.007   -2.033345   -3.877718   -0.659514
  18 O     8.0000    0    15.999    0.816362   -3.700084    2.587035
  19 C     6.0000    0    12.011   -3.996771   -2.755221   -2.224208
  20 H     1.0000    0     1.008   -3.172850   -1.978543   -3.960866
  21 H     1.0000    0     1.008   -5.357374   -4.221648   -2.753331
  22 H     1.0000    0     1.008   -4.994546   -1.249109   -1.243440
  23 C     6.0000    0    12.011   -0.701088   -6.007439   -1.782012
  24 H     1.0000    0     1.008    0.449755   -5.391389   -3.392058
  25 H     1.0000    0     1.008    0.517785   -6.846478   -0.355269
  26 H     1.0000    0     1.008   -2.080588   -7.396388   -2.447195
  27 S    16.0000    0    32.060    5.739098    1.672408   -1.317139
  28 C     6.0000    0    12.011    6.547901   -0.521564    1.190527
  29 H     1.0000    0     1.008    5.361153   -2.207200    1.082813
  30 H     1.0000    0     1.008    8.520775   -1.063916    0.925966
  31 H     1.0000    0     1.008    6.341921    0.325033    3.059467

--------------------------------
INTERNAL COORDINATES (ANGSTROEM)
--------------------------------
 C      0   0   0     0.000000000000     0.00000000     0.00000000
 H      1   0   0     1.092628939760     0.00000000     0.00000000
 H      1   2   0     1.094848848015   107.93354870     0.00000000
 H      1   2   3     1.089846778222   109.38108315   118.30433246
 C      1   2   3     1.514560332242   112.62764017   237.34021331
 O      5   1   2     1.239653580643   121.03965039   231.85884241
 N      5   1   2     1.373954875533   117.10313923    52.57282836
 C      7   5   1     1.460155128745   119.08503632   173.25960461
 H      8   7   5     1.094547395045   109.70359188   243.22513273
 H      8   7   5     1.090455409451   107.85520719     1.82348773
 C      7   5   1     1.462938823054   124.48819608   358.39649400
 H     11   7   5     1.093404774089   110.41447033    33.28077731
 H     11   7   5     1.093027447048   106.77439371   149.60606502
 C     11   7   5     1.528998691955   112.64576229   270.12777853
 H     14  11   7     1.092601940324   110.40757801   308.19213183
 H     14  11   7     1.094445521714   110.17851304    66.97876184
 C      8   7   5     1.524681606107   111.05289948   127.04398397
 N     17   8   7     1.363698647062   118.09163320   281.86380486
 O     17   8   7     1.242517605509   119.18026433   100.06514918
 C     18  17   8     1.455314742590   125.24057758     7.93577414
 H     20  18  17     1.097077025555   110.22912228   105.55007400
 H     20  18  17     1.094977625342   109.00650551   224.19038636
 H     20  18  17     1.087820757294   111.96995547   344.60647338
 C     18  17   8     1.456018543838   118.25921921   175.56673788
 H     24  18  17     1.096841374128   110.83521925   258.91750667
 H     24  18  17     1.087743535950   108.65662749    19.08763279
 H     24  18  17     1.094088204854   109.15789249   139.25262386
 S     14  11   7     1.811335971045   112.93518304   185.63582123
 C     28  14  11     1.814396318338    99.28588624    68.41910366
 H     29  28  14     1.092381343671   110.40970881    38.63748136
 H     29  28  14     1.091744017616   107.45766686   157.60613997
 H     29  28  14     1.091194758052   112.12348139   276.92014276

---------------------------
INTERNAL COORDINATES (A.U.)
---------------------------
 C      0   0   0     0.000000000000     0.00000000     0.00000000
 H      1   0   0     2.064769462142     0.00000000     0.00000000
 H      1   2   0     2.068964480788   107.93354870     0.00000000
 H      1   2   3     2.059511938775   109.38108315   118.30433246
 C      1   2   3     2.862104241238   112.62764017   237.34021331
 O      5   1   2     2.342605768349   121.03965039   231.85884241
 N      5   1   2     2.596398435123   117.10313923    52.57282836
 C      7   5   1     2.759293306368   119.08503632   173.25960461
 H      8   7   5     2.068394817232   109.70359188   243.22513273
 H      8   7   5     2.060662085115   107.85520719     1.82348773
 C      7   5   1     2.764553726254   124.48819608   358.39649400
 H     11   7   5     2.066235576550   110.41447033    33.28077731
 H     11   7   5     2.065522531780   106.77439371   149.60606502
 C     11   7   5     2.889388786919   112.64576229   270.12777853
 H     14  11   7     2.064718440604   110.40757801   308.19213183
 H     14  11   7     2.068202304536   110.17851304    66.97876184
 C      8   7   5     2.881230676969   111.05289948   127.04398397
 N     17   8   7     2.577016972147   118.09163320   281.86380486
 O     17   8   7     2.348017990988   119.18026433   100.06514918
 C     18  17   8     2.750146302153   125.24057758     7.93577414
 H     20  18  17     2.073175126115   110.22912228   105.55007400
 H     20  18  17     2.069207834668   109.00650551   224.19038636
 H     20  18  17     2.055683314081   111.96995547   344.60647338
 C     18  17   8     2.751476293765   118.25921921   175.56673788
 H     24  18  17     2.072729809457   110.83521925   258.91750667
 H     24  18  17     2.055537386888   108.65662749    19.08763279
 H     24  18  17     2.067527073527   109.15789249   139.25262386
 S     14  11   7     3.422928921795   112.93518304   185.63582123
 C     28  14  11     3.428712140055    99.28588624    68.41910366
 H     29  28  14     2.064301573343   110.40970881    38.63748136
 H     29  28  14     2.063097201641   107.45766686   157.60613997
 H     29  28  14     2.062059251489   112.12348139   276.92014276

---------------------
BASIS SET INFORMATION
---------------------
There are 5 groups of distinct atoms

 Group   1 Type C   : 10s4p1d contracted to 3s2p1d pattern {631/31/1}
 Group   2 Type H   : 4s contracted to 2s pattern {31}
 Group   3 Type O   : 10s4p1d contracted to 3s2p1d pattern {631/31/1}
 Group   4 Type N   : 10s4p1d contracted to 3s2p1d pattern {631/31/1}
 Group   5 Type S   : 16s10p1d contracted to 4s3p1d pattern {6631/631/1}

Atom   0C    basis set group =>   1
Atom   1H    basis set group =>   2
Atom   2H    basis set group =>   2
Atom   3H    basis set group =>   2
Atom   4C    basis set group =>   1
Atom   5O    basis set group =>   3
Atom   6N    basis set group =>   4
Atom   7C    basis set group =>   1
Atom   8H    basis set group =>   2
Atom   9H    basis set group =>   2
Atom  10C    basis set group =>   1
Atom  11H    basis set group =>   2
Atom  12H    basis set group =>   2
Atom  13C    basis set group =>   1
Atom  14H    basis set group =>   2
Atom  15H    basis set group =>   2
Atom  16C    basis set group =>   1
Atom  17N    basis set group =>   4
Atom  18O    basis set group =>   3
Atom  19C    basis set group =>   1
Atom  20H    basis set group =>   2
Atom  21H    basis set group =>   2
Atom  22H    basis set group =>   2
Atom  23C    basis set group =>   1
Atom  24H    basis set group =>   2
Atom  25H    basis set group =>   2
Atom  26H    basis set group =>   2
Atom  27S    basis set group =>   5
Atom  28C    basis set group =>   1
Atom  29H    basis set group =>   2
Atom  30H    basis set group =>   2
Atom  31H    basis set group =>   2
---------------------------------
AUXILIARY/J BASIS SET INFORMATION
---------------------------------
There are 5 groups of distinct atoms

 Group   1 Type C   : 13s11p10d2f contracted to 13s11p10d2f pattern {1111111111111/11111111111/1111111111/11}
 Group   2 Type H   : 9s2p contracted to 9s2p pattern {111111111/11}
 Group   3 Type O   : 14s11p10d2f contracted to 14s11p10d2f pattern {11111111111111/11111111111/1111111111/11}
 Group   4 Type N   : 14s11p10d2f contracted to 14s11p10d2f pattern {11111111111111/11111111111/1111111111/11}
 Group   5 Type S   : 17s15p14d4f contracted to 17s15p14d4f pattern {11111111111111111/111111111111111/11111111111111/1111}

Atom   0C    basis set group =>   1
Atom   1H    basis set group =>   2
Atom   2H    basis set group =>   2
Atom   3H    basis set group =>   2
Atom   4C    basis set group =>   1
Atom   5O    basis set group =>   3
Atom   6N    basis set group =>   4
Atom   7C    basis set group =>   1
Atom   8H    basis set group =>   2
Atom   9H    basis set group =>   2
Atom  10C    basis set group =>   1
Atom  11H    basis set group =>   2
Atom  12H    basis set group =>   2
Atom  13C    basis set group =>   1
Atom  14H    basis set group =>   2
Atom  15H    basis set group =>   2
Atom  16C    basis set group =>   1
Atom  17N    basis set group =>   4
Atom  18O    basis set group =>   3
Atom  19C    basis set group =>   1
Atom  20H    basis set group =>   2
Atom  21H    basis set group =>   2
Atom  22H    basis set group =>   2
Atom  23C    basis set group =>   1
Atom  24H    basis set group =>   2
Atom  25H    basis set group =>   2
Atom  26H    basis set group =>   2
Atom  27S    basis set group =>   5
Atom  28C    basis set group =>   1
Atom  29H    basis set group =>   2
Atom  30H    basis set group =>   2
Atom  31H    basis set group =>   2
---------------------------------
AUXILIARY/C BASIS SET INFORMATION
---------------------------------
There are 5 groups of distinct atoms

 Group   1 Type C   : 13s11p10d2f contracted to 13s11p10d2f pattern {1111111111111/11111111111/1111111111/11}
 Group   2 Type H   : 9s2p contracted to 9s2p pattern {111111111/11}
 Group   3 Type O   : 14s11p10d2f contracted to 14s11p10d2f pattern {11111111111111/11111111111/1111111111/11}
 Group   4 Type N   : 14s11p10d2f contracted to 14s11p10d2f pattern {11111111111111/11111111111/1111111111/11}
 Group   5 Type S   : 17s15p14d4f contracted to 17s15p14d4f pattern {11111111111111111/111111111111111/11111111111111/1111}

Atom   0C    basis set group =>   1
Atom   1H    basis set group =>   2
Atom   2H    basis set group =>   2
Atom   3H    basis set group =>   2
Atom   4C    basis set group =>   1
Atom   5O    basis set group =>   3
Atom   6N    basis set group =>   4
Atom   7C    basis set group =>   1
Atom   8H    basis set group =>   2
Atom   9H    basis set group =>   2
Atom  10C    basis set group =>   1
Atom  11H    basis set group =>   2
Atom  12H    basis set group =>   2
Atom  13C    basis set group =>   1
Atom  14H    basis set group =>   2
Atom  15H    basis set group =>   2
Atom  16C    basis set group =>   1
Atom  17N    basis set group =>   4
Atom  18O    basis set group =>   3
Atom  19C    basis set group =>   1
Atom  20H    basis set group =>   2
Atom  21H    basis set group =>   2
Atom  22H    basis set group =>   2
Atom  23C    basis set group =>   1
Atom  24H    basis set group =>   2
Atom  25H    basis set group =>   2
Atom  26H    basis set group =>   2
Atom  27S    basis set group =>   5
Atom  28C    basis set group =>   1
Atom  29H    basis set group =>   2
Atom  30H    basis set group =>   2
Atom  31H    basis set group =>   2
----------------------------------
AUXILIARY/JK BASIS SET INFORMATION
----------------------------------
There are 5 groups of distinct atoms

 Group   1 Type C   : 13s11p10d2f contracted to 13s11p10d2f pattern {1111111111111/11111111111/1111111111/11}
 Group   2 Type H   : 9s2p contracted to 9s2p pattern {111111111/11}
 Group   3 Type O   : 14s11p10d2f contracted to 14s11p10d2f pattern {11111111111111/11111111111/1111111111/11}
 Group   4 Type N   : 14s11p10d2f contracted to 14s11p10d2f pattern {11111111111111/11111111111/1111111111/11}
 Group   5 Type S   : 17s15p14d4f contracted to 17s15p14d4f pattern {11111111111111111/111111111111111/11111111111111/1111}

Atom   0C    basis set group =>   1
Atom   1H    basis set group =>   2
Atom   2H    basis set group =>   2
Atom   3H    basis set group =>   2
Atom   4C    basis set group =>   1
Atom   5O    basis set group =>   3
Atom   6N    basis set group =>   4
Atom   7C    basis set group =>   1
Atom   8H    basis set group =>   2
Atom   9H    basis set group =>   2
Atom  10C    basis set group =>   1
Atom  11H    basis set group =>   2
Atom  12H    basis set group =>   2
Atom  13C    basis set group =>   1
Atom  14H    basis set group =>   2
Atom  15H    basis set group =>   2
Atom  16C    basis set group =>   1
Atom  17N    basis set group =>   4
Atom  18O    basis set group =>   3
Atom  19C    basis set group =>   1
Atom  20H    basis set group =>   2
Atom  21H    basis set group =>   2
Atom  22H    basis set group =>   2
Atom  23C    basis set group =>   1
Atom  24H    basis set group =>   2
Atom  25H    basis set group =>   2
Atom  26H    basis set group =>   2
Atom  27S    basis set group =>   5
Atom  28C    basis set group =>   1
Atom  29H    basis set group =>   2
Atom  30H    basis set group =>   2
Atom  31H    basis set group =>   2


           ************************************************************
           *        Program running with 4 parallel MPI-processes     *
           *              working on a common directory               *
           ************************************************************
------------------------------------------------------------------------------
                           ORCA GTO INTEGRAL CALCULATION
                           -- RI-GTO INTEGRALS CHOSEN --
------------------------------------------------------------------------------
------------------------------------------------------------------------------
                   ___                                                        
                  /   \      - P O W E R E D   B Y -                         
                 /     \                                                     
                 |  |  |   _    _      __       _____    __    __             
                 |  |  |  | |  | |    /  \     |  _  \  |  |  /  |          
                  \  \/   | |  | |   /    \    | | | |  |  | /  /          
                 / \  \   | |__| |  /  /\  \   | |_| |  |  |/  /          
                |  |  |   |  __  | /  /__\  \  |    /   |      \           
                |  |  |   | |  | | |   __   |  |    \   |  |\   \          
                \     /   | |  | | |  |  |  |  | |\  \  |  | \   \       
                 \___/    |_|  |_| |__|  |__|  |_| \__\ |__|  \__/        
                                                                              
                      - O R C A' S   B I G   F R I E N D -                    
                                      &                                       
                       - I N T E G R A L  F E E D E R -                       
                                                                              
 v1 FN, 2020, v2 2021                                                         
------------------------------------------------------------------------------


Reading SHARK input file Nm_gas.SHARKINP.tmp ... ok
----------------------
SHARK INTEGRAL PACKAGE
----------------------

Number of atoms                             ...     32
Number of basis functions                   ...    236
Number of shells                            ...    122
Maximum angular momentum                    ...      2
Integral batch strategy                     ... SHARK/LIBINT Hybrid
RI-J (if used) integral strategy            ... SPLIT-RIJ (Revised 2003 algorithm where possible)
Printlevel                                  ...      1
Contraction scheme used                     ... SEGMENTED contraction
Coulomb Range Separation                    ... NOT USED
Exchange Range Separation                   ... NOT USED
Finite Nucleus Model                        ... NOT USED
Auxiliary Coulomb fitting basis             ... AVAILABLE
   # of basis functions in Aux-J            ...   1864
   # of shells in Aux-J                     ...    720
   Maximum angular momentum in Aux-J        ...      3
Auxiliary J/K fitting basis                 ... AVAILABLE
   # of basis functions in Aux-JK           ...   1864
   # of shells in Aux-JK                    ...    720
   Maximum angular momentum in Aux-JK       ...      3
Auxiliary Correlation fitting basis         ... AVAILABLE
   # of basis functions in Aux-C            ...   1864
   # of shells in Aux-C                     ...    720
   Maximum angular momentum in Aux-C        ...      3
Auxiliary 'external' fitting basis          ... NOT available
Integral threshold                          ...     2.500000e-11
Primitive cut-off                           ...     2.500000e-12
Primitive pair pre-selection threshold      ...     2.500000e-12

Calculating pre-screening integrals         ... done (  0.0 sec) Dimension = 122
Organizing shell pair data                  ... done (  0.6 sec)
Shell pair information
Total number of shell pairs                 ...      7503
Shell pairs after pre-screening             ...      6525
Total number of primitive shell pairs       ...     43743
Primitive shell pairs kept                  ...     21887
          la=0 lb=0:   2653 shell pairs
          la=1 lb=0:   2085 shell pairs
          la=1 lb=1:    415 shell pairs
          la=2 lb=0:    912 shell pairs
          la=2 lb=1:    370 shell pairs
          la=2 lb=2:     90 shell pairs

Calculating one electron integrals          ... done (  0.0 sec)
Calculating RI/J V-Matrix + Cholesky decomp.... done (  0.2 sec)
Calculating RI/JK V-Matrix + Cholesky decomp... done (  0.2 sec)
Calculating RI/C V-Matrix + Cholesky decomp.... done (  0.2 sec)
Calculating Nuclear repulsion               ... done (  0.0 sec) ENN=   1104.911730166790 Eh

SHARK setup successfully completed in   1.9 seconds

Maximum memory used throughout the entire GTOINT-calculation: 31.3 MB


           ************************************************************
           *        Program running with 4 parallel MPI-processes     *
           *              working on a common directory               *
           ************************************************************
-------------------------------------------------------------------------------
                                 ORCA SCF
-------------------------------------------------------------------------------

------------
SCF SETTINGS
------------
Hamiltonian:
 Density Functional     Method          .... DFT(GTOs)
 Exchange Functional    Exchange        .... B88
   X-Alpha parameter    XAlpha          ....  0.666667
   Becke's b parameter  XBeta           ....  0.004200
 Correlation Functional Correlation     .... LYP
 LDA part of GGA corr.  LDAOpt          .... VWN-5
 Gradients option       PostSCFGGA      .... off
 Hybrid DFT is turned on
   Fraction HF Exchange ScalHFX         ....  0.200000
   Scaling of DF-GGA-X  ScalDFX         ....  0.720000
   Scaling of DF-GGA-C  ScalDFC         ....  0.810000
   Scaling of DF-LDA-C  ScalLDAC        ....  1.000000
   Perturbative correction              ....  0.000000
   Density functional embedding theory  .... OFF
   NL short-range parameter             ....  4.800000
 RI-approximation to the Coulomb term is turned on
   Number of AuxJ basis functions       .... 1864
   RIJ-COSX (HFX calculated with COS-X)).... on


General Settings:
 Integral files         IntName         .... Nm_gas
 Hartree-Fock type      HFTyp           .... RHF
 Total Charge           Charge          ....    0
 Multiplicity           Mult            ....    1
 Number of Electrons    NEL             ....  118
 Basis Dimension        Dim             ....  236
 Nuclear Repulsion      ENuc            ....   1104.9117301668 Eh

Convergence Acceleration:
 DIIS                   CNVDIIS         .... on
   Start iteration      DIISMaxIt       ....    12
   Startup error        DIISStart       ....  0.200000
   # of expansion vecs  DIISMaxEq       ....     5
   Bias factor          DIISBfac        ....   1.050
   Max. coefficient     DIISMaxC        ....  10.000
 Trust-Rad. Augm. Hess. CNVTRAH         .... auto
   Auto Start mean grad. ratio tolernc. ....  1.125000
   Auto Start start iteration           ....    20
   Auto Start num. interpolation iter.  ....    10
   Max. Number of Micro iterations      ....    16
   Max. Number of Macro iterations      .... Maxiter - #DIIS iter
   Number of Davidson start vectors     ....     2
   Converg. threshold I  (grad. norm)   ....   1.000e-05
   Converg. threshold II (energy diff.) ....   1.000e-08
   Grad. Scal. Fac. for Micro threshold ....   0.100
   Minimum threshold for Micro iter.    ....   0.010
   NR start threshold (gradient norm)   ....   0.001
   Initial trust radius                 ....   0.400
   Minimum AH scaling param. (alpha)    ....   1.000
   Maximum AH scaling param. (alpha)    .... 1000.000
   Orbital update algorithm             .... Taylor
   White noise on init. David. guess    .... on
   Maximum white noise                  ....   0.010
   Quad. conv. algorithm                .... NR
 SOSCF                  CNVSOSCF        .... on
   Start iteration      SOSCFMaxIt      ....   150
   Startup grad/error   SOSCFStart      ....  0.003300
 Level Shifting         CNVShift        .... on
   Level shift para.    LevelShift      ....    0.2500
   Turn off err/grad.   ShiftErr        ....    0.0010
 Zerner damping         CNVZerner       .... off
 Static damping         CNVDamp         .... on
   Fraction old density DampFac         ....    0.7000
   Max. Damping (<1)    DampMax         ....    0.9800
   Min. Damping (>=0)   DampMin         ....    0.0000
   Turn off err/grad.   DampErr         ....    0.1000
 Fernandez-Rico         CNVRico         .... off

SCF Procedure:
 Maximum # iterations   MaxIter         ....   125
 SCF integral mode      SCFMode         .... Direct
   Integral package                     .... SHARK and LIBINT hybrid scheme
 Reset frequency        DirectResetFreq ....    20
 Integral Threshold     Thresh          ....  2.500e-11 Eh
 Primitive CutOff       TCut            ....  2.500e-12 Eh

Convergence Tolerance:
 Convergence Check Mode ConvCheckMode   .... Total+1el-Energy
 Convergence forced     ConvForced      .... 0
 Energy Change          TolE            ....  1.000e-08 Eh
 1-El. energy change                    ....  1.000e-05 Eh
 Orbital Gradient       TolG            ....  1.000e-05
 Orbital Rotation angle TolX            ....  1.000e-05
 DIIS Error             TolErr          ....  5.000e-07


Diagonalization of the overlap matrix:
Smallest eigenvalue                        ... 3.272e-03
Time for diagonalization                   ...    0.009 sec
Threshold for overlap eigenvalues          ... 1.000e-08
Number of eigenvalues below threshold      ... 0
Time for construction of square roots      ...    0.006 sec
Total time needed                          ...    0.016 sec

Time for model grid setup =    0.264 sec

------------------------------
INITIAL GUESS: MODEL POTENTIAL
------------------------------
Loading Hartree-Fock densities                     ... done
Calculating cut-offs                               ... done
Initializing the effective Hamiltonian             ... done
Setting up the integral package (SHARK)            ... done
Starting the Coulomb interaction                   ... done (   0.2 sec)
Reading the grid                                   ... done
Mapping shells                                     ... done
Starting the XC term evaluation                    ... done (   0.2 sec)
  promolecular density results
     # of electrons  =    117.984518834
     EX              =   -106.208635533
     EC              =     -4.086289889
     EX+EC           =   -110.294925422
Transforming the Hamiltonian                       ... done (   0.0 sec)
Diagonalizing the Hamiltonian                      ... done (   0.0 sec)
Back transforming the eigenvectors                 ... done (   0.0 sec)
Now organizing SCF variables                       ... done
                      ------------------
                      INITIAL GUESS DONE (   0.6 sec)
                      ------------------
-------------------
DFT GRID GENERATION
-------------------

General Integration Accuracy     IntAcc      ... 4.388
Radial Grid Type                 RadialGrid  ... OptM3 with GC (2021)
Angular Grid (max. ang.)         AngularGrid ... 4 (Lebedev-302)
Angular grid pruning method      GridPruning ... 4 (adaptive)
Weight generation scheme         WeightScheme... Becke
Basis function cutoff            BFCut       ... 1.0000e-11
Integration weight cutoff        WCut        ... 1.0000e-14
Angular grids for H and He will be reduced by one unit
Partially contracted basis set               ... off
Rotationally invariant grid construction     ... off

Total number of grid points                  ...   142195
Total number of batches                      ...     2239
Average number of points per batch           ...       63
Average number of grid points per atom       ...     4444
Time for grid setup =    1.185 sec

--------------------
COSX GRID GENERATION
--------------------

GRIDX 1
-------
General Integration Accuracy     IntAcc      ... 3.816
Radial Grid Type                 RadialGrid  ... OptM3 with GC (2021)
Angular Grid (max. ang.)         AngularGrid ... 1 (Lebedev-50)
Angular grid pruning method      GridPruning ... 4 (adaptive)
Weight generation scheme         WeightScheme... Becke
Basis function cutoff            BFCut       ... 1.0000e-11
Integration weight cutoff        WCut        ... 1.0000e-14
Angular grids for H and He will be reduced by one unit
Partially contracted basis set               ... on
Rotationally invariant grid construction     ... off

Total number of grid points                  ...    18054
Total number of batches                      ...      301
Average number of points per batch           ...       59
Average number of grid points per atom       ...      564
UseSFitting                                  ... on

GRIDX 2
-------
General Integration Accuracy     IntAcc      ... 4.020
Radial Grid Type                 RadialGrid  ... OptM3 with GC (2021)
Angular Grid (max. ang.)         AngularGrid ... 2 (Lebedev-110)
Angular grid pruning method      GridPruning ... 4 (adaptive)
Weight generation scheme         WeightScheme... Becke
Basis function cutoff            BFCut       ... 1.0000e-11
Integration weight cutoff        WCut        ... 1.0000e-14
Angular grids for H and He will be reduced by one unit
Partially contracted basis set               ... on
Rotationally invariant grid construction     ... off

Total number of grid points                  ...    38040
Total number of batches                      ...      612
Average number of points per batch           ...       62
Average number of grid points per atom       ...     1189
UseSFitting                                  ... on

GRIDX 3
-------
General Integration Accuracy     IntAcc      ... 4.338
Radial Grid Type                 RadialGrid  ... OptM3 with GC (2021)
Angular Grid (max. ang.)         AngularGrid ... 3 (Lebedev-194)
Angular grid pruning method      GridPruning ... 4 (adaptive)
Weight generation scheme         WeightScheme... Becke
Basis function cutoff            BFCut       ... 1.0000e-11
Integration weight cutoff        WCut        ... 1.0000e-14
Angular grids for H and He will be reduced by one unit
Partially contracted basis set               ... on
Rotationally invariant grid construction     ... off

Total number of grid points                  ...    83359
Total number of batches                      ...     1322
Average number of points per batch           ...       63
Average number of grid points per atom       ...     2605
UseSFitting                                  ... on

Time for X-Grid setup             =    2.886 sec

--------------
SCF ITERATIONS
--------------
ITER       Energy         Delta-E        Max-DP      RMS-DP      [F,P]     Damp
               ***  Starting incremental Fock matrix formation  ***
  0  -1011.0779684868   0.000000000000 0.10172152  0.00226637  0.2759696 0.7000
  1  -1011.2808251532  -0.202856666314 0.05766298  0.00148740  0.1062077 0.7000
                               ***Turning on DIIS***
  2  -1011.3555674961  -0.074742342994 0.06857539  0.00225095  0.0383420 0.0000
  3  -1011.4789301327  -0.123362636581 0.03852070  0.00104033  0.0518427 0.0000
  4  -1011.5037790051  -0.024848872393 0.00987543  0.00034230  0.0162256 0.0000
  5  -1011.5057697983  -0.001990793158 0.00367531  0.00010658  0.0052573 0.0000
                      *** Initiating the SOSCF procedure ***
                           *** Shutting down DIIS ***
                      *** Re-Reading the Fockian *** 
                      *** Removing any level shift *** 
ITER      Energy       Delta-E        Grad      Rot      Max-DP    RMS-DP
  6  -1011.50589587  -0.0001260736  0.000185  0.000185  0.001382  0.000043
               *** Restarting incremental Fock matrix formation ***
  7  -1011.50592816  -0.0000322906  0.000135  0.000542  0.001414  0.000024
  8  -1011.50592444   0.0000037178  0.000260  0.000398  0.000980  0.000015
  9  -1011.50593086  -0.0000064148  0.000045  0.000135  0.000256  0.000006
 10  -1011.50593060   0.0000002572  0.000096  0.000093  0.000201  0.000004
 11  -1011.50593094  -0.0000003393  0.000007  0.000010  0.000034  0.000001
 12  -1011.50593095  -0.0000000050  0.000007  0.000005  0.000017  0.000001
                  ***Gradient check signals convergence***
              ***Rediagonalizing the Fockian in SOSCF/NRSCF***

               *****************************************************
               *                     SUCCESS                       *
               *           SCF CONVERGED AFTER  13 CYCLES          *
               *****************************************************

Old exchange energy                            =    -21.573990763 Eh
New exchange energy                            =    -21.573972655 Eh
Exchange energy change after final integration =      0.000018108 Eh
Total energy after final integration           =  -1011.505912836 Eh
Final COS-X integration done in                =     9.808 sec

----------------
TOTAL SCF ENERGY
----------------

Total Energy       :        -1011.50591284 Eh          -27524.47521 eV

Components:
Nuclear Repulsion  :         1104.91173017 Eh           30066.17671 eV
Electronic Energy  :        -2116.41764300 Eh          -57590.65192 eV
One Electron Energy:        -3579.03904129 Eh          -97390.60356 eV
Two Electron Energy:         1462.62139828 Eh           39799.95164 eV
Max COSX asymmetry :            0.00000236 Eh               0.00006 eV

Virial components:
Potential Energy   :        -2018.75348631 Eh          -54933.07511 eV
Kinetic Energy     :         1007.24757348 Eh           27408.59990 eV
Virial Ratio       :            2.00422770


DFT components:
N(Alpha)           :       58.999989710712 electrons
N(Beta)            :       58.999989710712 electrons
N(Total)           :      117.999979421424 electrons
E(X)               :      -85.641225681611 Eh       
E(C)               :       -4.807862922167 Eh       
E(XC)              :      -90.449088603777 Eh       
DFET-embed. en.    :        0.000000000000 Eh       

---------------
SCF CONVERGENCE
---------------

  Last Energy change         ...    2.7123e-09  Tolerance :   1.0000e-08
  Last MAX-Density change    ...    4.4409e-15  Tolerance :   1.0000e-07
  Last RMS-Density change    ...    5.1873e-17  Tolerance :   5.0000e-09
  Last Orbital Gradient      ...    5.6830e-07  Tolerance :   1.0000e-05
  Last Orbital Rotation      ...    1.9280e-06  Tolerance :   1.0000e-05

             **** THE GBW FILE WAS UPDATED (Nm_gas.gbw) ****
             **** DENSITY Nm_gas.scfp WAS UPDATED ****
             **** ENERGY FILE WAS UPDATED (Nm_gas.en.tmp) ****
             **** THE GBW FILE WAS UPDATED (Nm_gas.gbw) ****
             **** DENSITY Nm_gas.scfp WAS UPDATED ****
----------------
ORBITAL ENERGIES
----------------

  NO   OCC          E(Eh)            E(eV) 
   0   2.0000     -88.847930     -2417.6751 
   1   2.0000     -19.111271      -520.0441 
   2   2.0000     -19.109404      -519.9933 
   3   2.0000     -14.367860      -390.9693 
   4   2.0000     -14.366281      -390.9264 
   5   2.0000     -10.288230      -279.9570 
   6   2.0000     -10.282731      -279.8073 
   7   2.0000     -10.224332      -278.2182 
   8   2.0000     -10.217730      -278.0386 
   9   2.0000     -10.210638      -277.8456 
  10   2.0000     -10.208640      -277.7912 
  11   2.0000     -10.206926      -277.7446 
  12   2.0000     -10.190609      -277.3006 
  13   2.0000     -10.186428      -277.1868 
  14   2.0000      -7.924393      -215.6337 
  15   2.0000      -5.888873      -160.2444 
  16   2.0000      -5.885056      -160.1405 
  17   2.0000      -5.878074      -159.9505 
  18   2.0000      -1.034319       -28.1453 
  19   2.0000      -1.026113       -27.9219 
  20   2.0000      -0.941228       -25.6121 
  21   2.0000      -0.934773       -25.4365 
  22   2.0000      -0.811470       -22.0812 
  23   2.0000      -0.768916       -20.9233 
  24   2.0000      -0.741925       -20.1888 
  25   2.0000      -0.727562       -19.7980 
  26   2.0000      -0.715584       -19.4720 
  27   2.0000      -0.680124       -18.5071 
  28   2.0000      -0.666794       -18.1444 
  29   2.0000      -0.590821       -16.0771 
  30   2.0000      -0.560998       -15.2655 
  31   2.0000      -0.546029       -14.8582 
  32   2.0000      -0.519691       -14.1415 
  33   2.0000      -0.496405       -13.5079 
  34   2.0000      -0.488228       -13.2853 
  35   2.0000      -0.475096       -12.9280 
  36   2.0000      -0.462930       -12.5970 
  37   2.0000      -0.458550       -12.4778 
  38   2.0000      -0.452693       -12.3184 
  39   2.0000      -0.431094       -11.7307 
  40   2.0000      -0.421131       -11.4596 
  41   2.0000      -0.417885       -11.3712 
  42   2.0000      -0.411161       -11.1883 
  43   2.0000      -0.407046       -11.0763 
  44   2.0000      -0.404494       -11.0069 
  45   2.0000      -0.401985       -10.9386 
  46   2.0000      -0.394710       -10.7406 
  47   2.0000      -0.392394       -10.6776 
  48   2.0000      -0.383065       -10.4237 
  49   2.0000      -0.377445       -10.2708 
  50   2.0000      -0.361537        -9.8379 
  51   2.0000      -0.356493        -9.7007 
  52   2.0000      -0.352639        -9.5958 
  53   2.0000      -0.309217        -8.4142 
  54   2.0000      -0.261320        -7.1109 
  55   2.0000      -0.252964        -6.8835 
  56   2.0000      -0.242747        -6.6055 
  57   2.0000      -0.242019        -6.5857 
  58   2.0000      -0.217709        -5.9242 
  59   0.0000       0.006951         0.1891 
  60   0.0000       0.021510         0.5853 
  61   0.0000       0.048189         1.3113 
  62   0.0000       0.071735         1.9520 
  63   0.0000       0.084069         2.2876 
  64   0.0000       0.088702         2.4137 
  65   0.0000       0.107914         2.9365 
  66   0.0000       0.114892         3.1264 
  67   0.0000       0.122892         3.3441 
  68   0.0000       0.136358         3.7105 
  69   0.0000       0.140803         3.8314 
  70   0.0000       0.146685         3.9915 
  71   0.0000       0.153779         4.1845 
  72   0.0000       0.157544         4.2870 
  73   0.0000       0.159010         4.3269 
  74   0.0000       0.165902         4.5144 
  75   0.0000       0.175398         4.7728 
  76   0.0000       0.179121         4.8741 
  77   0.0000       0.180481         4.9111 
  78   0.0000       0.191865         5.2209 
  79   0.0000       0.200937         5.4678 
  80   0.0000       0.204458         5.5636 
  81   0.0000       0.214877         5.8471 
  82   0.0000       0.219968         5.9856 
  83   0.0000       0.227742         6.1972 
  84   0.0000       0.238495         6.4898 
  85   0.0000       0.247685         6.7399 
  86   0.0000       0.252819         6.8795 
  87   0.0000       0.277485         7.5507 
  88   0.0000       0.325654         8.8615 
  89   0.0000       0.352246         9.5851 
  90   0.0000       0.365312         9.9406 
  91   0.0000       0.375592        10.2204 
  92   0.0000       0.398030        10.8309 
  93   0.0000       0.402590        10.9550 
  94   0.0000       0.417156        11.3514 
  95   0.0000       0.437083        11.8936 
  96   0.0000       0.461315        12.5530 
  97   0.0000       0.475254        12.9323 
  98   0.0000       0.498071        13.5532 
  99   0.0000       0.506231        13.7753 
 100   0.0000       0.514186        13.9917 
 101   0.0000       0.527793        14.3620 
 102   0.0000       0.531015        14.4496 
 103   0.0000       0.541283        14.7291 
 104   0.0000       0.566227        15.4078 
 105   0.0000       0.580629        15.7997 
 106   0.0000       0.587299        15.9812 
 107   0.0000       0.596606        16.2345 
 108   0.0000       0.598870        16.2961 
 109   0.0000       0.608607        16.5610 
 110   0.0000       0.629627        17.1330 
 111   0.0000       0.641841        17.4654 
 112   0.0000       0.653625        17.7860 
 113   0.0000       0.667621        18.1669 
 114   0.0000       0.676439        18.4068 
 115   0.0000       0.697134        18.9700 
 116   0.0000       0.715052        19.4575 
 117   0.0000       0.716903        19.5079 
 118   0.0000       0.749863        20.4048 
 119   0.0000       0.756169        20.5764 
 120   0.0000       0.784541        21.3484 
 121   0.0000       0.792536        21.5660 
 122   0.0000       0.801476        21.8093 
 123   0.0000       0.819769        22.3070 
 124   0.0000       0.834665        22.7124 
 125   0.0000       0.835442        22.7335 
 126   0.0000       0.839527        22.8447 
 127   0.0000       0.850502        23.1433 
 128   0.0000       0.854425        23.2501 
 129   0.0000       0.866095        23.5676 
 130   0.0000       0.876777        23.8583 
 131   0.0000       0.879963        23.9450 
 132   0.0000       0.885029        24.0829 
 133   0.0000       0.887654        24.1543 
 134   0.0000       0.892279        24.2802 
 135   0.0000       0.905696        24.6452 
 136   0.0000       0.912696        24.8357 
 137   0.0000       0.921685        25.0803 
 138   0.0000       0.927048        25.2263 
 139   0.0000       0.940269        25.5860 
 140   0.0000       0.942277        25.6407 
 141   0.0000       0.958000        26.0685 
 142   0.0000       0.968944        26.3663 
 143   0.0000       0.972016        26.4499 
 144   0.0000       0.986611        26.8471 
 145   0.0000       1.001767        27.2595 
 146   0.0000       1.002396        27.2766 
 147   0.0000       1.013945        27.5909 
 148   0.0000       1.030262        28.0349 
 149   0.0000       1.045072        28.4378 
 150   0.0000       1.049684        28.5633 
 151   0.0000       1.074871        29.2487 
 152   0.0000       1.107168        30.1276 
 153   0.0000       1.127192        30.6724 
 154   0.0000       1.177238        32.0343 
 155   0.0000       1.181271        32.1440 
 156   0.0000       1.213662        33.0254 
 157   0.0000       1.233696        33.5706 
 158   0.0000       1.251963        34.0677 
 159   0.0000       1.282576        34.9007 
 160   0.0000       1.290857        35.1260 
 161   0.0000       1.314240        35.7623 
 162   0.0000       1.336879        36.3783 
 163   0.0000       1.358639        36.9704 
 164   0.0000       1.372874        37.3578 
 165   0.0000       1.400617        38.1127 
 166   0.0000       1.426361        38.8133 
 167   0.0000       1.430601        38.9286 
 168   0.0000       1.444128        39.2967 
 169   0.0000       1.454645        39.5829 
 170   0.0000       1.481164        40.3045 
 171   0.0000       1.550990        42.2046 
 172   0.0000       1.587935        43.2099 
 173   0.0000       1.639924        44.6246 
 174   0.0000       1.657585        45.1052 
 175   0.0000       1.708367        46.4870 
 176   0.0000       1.724005        46.9126 
 177   0.0000       1.729187        47.0536 
 178   0.0000       1.741774        47.3961 
 179   0.0000       1.754628        47.7459 
 180   0.0000       1.781883        48.4875 
 181   0.0000       1.800833        49.0032 
 182   0.0000       1.817631        49.4603 
 183   0.0000       1.838047        50.0158 
 184   0.0000       1.852588        50.4115 
 185   0.0000       1.862872        50.6913 
 186   0.0000       1.890414        51.4408 
 187   0.0000       1.892502        51.4976 
 188   0.0000       1.913153        52.0595 
 189   0.0000       1.933265        52.6068 
 190   0.0000       1.942266        52.8517 
 191   0.0000       1.953536        53.1584 
 192   0.0000       1.971515        53.6477 
 193   0.0000       1.975802        53.7643 
 194   0.0000       2.017485        54.8985 
 195   0.0000       2.030757        55.2597 
 196   0.0000       2.041441        55.5504 
 197   0.0000       2.072455        56.3944 
 198   0.0000       2.076131        56.4944 
 199   0.0000       2.083305        56.6896 
 200   0.0000       2.097210        57.0680 
 201   0.0000       2.117895        57.6309 
 202   0.0000       2.141219        58.2655 
 203   0.0000       2.184021        59.4302 
 204   0.0000       2.195209        59.7347 
 205   0.0000       2.202841        59.9423 
 206   0.0000       2.217526        60.3420 
 207   0.0000       2.248774        61.1923 
 208   0.0000       2.258537        61.4579 
 209   0.0000       2.263706        61.5986 
 210   0.0000       2.271520        61.8112 
 211   0.0000       2.279038        62.0158 
 212   0.0000       2.326451        63.3059 
 213   0.0000       2.328079        63.3503 
 214   0.0000       2.339828        63.6700 
 215   0.0000       2.362182        64.2782 
 216   0.0000       2.369725        64.4835 
 217   0.0000       2.410199        65.5849 
 218   0.0000       2.425479        66.0006 
 219   0.0000       2.468547        67.1726 
 220   0.0000       2.510995        68.3276 
 221   0.0000       2.543617        69.2153 
 222   0.0000       2.568569        69.8943 
 223   0.0000       2.613203        71.1089 
 224   0.0000       2.628151        71.5156 
 225   0.0000       2.638182        71.7886 
 226   0.0000       2.665678        72.5368 
 227   0.0000       2.702763        73.5459 
 228   0.0000       2.723075        74.0986 
 229   0.0000       2.744657        74.6859 
 230   0.0000       2.933346        79.8204 
 231   0.0000       2.950287        80.2814 
 232   0.0000       2.998560        81.5950 
 233   0.0000       3.012338        81.9699 
 234   0.0000       3.159923        85.9859 
 235   0.0000       3.178871        86.5015 

                    ********************************
                    * MULLIKEN POPULATION ANALYSIS *
                    ********************************

-----------------------
MULLIKEN ATOMIC CHARGES
-----------------------
   0 C :   -0.550687
   1 H :    0.169770
   2 H :    0.179924
   3 H :    0.190691
   4 C :    0.525413
   5 O :   -0.482476
   6 N :   -0.378279
   7 C :   -0.246134
   8 H :    0.176011
   9 H :    0.204797
  10 C :   -0.158559
  11 H :    0.168064
  12 H :    0.183462
  13 C :   -0.428622
  14 H :    0.192928
  15 H :    0.170750
  16 C :    0.515938
  17 N :   -0.362395
  18 O :   -0.495541
  19 C :   -0.346624
  20 H :    0.152439
  21 H :    0.158334
  22 H :    0.215108
  23 C :   -0.323045
  24 H :    0.154789
  25 H :    0.201745
  26 H :    0.154793
  27 S :    0.088057
  28 C :   -0.598995
  29 H :    0.207814
  30 H :    0.180980
  31 H :    0.179553
Sum of atomic charges:   -0.0000000

--------------------------------
MULLIKEN REDUCED ORBITAL CHARGES
--------------------------------
  0 C s       :     3.319001  s :     3.319001
      pz      :     1.068646  p :     3.199552
      px      :     1.109747
      py      :     1.021159
      dz2     :     0.002256  d :     0.032134
      dxz     :     0.009890
      dyz     :     0.008107
      dx2y2   :     0.005933
      dxy     :     0.005949
  1 H s       :     0.830230  s :     0.830230
  2 H s       :     0.820076  s :     0.820076
  3 H s       :     0.809309  s :     0.809309
  4 C s       :     2.982047  s :     2.982047
      pz      :     0.808066  p :     2.384508
      px      :     0.757541
      py      :     0.818901
      dz2     :     0.008725  d :     0.108033
      dxz     :     0.028068
      dyz     :     0.007350
      dx2y2   :     0.026219
      dxy     :     0.037671
  5 O s       :     3.876822  s :     3.876822
      pz      :     1.528704  p :     4.579532
      px      :     1.366138
      py      :     1.684690
      dz2     :     0.002491  d :     0.026123
      dxz     :     0.008412
      dyz     :     0.000602
      dx2y2   :     0.007670
      dxy     :     0.006947
  6 N s       :     3.532141  s :     3.532141
      pz      :     1.484270  p :     3.809779
      px      :     1.090431
      py      :     1.235078
      dz2     :     0.004867  d :     0.036360
      dxz     :     0.006932
      dyz     :     0.004899
      dx2y2   :     0.009861
      dxy     :     0.009800
  7 C s       :     3.248966  s :     3.248966
      pz      :     1.010274  p :     2.945176
      px      :     1.093284
      py      :     0.841618
      dz2     :     0.014475  d :     0.051992
      dxz     :     0.004971
      dyz     :     0.011159
      dx2y2   :     0.014330
      dxy     :     0.007058
  8 H s       :     0.823989  s :     0.823989
  9 H s       :     0.795203  s :     0.795203
 10 C s       :     3.213309  s :     3.213309
      pz      :     1.024692  p :     2.890858
      px      :     0.795330
      py      :     1.070835
      dz2     :     0.011266  d :     0.054393
      dxz     :     0.013138
      dyz     :     0.006073
      dx2y2   :     0.016573
      dxy     :     0.007342
 11 H s       :     0.831936  s :     0.831936
 12 H s       :     0.816538  s :     0.816538
 13 C s       :     3.328820  s :     3.328820
      pz      :     1.022757  p :     3.059156
      px      :     0.927007
      py      :     1.109393
      dz2     :     0.009024  d :     0.040645
      dxz     :     0.007968
      dyz     :     0.007179
      dx2y2   :     0.010385
      dxy     :     0.006090
 14 H s       :     0.807072  s :     0.807072
 15 H s       :     0.829250  s :     0.829250
 16 C s       :     2.987408  s :     2.987408
      pz      :     0.778926  p :     2.389077
      px      :     0.773606
      py      :     0.836544
      dz2     :     0.028042  d :     0.107578
      dxz     :     0.023305
      dyz     :     0.016130
      dx2y2   :     0.016630
      dxy     :     0.023471
 17 N s       :     3.530262  s :     3.530262
      pz      :     1.198102  p :     3.794570
      px      :     1.318724
      py      :     1.277743
      dz2     :     0.008008  d :     0.037563
      dxz     :     0.007990
      dyz     :     0.008258
      dx2y2   :     0.005562
      dxy     :     0.007746
 18 O s       :     3.876656  s :     3.876656
      pz      :     1.612084  p :     4.593111
      px      :     1.368055
      py      :     1.612972
      dz2     :     0.004080  d :     0.025774
      dxz     :     0.006314
      dyz     :     0.003368
      dx2y2   :     0.006759
      dxy     :     0.005254
 19 C s       :     3.270074  s :     3.270074
      pz      :     1.008097  p :     3.028178
      px      :     0.943967
      py      :     1.076114
      dz2     :     0.007658  d :     0.048372
      dxz     :     0.011837
      dyz     :     0.010753
      dx2y2   :     0.005104
      dxy     :     0.013021
 20 H s       :     0.847561  s :     0.847561
 21 H s       :     0.841666  s :     0.841666
 22 H s       :     0.784892  s :     0.784892
 23 C s       :     3.256066  s :     3.256066
      pz      :     1.064068  p :     3.018926
      px      :     1.034371
      py      :     0.920487
      dz2     :     0.005592  d :     0.048054
      dxz     :     0.013528
      dyz     :     0.009410
      dx2y2   :     0.006232
      dxy     :     0.013291
 24 H s       :     0.845211  s :     0.845211
 25 H s       :     0.798255  s :     0.798255
 26 H s       :     0.845207  s :     0.845207
 27 S s       :     5.837433  s :     5.837433
      pz      :     3.450562  p :    10.006139
      px      :     2.995201
      py      :     3.560376
      dz2     :     0.012756  d :     0.068371
      dxz     :     0.008937
      dyz     :     0.015613
      dx2y2   :     0.021724
      dxy     :     0.009341
 28 C s       :     3.376124  s :     3.376124
      pz      :     1.020575  p :     3.188493
      px      :     1.115264
      py      :     1.052654
      dz2     :     0.012127  d :     0.034378
      dxz     :     0.001846
      dyz     :     0.007252
      dx2y2   :     0.006321
      dxy     :     0.006832
 29 H s       :     0.792186  s :     0.792186
 30 H s       :     0.819020  s :     0.819020
 31 H s       :     0.820447  s :     0.820447


                     *******************************
                     * LOEWDIN POPULATION ANALYSIS *
                     *******************************

----------------------
LOEWDIN ATOMIC CHARGES
----------------------
   0 C :   -0.388728
   1 H :    0.140939
   2 H :    0.149061
   3 H :    0.154862
   4 C :    0.112873
   5 O :   -0.294496
   6 N :   -0.078054
   7 C :   -0.178100
   8 H :    0.142001
   9 H :    0.159210
  10 C :   -0.169085
  11 H :    0.137247
  12 H :    0.143361
  13 C :   -0.349527
  14 H :    0.141517
  15 H :    0.137905
  16 C :    0.094486
  17 N :   -0.077180
  18 O :   -0.303274
  19 C :   -0.285962
  20 H :    0.122931
  21 H :    0.128607
  22 H :    0.157161
  23 C :   -0.278812
  24 H :    0.123143
  25 H :    0.155477
  26 H :    0.128206
  27 S :    0.117934
  28 C :   -0.475713
  29 H :    0.151619
  30 H :    0.146734
  31 H :    0.133659

-------------------------------
LOEWDIN REDUCED ORBITAL CHARGES
-------------------------------
  0 C s       :     2.981435  s :     2.981435
      pz      :     1.120605  p :     3.343844
      px      :     1.141292
      py      :     1.081946
      dz2     :     0.004210  d :     0.063449
      dxz     :     0.018394
      dyz     :     0.016571
      dx2y2   :     0.012131
      dxy     :     0.012143
  1 H s       :     0.859061  s :     0.859061
  2 H s       :     0.850939  s :     0.850939
  3 H s       :     0.845138  s :     0.845138
  4 C s       :     2.848837  s :     2.848837
      pz      :     0.847827  p :     2.783997
      px      :     0.980597
      py      :     0.955573
      dz2     :     0.019935  d :     0.254293
      dxz     :     0.063078
      dyz     :     0.015070
      dx2y2   :     0.063933
      dxy     :     0.092277
  5 O s       :     3.569769  s :     3.569769
      pz      :     1.523919  p :     4.671873
      px      :     1.457288
      py      :     1.690666
      dz2     :     0.006469  d :     0.052854
      dxz     :     0.012679
      dyz     :     0.001011
      dx2y2   :     0.018728
      dxy     :     0.013966
  6 N s       :     3.095860  s :     3.095860
      pz      :     1.467775  p :     3.886911
      px      :     1.158264
      py      :     1.260872
      dz2     :     0.010981  d :     0.095283
      dxz     :     0.017276
      dyz     :     0.012132
      dx2y2   :     0.027027
      dxy     :     0.027867
  7 C s       :     2.930795  s :     2.930795
      pz      :     1.062644  p :     3.137190
      px      :     1.126101
      py      :     0.948444
      dz2     :     0.029693  d :     0.110116
      dxz     :     0.008979
      dyz     :     0.024890
      dx2y2   :     0.030608
      dxy     :     0.015947
  8 H s       :     0.857999  s :     0.857999
  9 H s       :     0.840790  s :     0.840790
 10 C s       :     2.925822  s :     2.925822
      pz      :     1.099164  p :     3.127219
      px      :     0.910220
      py      :     1.117836
      dz2     :     0.023311  d :     0.116043
      dxz     :     0.030201
      dyz     :     0.011784
      dx2y2   :     0.034647
      dxy     :     0.016101
 11 H s       :     0.862753  s :     0.862753
 12 H s       :     0.856639  s :     0.856639
 13 C s       :     2.992627  s :     2.992627
      pz      :     1.096830  p :     3.271028
      px      :     1.033705
      py      :     1.140493
      dz2     :     0.019352  d :     0.085872
      dxz     :     0.017705
      dyz     :     0.014193
      dx2y2   :     0.022283
      dxy     :     0.012339
 14 H s       :     0.858483  s :     0.858483
 15 H s       :     0.862095  s :     0.862095
 16 C s       :     2.853948  s :     2.853948
      pz      :     0.921850  p :     2.797399
      px      :     0.940675
      py      :     0.934874
      dz2     :     0.066409  d :     0.254167
      dxz     :     0.059206
      dyz     :     0.035895
      dx2y2   :     0.037572
      dxy     :     0.055085
 17 N s       :     3.090352  s :     3.090352
      pz      :     1.257081  p :     3.889153
      px      :     1.330215
      py      :     1.301858
      dz2     :     0.020562  d :     0.097674
      dxz     :     0.021644
      dyz     :     0.023243
      dx2y2   :     0.014079
      dxy     :     0.018145
 18 O s       :     3.570327  s :     3.570327
      pz      :     1.620616  p :     4.680242
      px      :     1.441077
      py      :     1.618549
      dz2     :     0.007556  d :     0.052705
      dxz     :     0.014694
      dyz     :     0.005906
      dx2y2   :     0.012199
      dxy     :     0.012350
 19 C s       :     2.963069  s :     2.963069
      pz      :     1.072245  p :     3.226334
      px      :     1.030271
      py      :     1.123818
      dz2     :     0.015386  d :     0.096559
      dxz     :     0.023722
      dyz     :     0.021378
      dx2y2   :     0.010473
      dxy     :     0.025600
 20 H s       :     0.877069  s :     0.877069
 21 H s       :     0.871393  s :     0.871393
 22 H s       :     0.842839  s :     0.842839
 23 C s       :     2.962793  s :     2.962793
      pz      :     1.112895  p :     3.220549
      px      :     1.097469
      py      :     1.010185
      dz2     :     0.010536  d :     0.095470
      dxz     :     0.026558
      dyz     :     0.018301
[...]
     61       0.000328  -0.000120   0.020414   0.000304  -0.052833  -0.010294
     62      -0.000889   0.000282  -0.043721  -0.000666   0.113311   0.023869
     63       0.000407  -0.000356  -0.044012  -0.000559   0.121204   0.023514
     64       0.000481  -0.000414  -0.045446  -0.000710   0.128352   0.026796
     65       0.000010  -0.000094  -0.006896  -0.000130   0.020778   0.004153
     66      -0.003711   0.000081   0.135509   0.002208  -0.398011  -0.084419
     67       0.006357  -0.000087  -0.236074  -0.003460   0.682956   0.144080
     68       0.003988  -0.000050  -0.143881  -0.002347   0.420683   0.088309
     69      -0.000261  -0.000190   0.000932   0.000044  -0.012629   0.059238
     70      -0.000030   0.000161  -0.000349  -0.000057   0.003818  -0.017583
     71       0.000269  -0.000335   0.000616   0.000110  -0.013125   0.062410
     72       0.002036  -0.000730   0.000242   0.000238  -0.016012   0.071967
     73       0.001235  -0.000497   0.000196   0.000142  -0.008549   0.041457
     74      -0.003710   0.001342   0.000238  -0.000483   0.024353  -0.113113
     75       0.000722   0.002634  -0.007596  -0.000830   0.131975  -0.645327
     76      -0.000185  -0.001532   0.003750   0.000345  -0.063207   0.312872
     77       0.000880   0.002592  -0.007221  -0.000801   0.125968  -0.612096
     78      -0.000118   0.000105  -0.001743   0.000107   0.029563  -0.137549
     79      -0.000163   0.000077  -0.002021   0.000098   0.033906  -0.150638
     80      -0.000079   0.000012  -0.000377   0.000035   0.006735  -0.031053
     81       0.000048  -0.000094   0.000005   0.000008   0.000007  -0.000001
     82      -0.000056   0.000108  -0.000003   0.000006  -0.000005  -0.000001
     83      -0.000001  -0.000045  -0.000003   0.000002  -0.000008   0.000001
     84      -0.021978  -0.083861  -0.000336   0.000121  -0.000007  -0.000279
     85       0.029782  -0.041541   0.000136   0.000133   0.000048  -0.000284
     86       0.037004  -0.012573   0.000276   0.000127   0.000045  -0.000150
     87      -0.104071   0.425368   0.000122  -0.000988  -0.000110   0.002264
     88      -0.130472   0.618242   0.000468  -0.001257  -0.000285   0.003308
     89      -0.021113   0.126473   0.000163  -0.000318  -0.000002   0.000477
     90       0.296461   0.608611   0.003420  -0.000964   0.000172   0.001413
     91      -0.064787  -0.154460  -0.000775   0.000370  -0.000089  -0.000371
     92      -0.026764  -0.072898  -0.000379   0.000069  -0.000013  -0.000205
     93       0.067894  -0.035747   0.000444   0.000332   0.000038  -0.000295
     94      -0.153632   0.029805  -0.001225  -0.000534  -0.000196   0.000574
     95      -0.393690   0.094695  -0.003081  -0.001424  -0.000466   0.001409


-----------
IR SPECTRUM
-----------

 Mode   freq       eps      Int      T**2         TX        TY        TZ
       cm**-1   L/(mol*cm) km/mol    a.u.
----------------------------------------------------------------------------
  6:     29.49   0.000441    2.23  0.004666  (-0.044016 -0.028414  0.043832)
  7:     44.82   0.000192    0.97  0.001335  ( 0.014195  0.033553  0.002703)
  8:     59.90   0.000363    1.83  0.001890  ( 0.020773 -0.026423  0.027580)
  9:     73.27   0.000692    3.50  0.002947  ( 0.040211  0.014585 -0.033422)
 10:     84.72   0.000208    1.05  0.000766  ( 0.026201 -0.008423 -0.002928)
 11:     99.96   0.000524    2.65  0.001636  ( 0.015556  0.024608 -0.028084)
 12:    108.84   0.000846    4.27  0.002425  (-0.024648  0.037063  0.021055)
 13:    122.95   0.001863    9.41  0.004728  ( 0.010634  0.056487  0.037735)
 14:    137.03   0.000120    0.61  0.000273  (-0.003584  0.015519 -0.004395)
 15:    142.70   0.000444    2.24  0.000971  (-0.007039 -0.030343 -0.000661)
 16:    154.53   0.000254    1.29  0.000514  (-0.000890 -0.022443  0.003022)
 17:    167.68   0.000044    0.22  0.000082  ( 0.000274 -0.006176  0.006618)
 18:    205.22   0.000542    2.74  0.000825  (-0.009983 -0.026899  0.001266)
 19:    226.64   0.000147    0.74  0.000203  ( 0.008911 -0.000912 -0.011063)
 20:    259.57   0.000357    1.81  0.000430  ( 0.002099  0.012517 -0.016385)
 21:    282.51   0.001267    6.40  0.001400  ( 0.018343  0.032242 -0.004888)
 22:    318.24   0.000510    2.58  0.000500  (-0.019996 -0.006348  0.007745)
 23:    351.95   0.000999    5.05  0.000886  (-0.010720 -0.008649 -0.026387)
 24:    376.18   0.001692    8.55  0.001404  (-0.011827  0.032388  0.014667)
 25:    384.96   0.001192    6.02  0.000966  (-0.003496  0.016804  0.025914)
 26:    429.88   0.000088    0.45  0.000064  ( 0.007143  0.002191 -0.002881)
 27:    468.47   0.001483    7.49  0.000988  ( 0.030739 -0.001716 -0.006313)
 28:    486.03   0.002908   14.70  0.001867  (-0.014267 -0.033373  0.023455)
 29:    581.28   0.001835    9.27  0.000985  (-0.013536  0.025111  0.013091)
 30:    595.62   0.002184   11.04  0.001144  ( 0.020992 -0.022918 -0.013348)
 31:    625.66   0.002752   13.91  0.001373  ( 0.022762  0.002892  0.029093)
 32:    689.80   0.001095    5.53  0.000495  (-0.006603 -0.012616  0.017107)
 33:    699.26   0.000591    2.98  0.000264  (-0.012948 -0.009784 -0.000461)
 34:    742.51   0.001088    5.50  0.000457  (-0.011455 -0.017120  0.005738)
 35:    761.19   0.001612    8.14  0.000661  (-0.006274  0.023372  0.008669)
 36:    788.79   0.000907    4.59  0.000359  ( 0.018772 -0.000868  0.002418)
 37:    833.63   0.002446   12.36  0.000915  ( 0.011541  0.020237  0.019306)
 38:    957.31   0.000149    0.75  0.000049  ( 0.002335  0.000846  0.006519)
 39:    968.97   0.001399    7.07  0.000451  (-0.009327 -0.017405  0.007790)
 40:    990.89   0.000813    4.11  0.000256  ( 0.008986 -0.001361 -0.013170)
 41:   1004.77   0.002935   14.83  0.000912  ( 0.020579  0.003650  0.021792)
 42:   1010.25   0.005236   26.46  0.001617  (-0.021347  0.028749  0.018306)
 43:   1034.78   0.001905    9.63  0.000575  ( 0.003358 -0.016533 -0.017027)
 44:   1049.52   0.003452   17.44  0.001026  (-0.029575  0.007391 -0.009851)
 45:   1063.23   0.000887    4.48  0.000260  ( 0.001125  0.007750  0.014103)
 46:   1094.91   0.001118    5.65  0.000319  (-0.014287  0.009534 -0.004858)
 47:   1103.08   0.002141   10.82  0.000606  (-0.002739 -0.003010 -0.024271)
 48:   1141.24   0.000146    0.74  0.000040  ( 0.002108 -0.005690  0.001783)
 49:   1167.71   0.010783   54.49  0.002882  (-0.037161 -0.030460 -0.023938)
 50:   1190.04   0.000639    3.23  0.000168  (-0.008954 -0.009086 -0.002216)
 51:   1222.27   0.005881   29.72  0.001502  (-0.002681  0.012982 -0.036412)
 52:   1251.71   0.008664   43.79  0.002160  ( 0.032824 -0.031710  0.008781)
 53:   1286.40   0.002339   11.82  0.000567  (-0.013843 -0.001355 -0.019335)
 54:   1289.49   0.006655   33.63  0.001611  (-0.023747  0.026493  0.018567)
 55:   1298.57   0.018130   91.62  0.004357  (-0.021434  0.059823 -0.017849)
 56:   1343.25   0.003437   17.37  0.000798  ( 0.020222 -0.019014  0.005293)
 57:   1375.15   0.000141    0.71  0.000032  (-0.002448 -0.004914 -0.001329)
 58:   1399.35   0.001142    5.77  0.000255  ( 0.013630 -0.002438 -0.007933)
 59:   1405.53   0.003818   19.29  0.000848  ( 0.028362 -0.005327 -0.003861)
 60:   1420.82   0.002809   14.20  0.000617  ( 0.008986 -0.019166  0.012997)
 61:   1448.77   0.006628   33.50  0.001428  ( 0.015358  0.021516  0.026999)
 62:   1462.01   0.018715   94.58  0.003995  (-0.004216  0.057824  0.025168)
 63:   1473.06   0.024815  125.41  0.005257  (-0.056056  0.037930 -0.026003)
 64:   1490.26   0.000934    4.72  0.000196  ( 0.013349  0.004011  0.001136)
 65:   1495.38   0.006605   33.38  0.001378  ( 0.033563 -0.015131 -0.004796)
 66:   1499.24   0.000381    1.92  0.000079  ( 0.000301 -0.008515 -0.002573)
 67:   1500.85   0.001163    5.88  0.000242  ( 0.002544 -0.002851 -0.015076)
 68:   1515.79   0.001506    7.61  0.000310  ( 0.016592  0.005754  0.001286)
 69:   1518.03   0.002128   10.76  0.000438  ( 0.001757 -0.001563  0.020785)
 70:   1518.61   0.002978   15.05  0.000612  (-0.000539 -0.024554 -0.002965)
 71:   1524.69   0.000098    0.50  0.000020  ( 0.004319 -0.000217  0.001199)
 72:   1531.66   0.006864   34.69  0.001398  ( 0.011953 -0.022405  0.027451)
 73:   1538.74   0.005481   27.70  0.001112  (-0.029760 -0.015029 -0.000110)
 74:   1542.89   0.000864    4.37  0.000175  ( 0.001547  0.002481 -0.012894)
 75:   1570.12   0.008662   43.78  0.001722  (-0.001860  0.025918  0.032349)
 76:   1741.91   0.046632  235.66  0.008354  (-0.061263  0.001180 -0.067821)
 77:   1748.68   0.076086  384.51  0.013578  (-0.114646 -0.003655 -0.020517)
 78:   3023.10   0.005141   25.98  0.000531  ( 0.016773 -0.003270  0.015450)
 79:   3031.44   0.014301   72.27  0.001472  (-0.000092  0.017112  0.034341)
 80:   3062.28   0.000932    4.71  0.000095  (-0.007416 -0.006197  0.001263)
 81:   3066.90   0.003003   15.17  0.000306  (-0.007630  0.008622 -0.013152)
 82:   3073.51   0.009195   46.47  0.000934  ( 0.022005  0.020965 -0.003147)
 83:   3081.35   0.002134   10.78  0.000216  (-0.007093  0.006225 -0.011271)
 84:   3083.33   0.002978   15.05  0.000301  ( 0.001117  0.005632 -0.016383)
 85:   3085.26   0.006546   33.08  0.000662  (-0.015597 -0.020111  0.003795)
 86:   3096.16   0.004411   22.29  0.000445  ( 0.011775  0.009731  0.014534)
 87:   3124.39   0.002190   11.07  0.000219  ( 0.003170 -0.005775 -0.013243)
 88:   3130.39   0.000275    1.39  0.000027  (-0.005071 -0.001243  0.000343)
 89:   3147.04   0.003118   15.76  0.000309  ( 0.006677 -0.014670 -0.007029)
 90:   3150.32   0.003100   15.67  0.000307  (-0.004263 -0.013336  0.010537)
 91:   3161.80   0.000756    3.82  0.000075  (-0.007832 -0.000524 -0.003605)
 92:   3167.72   0.000324    1.64  0.000032  ( 0.000964  0.005335  0.001584)
 93:   3177.51   0.001379    6.97  0.000135  (-0.010795  0.003630 -0.002401)
 94:   3187.13   0.002148   10.85  0.000210  ( 0.000491  0.014446  0.001176)
 95:   3191.34   0.000119    0.60  0.000012  ( 0.003078 -0.001309  0.000643)

* The epsilon (eps) is given for a Dirac delta lineshape.
** The dipole moment derivative (T) already includes vibrational overlap.

The first frequency considered to be a vibration is 6
The total number of vibrations considered is 90


--------------------------
THERMOCHEMISTRY AT 298.15K
--------------------------

Temperature         ... 298.15 K
Pressure            ... 1.00 atm
Total Mass          ... 218.31 AMU

Throughout the following assumptions are being made:
  (1) The electronic state is orbitally nondegenerate
  (2) There are no thermally accessible electronically excited states
  (3) Hindered rotations indicated by low frequency modes are not
      treated as such but are treated as vibrations and this may
      cause some error
  (4) All equations used are the standard statistical mechanics
      equations for an ideal gas
  (5) All vibrations are strictly harmonic

freq.      29.49  E(vib)   ...       0.55 
freq.      44.82  E(vib)   ...       0.53 
freq.      59.90  E(vib)   ...       0.51 
freq.      73.27  E(vib)   ...       0.49 
freq.      84.72  E(vib)   ...       0.48 
freq.      99.96  E(vib)   ...       0.46 
freq.     108.84  E(vib)   ...       0.45 
freq.     122.95  E(vib)   ...       0.43 
freq.     137.03  E(vib)   ...       0.42 
freq.     142.70  E(vib)   ...       0.41 
freq.     154.53  E(vib)   ...       0.40 
freq.     167.68  E(vib)   ...       0.38 
freq.     205.22  E(vib)   ...       0.35 
freq.     226.64  E(vib)   ...       0.33 
freq.     259.57  E(vib)   ...       0.30 
freq.     282.51  E(vib)   ...       0.28 
freq.     318.24  E(vib)   ...       0.25 
freq.     351.95  E(vib)   ...       0.23 
freq.     376.18  E(vib)   ...       0.21 
freq.     384.96  E(vib)   ...       0.20 
freq.     429.88  E(vib)   ...       0.18 
freq.     468.47  E(vib)   ...       0.16 
freq.     486.03  E(vib)   ...       0.15 
freq.     581.28  E(vib)   ...       0.11 
freq.     595.62  E(vib)   ...       0.10 
freq.     625.66  E(vib)   ...       0.09 
freq.     689.80  E(vib)   ...       0.07 
freq.     699.26  E(vib)   ...       0.07 
freq.     742.51  E(vib)   ...       0.06 
freq.     761.19  E(vib)   ...       0.06 
freq.     788.79  E(vib)   ...       0.05 
freq.     833.63  E(vib)   ...       0.04 
freq.     957.31  E(vib)   ...       0.03 
freq.     968.97  E(vib)   ...       0.03 
freq.     990.89  E(vib)   ...       0.02 
freq.    1004.77  E(vib)   ...       0.02 
freq.    1010.25  E(vib)   ...       0.02 
freq.    1034.78  E(vib)   ...       0.02 
freq.    1049.52  E(vib)   ...       0.02 
freq.    1063.23  E(vib)   ...       0.02 
freq.    1094.91  E(vib)   ...       0.02 
freq.    1103.08  E(vib)   ...       0.02 
freq.    1141.24  E(vib)   ...       0.01 
freq.    1167.71  E(vib)   ...       0.01 
freq.    1190.04  E(vib)   ...       0.01 
freq.    1222.27  E(vib)   ...       0.01 
freq.    1251.71  E(vib)   ...       0.01 
freq.    1286.40  E(vib)   ...       0.01 
freq.    1289.49  E(vib)   ...       0.01 
freq.    1298.57  E(vib)   ...       0.01 
freq.    1343.25  E(vib)   ...       0.01 
freq.    1375.15  E(vib)   ...       0.01 
freq.    1399.35  E(vib)   ...       0.00 
freq.    1405.53  E(vib)   ...       0.00 
freq.    1420.82  E(vib)   ...       0.00 
freq.    1448.77  E(vib)   ...       0.00 
freq.    1462.01  E(vib)   ...       0.00 
freq.    1473.06  E(vib)   ...       0.00 
freq.    1490.26  E(vib)   ...       0.00 
freq.    1495.38  E(vib)   ...       0.00 
freq.    1499.24  E(vib)   ...       0.00 
freq.    1500.85  E(vib)   ...       0.00 
freq.    1515.79  E(vib)   ...       0.00 
freq.    1518.03  E(vib)   ...       0.00 
freq.    1518.61  E(vib)   ...       0.00 
freq.    1524.69  E(vib)   ...       0.00 
freq.    1531.66  E(vib)   ...       0.00 
freq.    1538.74  E(vib)   ...       0.00 
freq.    1542.89  E(vib)   ...       0.00 
freq.    1570.12  E(vib)   ...       0.00 
freq.    1741.91  E(vib)   ...       0.00 
freq.    1748.68  E(vib)   ...       0.00 
freq.    3023.10  E(vib)   ...       0.00 
freq.    3031.44  E(vib)   ...       0.00 
freq.    3062.28  E(vib)   ...       0.00 
freq.    3066.90  E(vib)   ...       0.00 
freq.    3073.51  E(vib)   ...       0.00 
freq.    3081.35  E(vib)   ...       0.00 
freq.    3083.33  E(vib)   ...       0.00 
freq.    3085.26  E(vib)   ...       0.00 
freq.    3096.16  E(vib)   ...       0.00 
freq.    3124.39  E(vib)   ...       0.00 
freq.    3130.39  E(vib)   ...       0.00 
freq.    3147.04  E(vib)   ...       0.00 
freq.    3150.32  E(vib)   ...       0.00 
freq.    3161.80  E(vib)   ...       0.00 
freq.    3167.72  E(vib)   ...       0.00 
freq.    3177.51  E(vib)   ...       0.00 
freq.    3187.13  E(vib)   ...       0.00 
freq.    3191.34  E(vib)   ...       0.00 

------------
INNER ENERGY
------------

The inner energy is: U= E(el) + E(ZPE) + E(vib) + E(rot) + E(trans)
    E(el)   - is the total energy from the electronic structure calculation
              = E(kin-el) + E(nuc-el) + E(el-el) + E(nuc-nuc)
    E(ZPE)  - the the zero temperature vibrational energy from the frequency calculation
    E(vib)  - the the finite temperature correction to E(ZPE) due to population
              of excited vibrational states
    E(rot)  - is the rotational thermal energy
    E(trans)- is the translational thermal energy

Summary of contributions to the inner energy U:
Electronic energy                ...  -1011.56426163 Eh
Zero point energy                ...      0.27466535 Eh     172.35 kcal/mol
Thermal vibrational correction   ...      0.01459226 Eh       9.16 kcal/mol
Thermal rotational correction    ...      0.00141627 Eh       0.89 kcal/mol
Thermal translational correction ...      0.00141627 Eh       0.89 kcal/mol
-----------------------------------------------------------------------
Total thermal energy                  -1011.27217148 Eh


Summary of corrections to the electronic energy:
(perhaps to be used in another calculation)
Total thermal correction                  0.01742480 Eh      10.93 kcal/mol
Non-thermal (ZPE) correction              0.27466535 Eh     172.35 kcal/mol
-----------------------------------------------------------------------
Total correction                          0.29209015 Eh     183.29 kcal/mol


--------
ENTHALPY
--------

The enthalpy is H = U + kB*T
                kB is Boltzmann's constant
Total free energy                 ...  -1011.27217148 Eh 
Thermal Enthalpy correction       ...      0.00094421 Eh       0.59 kcal/mol
-----------------------------------------------------------------------
Total Enthalpy                    ...  -1011.27122727 Eh


Note: Only C1 symmetry has been detected, increase convergence thresholds 
      if your molecule has a higher symmetry. Symmetry factor of 1.0 is   
      used for the rotational entropy correction. 
 

Note: Rotational entropy computed according to Herzberg 
Infrared and Raman Spectra, Chapter V,1, Van Nostrand Reinhold, 1945 
Point Group:  C1, Symmetry Number:   1  
Rotational constants in cm-1:     0.021327     0.016543     0.011243 

Vibrational entropy computed according to the QRRHO of S. Grimme
Chem.Eur.J. 2012 18 9955


-------
ENTROPY
-------

The entropy contributions are T*S = T*(S(el)+S(vib)+S(rot)+S(trans))
     S(el)   - electronic entropy
     S(vib)  - vibrational entropy
     S(rot)  - rotational entropy
     S(trans)- translational entropy
The entropies will be listed as multiplied by the temperature to get
units of energy

Electronic entropy                ...      0.00000000 Eh      0.00 kcal/mol
Vibrational entropy               ...      0.02658983 Eh     16.69 kcal/mol
Rotational entropy                ...      0.01538248 Eh      9.65 kcal/mol
Translational entropy             ...      0.01997702 Eh     12.54 kcal/mol
-----------------------------------------------------------------------
Final entropy term                ...      0.06194933 Eh     38.87 kcal/mol

In case the symmetry of your molecule has not been determined correctly
or in case you have a reason to use a different symmetry number we print 
out the resulting rotational entropy values for sn=1,12 :
 --------------------------------------------------------
|  sn= 1 | S(rot)=       0.01538248 Eh      9.65 kcal/mol|
|  sn= 2 | S(rot)=       0.01472802 Eh      9.24 kcal/mol|
|  sn= 3 | S(rot)=       0.01434519 Eh      9.00 kcal/mol|
|  sn= 4 | S(rot)=       0.01407356 Eh      8.83 kcal/mol|
|  sn= 5 | S(rot)=       0.01386288 Eh      8.70 kcal/mol|
|  sn= 6 | S(rot)=       0.01369073 Eh      8.59 kcal/mol|
|  sn= 7 | S(rot)=       0.01354519 Eh      8.50 kcal/mol|
|  sn= 8 | S(rot)=       0.01341911 Eh      8.42 kcal/mol|
|  sn= 9 | S(rot)=       0.01330790 Eh      8.35 kcal/mol|
|  sn=10 | S(rot)=       0.01320842 Eh      8.29 kcal/mol|
|  sn=11 | S(rot)=       0.01311843 Eh      8.23 kcal/mol|
|  sn=12 | S(rot)=       0.01303628 Eh      8.18 kcal/mol|
 --------------------------------------------------------


-------------------
GIBBS FREE ENERGY
-------------------

The Gibbs free energy is G = H - T*S

Total enthalpy                    ...  -1011.27122727 Eh 
Total entropy correction          ...     -0.06194933 Eh    -38.87 kcal/mol
-----------------------------------------------------------------------
Final Gibbs free energy         ...  -1011.33317660 Eh

For completeness - the Gibbs free energy minus the electronic energy
G-E(el)                           ...      0.23108503 Eh    145.01 kcal/mol


Timings for individual modules:

Sum of individual times         ...     1434.359 sec (=  23.906 min)
GTO integral calculation        ...       18.326 sec (=   0.305 min)   1.3 %
SCF iterations                  ...      692.169 sec (=  11.536 min)  48.3 %
SCF Gradient evaluation         ...      216.598 sec (=   3.610 min)  15.1 %
Geometry relaxation             ...        1.199 sec (=   0.020 min)   0.1 %
Analytical frequency calculation...      506.067 sec (=   8.434 min)  35.3 %
                             ****ORCA TERMINATED NORMALLY****
TOTAL RUN TIME: 0 days 0 hours 23 minutes 59 seconds 806 msec
