
                                 *****************
                                 * O   R   C   A *
                                 *****************

                                            #,                                       
                                            ###                                      
                                            ####                                     
                                            #####                                    
                                            ######                                   
                                           ########,                                 
                                     ,,################,,,,,                         
                               ,,#################################,,                 
                          ,,##########################################,,             
                       ,#########################################, ''#####,          
                    ,#############################################,,   '####,        
                  ,##################################################,,,,####,       
                ,###########''''           ''''###############################       
              ,#####''   ,,,,##########,,,,          '''####'''          '####       
            ,##' ,,,,###########################,,,                        '##       
           ' ,,###''''                  '''############,,,                           
         ,,##''                                '''############,,,,        ,,,,,,###''
      ,#''                                            '''#######################'''  
     '                                                          ''''####''''         
             ,#######,   #######,   ,#######,      ##                                
            ,#'     '#,  ##    ##  ,#'     '#,    #''#        ######   ,####,        
            ##       ##  ##   ,#'  ##            #'  '#       #        #'  '#        
            ##       ##  #######   ##           ,######,      #####,   #    #        
            '#,     ,#'  ##    ##  '#,     ,#' ,#      #,         ##   #,  ,#        
             '#######'   ##     ##  '#######'  #'      '#     #####' # '####'        



                  #######################################################
                  #                        -***-                        #
                  #          Department of theory and spectroscopy      #
                  #    Directorship and core code : Frank Neese         #
                  #        Max Planck Institute fuer Kohlenforschung    #
                  #                Kaiser Wilhelm Platz 1               #
                  #                 D-45470 Muelheim/Ruhr               #
                  #                      Germany                        #
                  #                                                     #
                  #                  All rights reserved                #
                  #                        -***-                        #
                  #######################################################


                         Program Version 5.0.4 -  RELEASE  -


 With contributions from (in alphabetic order):
   Daniel Aravena         : Magnetic Suceptibility
   Michael Atanasov       : Ab Initio Ligand Field Theory (pilot matlab implementation)
   Alexander A. Auer      : GIAO ZORA, VPT2 properties, NMR spectrum
   Ute Becker             : Parallelization
   Giovanni Bistoni       : ED, misc. LED, open-shell LED, HFLD
   Martin Brehm           : Molecular dynamics
   Dmytro Bykov           : SCF Hessian
   Vijay G. Chilkuri      : MRCI spin determinant printing, contributions to CSF-ICE
   Dipayan Datta          : RHF DLPNO-CCSD density
   Achintya Kumar Dutta   : EOM-CC, STEOM-CC
   Dmitry Ganyushin       : Spin-Orbit,Spin-Spin,Magnetic field MRCI
   Miquel Garcia          : C-PCM and meta-GGA Hessian, CC/C-PCM, Gaussian charge scheme
   Yang Guo               : DLPNO-NEVPT2, F12-NEVPT2, CIM, IAO-localization
   Andreas Hansen         : Spin unrestricted coupled pair/coupled cluster methods
   Benjamin Helmich-Paris : MC-RPA, TRAH-SCF, COSX integrals
   Lee Huntington         : MR-EOM, pCC
   Robert Izsak           : Overlap fitted RIJCOSX, COSX-SCS-MP3, EOM
   Marcus Kettner         : VPT2
   Christian Kollmar      : KDIIS, OOCD, Brueckner-CCSD(T), CCSD density, CASPT2, CASPT2-K
   Simone Kossmann        : Meta GGA functionals, TD-DFT gradient, OOMP2, MP2 Hessian
   Martin Krupicka        : Initial AUTO-CI
   Lucas Lang             : DCDCAS
   Marvin Lechner         : AUTO-CI (C++ implementation), FIC-MRCC
   Dagmar Lenk            : GEPOL surface, SMD
   Dimitrios Liakos       : Extrapolation schemes; Compound Job, initial MDCI parallelization
   Dimitrios Manganas     : Further ROCIS development; embedding schemes
   Dimitrios Pantazis     : SARC Basis sets
   Anastasios Papadopoulos: AUTO-CI, single reference methods and gradients
   Taras Petrenko         : DFT Hessian,TD-DFT gradient, ASA, ECA, R-Raman, ABS, FL, XAS/XES, NRVS
   Peter Pinski           : DLPNO-MP2, DLPNO-MP2 Gradient
   Christoph Reimann      : Effective Core Potentials
   Marius Retegan         : Local ZFS, SOC
   Christoph Riplinger    : Optimizer, TS searches, QM/MM, DLPNO-CCSD(T), (RO)-DLPNO pert. Triples
   Tobias Risthaus        : Range-separated hybrids, TD-DFT gradient, RPA, STAB
   Michael Roemelt        : Original ROCIS implementation
   Masaaki Saitow         : Open-shell DLPNO-CCSD energy and density
   Barbara Sandhoefer     : DKH picture change effects
   Avijit Sen             : IP-ROCIS
   Kantharuban Sivalingam : CASSCF convergence, NEVPT2, FIC-MRCI
   Bernardo de Souza      : ESD, SOC TD-DFT
   Georgi Stoychev        : AutoAux, RI-MP2 NMR, DLPNO-MP2 response
   Willem Van den Heuvel  : Paramagnetic NMR
   Boris Wezisla          : Elementary symmetry handling
   Frank Wennmohs         : Technical directorship


 We gratefully acknowledge several colleagues who have allowed us to
 interface, adapt or use parts of their codes:
   Stefan Grimme, W. Hujo, H. Kruse, P. Pracht,  : VdW corrections, initial TS optimization,
                  C. Bannwarth, S. Ehlert          DFT functionals, gCP, sTDA/sTD-DF
   Ed Valeev, F. Pavosevic, A. Kumar             : LibInt (2-el integral package), F12 methods
   Garnet Chan, S. Sharma, J. Yang, R. Olivares  : DMRG
   Ulf Ekstrom                                   : XCFun DFT Library
   Mihaly Kallay                                 : mrcc  (arbitrary order and MRCC methods)
   Jiri Pittner, Ondrej Demel                    : Mk-CCSD
   Frank Weinhold                                : gennbo (NPA and NBO analysis)
   Christopher J. Cramer and Donald G. Truhlar   : smd solvation model
   Lars Goerigk                                  : TD-DFT with DH, B97 family of functionals
   V. Asgeirsson, H. Jonsson                     : NEB implementation
   FAccTs GmbH                                   : IRC, NEB, NEB-TS, DLPNO-Multilevel, CI-OPT
                                                   MM, QMMM, 2- and 3-layer-ONIOM, Crystal-QMMM,
                                                   LR-CPCM, SF, NACMEs, symmetry and pop. for TD-DFT,
                                                   nearIR, NL-DFT gradient (VV10), updates on ESD,
                                                   ML-optimized integration grids
   S Lehtola, MJT Oliveira, MAL Marques          : LibXC Library
   Liviu Ungur et al                             : ANISO software


 Your calculation uses the libint2 library for the computation of 2-el integrals
 For citations please refer to: http://libint.valeyev.net

 Your ORCA version has been built with support for libXC version: 5.1.0
 For citations please refer to: https://tddft.org/programs/libxc/

 This ORCA versions uses:
   CBLAS   interface :  Fast vector & matrix operations
   LAPACKE interface :  Fast linear algebra routines
   SCALAPACK package :  Parallel linear algebra routines
   Shared memory     :  Shared parallel matrices
   BLAS/LAPACK       :  OpenBLAS 0.3.15  USE64BITINT DYNAMIC_ARCH NO_AFFINITY SkylakeX SINGLE_THREADED
        Core in use  :  SkylakeX
   Copyright (c) 2011-2014, The OpenBLAS Project




***************************************
The coordinates will be read from file: /users/fjb15167/WWenergy/structures/Ns.xyz
***************************************


Your calculation utilizes the atom-pairwise dispersion correction
based on tight binding partial charges (D4)
Cite in your paper:
E.Caldeweyher, C.Bannwarth, S.Grimme, J.Chem.Phys., (2017), 147, 034112.
E.Caldeweyher, S.Ehlert, A.Hansen, H.Neugebauer, S.Grimme, J.Chem.Phys., (2018), in progress.
   

================================================================================

----- Orbital basis set information -----
Your calculation utilizes the basis: 6-31G(d)
   H-He, Li-Ne : W. J. Hehre, R. Ditchfield and J.A. Pople, J. Chem. Phys. 56, 2257 (1972).
                 Note: He and Ne are unpublished basis sets taken from the Gaussian program.
                 Note: Li and B from J. D. Dill and J. A. Pople, J. Chem. Phys. 62, 2921 (1975).
   Na - Ar     : M. M. Francl, W. J. Pietro, W. J. Hehre, J. S. Binkley, M. S. Gordon, 
                 D. J. DeFrees and J. A. Pople, J. Chem. Phys. 77, 3654 (1982).
   K - Zn      : V. A. Rassolov, J. A. Pople, M. A. Ratner, and T. L. Windus, J. Chem. Phys. 109, 1223 (1998).

----- AuxJ basis set information -----
Your calculation utilizes the AutoAux generation procedure.
  G. L. Stoychev, A. A. Auer, F. Neese, J. Chem. Theory Comput. 13, 554 (2017)

----- AuxC basis set information -----
Your calculation utilizes the AutoAux generation procedure.
  G. L. Stoychev, A. A. Auer, F. Neese, J. Chem. Theory Comput. 13, 554 (2017)

----- AuxJK basis set information -----
Your calculation utilizes the AutoAux generation procedure.
  G. L. Stoychev, A. A. Auer, F. Neese, J. Chem. Theory Comput. 13, 554 (2017)

================================================================================
                                        WARNINGS
                       Please study these warnings very carefully!
================================================================================


WARNING: Geometry Optimization
  ===> : Switching off AutoStart
         For restart on a previous wavefunction, please use MOREAD

INFO   : the flag for use of the SHARK integral package has been found!

================================================================================
                                       INPUT FILE
================================================================================
NAME = Ns_octanol.inp
|  1> ! OPT FREQ B3LYP 6-31G(d) D4 AUTOAUX
|  2> ! CPCM
|  3> 
|  4> %cpcm
|  5> epsilon 9.8629 
|  6> refrac  1.4295 
|  7> end
|  8> 
|  9> %PAL NPROCS 4 END
| 10> 
| 11> %maxcore 3375
| 12> 
| 13> *xyzfile 0 1 /users/fjb15167/WWenergy/structures/Ns.xyz
| 14> 
| 15>                          ****END OF INPUT****
================================================================================

                       *****************************
                       * Geometry Optimization Run *
                       *****************************

Geometry optimization settings:
Update method            Update   .... BFGS
Choice of coordinates    CoordSys .... Z-matrix Internals
Initial Hessian          InHess   .... Almoef's Model

Convergence Tolerances:
Energy Change            TolE     ....  5.0000e-06 Eh
Max. Gradient            TolMAXG  ....  3.0000e-04 Eh/bohr
RMS Gradient             TolRMSG  ....  1.0000e-04 Eh/bohr
Max. Displacement        TolMAXD  ....  4.0000e-03 bohr
RMS Displacement         TolRMSD  ....  2.0000e-03 bohr
Strict Convergence                ....  False
------------------------------------------------------------------------------
                        ORCA OPTIMIZATION COORDINATE SETUP
------------------------------------------------------------------------------

The optimization will be done in new redundant internal coordinates
Making redundant internal coordinates   ...  (new redundants) done
Evaluating the initial hessian          ...  (Almloef) done
Evaluating the coordinates              ...  done
Calculating the B-matrix                .... done
Calculating the G-matrix                .... done
Diagonalizing the G-matrix              .... done
Small eigenvalue found = 7.989e-03
Small eigenvalue found = 1.341e-02
Small eigenvalue found = 2.143e-02
The first mode is                       ....   43
The number of degrees of freedom        ....   72

    -----------------------------------------------------------------
                    Redundant Internal Coordinates


    -----------------------------------------------------------------
         Definition                    Initial Value    Approx d2E/dq
    -----------------------------------------------------------------
      1. B(O   4,C   0)                  1.2131         1.071928   
      2. B(C   5,H   3)                  1.0896         0.360607   
      3. B(C   5,C   0)                  1.5271         0.377598   
      4. B(C   5,H   1)                  1.0922         0.357218   
      5. B(C   5,H   2)                  1.0941         0.354734   
      6. B(N   6,C   0)                  1.3928         0.553828   
      7. B(C   7,N   6)                  1.4636         0.427020   
      8. B(H   8,C   7)                  1.0901         0.359995   
      9. B(H   9,C   7)                  1.0957         0.352676   
     10. B(C  10,N   6)                  1.4517         0.446095   
     11. B(H  11,C  10)                  1.0878         0.363044   
     12. B(H  12,C  10)                  1.0947         0.353961   
     13. B(O  13,C  10)                  1.4208         0.499713   
     14. B(H  14,O  13)                  0.9750         0.492112   
     15. B(C  15,C   7)                  1.5227         0.383706   
     16. B(O  16,C  15)                  1.2415         0.965687   
     17. B(N  17,C  15)                  1.3638         0.616183   
     18. B(C  18,N  17)                  1.4550         0.440752   
     19. B(H  19,C  18)                  1.0941         0.354767   
     20. B(H  20,C  18)                  1.0874         0.363514   
     21. B(H  21,C  18)                  1.0973         0.350561   
     22. B(C  22,N  17)                  1.4544         0.441719   
     23. B(H  23,C  22)                  1.0981         0.349551   
     24. B(H  24,C  22)                  1.0864         0.364842   
     25. B(H  25,C  22)                  1.0952         0.353277   
     26. A(C   5,C   0,N   6)          115.2167         0.387178   
     27. A(O   4,C   0,C   5)          122.1565         0.435247   
     28. A(O   4,C   0,N   6)          122.6063         0.463497   
     29. A(H   1,C   5,H   2)          108.4051         0.289789   
     30. A(H   2,C   5,H   3)          108.9174         0.290219   
     31. A(C   0,C   5,H   2)          111.2491         0.324090   
     32. A(C   0,C   5,H   3)          106.6950         0.324965   
     33. A(H   1,C   5,H   3)          110.0313         0.290537   
     34. A(C   0,C   5,H   1)          111.5107         0.324461   
     35. A(C   0,N   6,C  10)          122.8932         0.396095   
     36. A(C   7,N   6,C  10)          116.2028         0.378543   
     37. A(C   0,N   6,C   7)          117.4387         0.393073   
     38. A(H   8,C   7,H   9)          108.1802         0.289877   
     39. A(H   9,C   7,C  15)          105.8224         0.324635   
     40. A(H   8,C   7,C  15)          113.8172         0.325733   
     41. A(N   6,C   7,H   9)          110.5847         0.328422   
     42. A(N   6,C   7,H   8)          107.9259         0.329538   
     43. A(N   6,C   7,C  15)          110.4877         0.371158   
     44. A(H  12,C  10,O  13)          111.4448         0.337299   
     45. A(H  11,C  10,O  13)          105.6181         0.338727   
     46. A(N   6,C  10,O  13)          113.7945         0.389031   
     47. A(H  11,C  10,H  12)          109.2717         0.290426   
     48. A(N   6,C  10,H  12)          107.0258         0.331001   
     49. A(N   6,C  10,H  11)          109.6432         0.332393   
     50. A(C  10,O  13,H  14)          107.5468         0.353408   
     51. A(O  16,C  15,N  17)          123.0501         0.463693   
     52. A(C   7,C  15,N  17)          117.8154         0.395577   
     53. A(C   7,C  15,O  16)          119.1246         0.428394   
     54. A(C  15,N  17,C  18)          118.3941         0.402744   
     55. A(C  18,N  17,C  22)          115.3903         0.379975   
     56. A(C  15,N  17,C  22)          125.1443         0.402900   
     57. A(N  17,C  18,H  20)          108.5583         0.331801   
     58. A(N  17,C  18,H  19)          109.3787         0.330466   
     59. A(H  20,C  18,H  21)          109.4451         0.290046   
     60. A(H  19,C  18,H  21)          108.6538         0.288940   
     61. A(N  17,C  18,H  21)          110.6898         0.329815   
     62. A(H  19,C  18,H  20)          110.1101         0.290589   
     63. A(H  23,C  22,H  25)          108.2191         0.288620   
     64. A(N  17,C  22,H  25)          108.9625         0.330356   
     65. A(H  23,C  22,H  24)          108.5130         0.290080   
     66. A(N  17,C  22,H  24)          112.0083         0.332122   
     67. A(H  24,C  22,H  25)          108.8106         0.290563   
     68. A(N  17,C  22,H  23)          110.2433         0.329778   
     69. D(H   3,C   5,C   0,O   4)     -6.3409         0.010648   
     70. D(H   1,C   5,C   0,N   6)     55.0939         0.010648   
     71. D(H   2,C   5,C   0,N   6)    -66.0633         0.010648   
     72. D(H   2,C   5,C   0,O   4)    112.3307         0.010648   
     73. D(H   1,C   5,C   0,O   4)   -126.5122         0.010648   
     74. D(H   3,C   5,C   0,N   6)    175.2652         0.010648   
     75. D(C   7,N   6,C   0,O   4)     11.4669         0.024465   
     76. D(C  10,N   6,C   0,C   5)    -11.9743         0.024465   
     77. D(C  10,N   6,C   0,O   4)    169.6398         0.024465   
     78. D(C   7,N   6,C   0,C   5)   -170.1472         0.024465   
     79. D(H   9,C   7,N   6,C  10)    -48.0821         0.015546   
     80. D(H   9,C   7,N   6,C   0)    111.5555         0.015546   
     81. D(C  15,C   7,N   6,C   0)   -131.6209         0.015546   
     82. D(H   8,C   7,N   6,C  10)   -166.2322         0.015546   
     83. D(H   8,C   7,N   6,C   0)     -6.5947         0.015546   
     84. D(C  15,C   7,N   6,C  10)     68.7416         0.015546   
     85. D(O  13,C  10,N   6,C   7)     87.3072         0.016973   
     86. D(O  13,C  10,N   6,C   0)    -71.1144         0.016973   
     87. D(H  12,C  10,N   6,C   7)    -36.2596         0.016973   
     88. D(H  12,C  10,N   6,C   0)    165.3188         0.016973   
     89. D(H  11,C  10,N   6,C   7)   -154.6714         0.016973   
     90. D(H  11,C  10,N   6,C   0)     46.9070         0.016973   
     91. D(H  14,O  13,C  10,H  12)     46.7037         0.019741   
     92. D(H  14,O  13,C  10,H  11)    165.2583         0.019741   
     93. D(H  14,O  13,C  10,N   6)    -74.4278         0.019741   
     94. D(N  17,C  15,C   7,H   8)    -44.2135         0.010974   
     95. D(N  17,C  15,C   7,N   6)     77.3931         0.010974   
     96. D(O  16,C  15,C   7,H   9)     18.2386         0.010974   
     97. D(O  16,C  15,C   7,H   8)    136.8963         0.010974   
     98. D(N  17,C  15,C   7,H   9)   -162.8712         0.010974   
     99. D(O  16,C  15,C   7,N   6)   -101.4971         0.010974   
    100. D(C  22,N  17,C  15,O  16)    170.5627         0.030715   
    101. D(C  22,N  17,C  15,C   7)     -8.2806         0.030715   
    102. D(C  18,N  17,C  15,O  16)      2.9756         0.030715   
    103. D(C  18,N  17,C  15,C   7)   -175.8677         0.030715   
    104. D(H  21,C  18,N  17,C  22)    -63.6932         0.016565   
    105. D(H  21,C  18,N  17,C  15)    105.0876         0.016565   
    106. D(H  20,C  18,N  17,C  22)    176.1635         0.016565   
    107. D(H  20,C  18,N  17,C  15)    -15.0558         0.016565   
    108. D(H  19,C  18,N  17,C  22)     55.9944         0.016565   
    109. D(H  19,C  18,N  17,C  15)   -135.2248         0.016565   
    110. D(H  25,C  22,N  17,C  15)    136.5982         0.016639   
    111. D(H  24,C  22,N  17,C  18)   -175.9230         0.016639   
    112. D(H  24,C  22,N  17,C  15)     16.1592         0.016639   
    113. D(H  23,C  22,N  17,C  18)     63.1408         0.016639   
    114. D(H  25,C  22,N  17,C  18)    -55.4839         0.016639   
    115. D(H  23,C  22,N  17,C  15)   -104.7771         0.016639   
    -----------------------------------------------------------------

Number of atoms                         .... 26
Number of degrees of freedom            .... 115

         *************************************************************
         *                GEOMETRY OPTIMIZATION CYCLE   1            *
         *************************************************************
---------------------------------
CARTESIAN COORDINATES (ANGSTROEM)
---------------------------------
  C      1.002000    1.526000   -0.230000
  H      3.075000    1.013000    0.203000
  H      2.145000    1.526000    1.623000
  H      2.621000    2.730000    0.406000
  O      0.446000    2.458000   -0.772000
  C      2.301000    1.699000    0.554000
  N      0.487000    0.232000   -0.247000
  C     -0.626000   -0.039000   -1.158000
  H     -0.936000    0.908000   -1.600000
  H     -0.308000   -0.706000   -1.967000
  C      1.242000   -0.923000    0.204000
  H      1.710000   -0.703000    1.161000
  H      0.528000   -1.743000    0.331000
  O      2.304000   -1.289000   -0.666000
  H      1.909000   -1.715000   -1.449000
  C     -1.744000   -0.773000   -0.430000
  O     -1.863000   -1.999000   -0.585000
  N     -2.558000   -0.044000    0.386000
  C     -3.572000   -0.746000    1.158000
  H     -4.519000   -0.202000    1.093000
  H     -3.687000   -1.747000    0.749000
  H     -3.278000   -0.814000    2.213000
  C     -2.346000    1.347000    0.754000
  H     -1.977000    1.415000    1.786000
  H     -1.631000    1.837000    0.099000
  H     -3.301000    1.880000    0.696000

----------------------------
CARTESIAN COORDINATES (A.U.)
----------------------------
  NO LB      ZA    FRAG     MASS         X           Y           Z
   0 C     6.0000    0    12.011    1.893506    2.883722   -0.434637
   1 H     1.0000    0     1.008    5.810908    1.914293    0.383614
   2 H     1.0000    0     1.008    4.053463    2.883722    3.067026
   3 H     1.0000    0     1.008    4.952972    5.158952    0.767229
   4 O     8.0000    0    15.999    0.842818    4.644947   -1.458869
   5 C     6.0000    0    12.011    4.348260    3.210645    1.046908
   6 N     7.0000    0    14.007    0.920297    0.438416   -0.466762
   7 C     6.0000    0    12.011   -1.182969   -0.073699   -2.188303
   8 H     1.0000    0     1.008   -1.768784    1.715871   -3.023562
   9 H     1.0000    0     1.008   -0.582036   -1.334147   -3.717091
  10 C     6.0000    0    12.011    2.347040   -1.744217    0.385504
  11 H     1.0000    0     1.008    3.231432   -1.328477    2.193972
  12 H     1.0000    0     1.008    0.997775   -3.293793    0.625499
  13 O     8.0000    0    15.999    4.353929   -2.435857   -1.258558
  14 H     1.0000    0     1.008    3.607487   -3.240880   -2.738213
  15 C     6.0000    0    12.011   -3.295682   -1.460758   -0.812582
  16 O     8.0000    0    15.999   -3.520560   -3.777563   -1.105490
  17 N     7.0000    0    14.007   -4.833919   -0.083148    0.729434
  18 C     6.0000    0    12.011   -6.750102   -1.409736    2.188303
  19 H     1.0000    0     1.008   -8.539672   -0.381725    2.065471
  20 H     1.0000    0     1.008   -6.967420   -3.301352    1.415405
  21 H     1.0000    0     1.008   -6.194522   -1.538237    4.181964
  22 C     6.0000    0    12.011   -4.433298    2.545461    1.424854
  23 H     1.0000    0     1.008   -3.735989    2.673962    3.375051
  24 H     1.0000    0     1.008   -3.082143    3.471427    0.187083
  25 H     1.0000    0     1.008   -6.237986    3.552685    1.315249

--------------------------------
INTERNAL COORDINATES (ANGSTROEM)
--------------------------------
 C      0   0   0     0.000000000000     0.00000000     0.00000000
 H      1   0   0     2.178987608960     0.00000000     0.00000000
 H      2   1   0     1.773265067608    65.92531104     0.00000000
 H      3   2   1     1.776873940380    60.46643814   287.72537210
 O      1   2   3     1.213063889496   134.88758127   106.43583382
 C      4   3   2     1.089616905155    35.62510800    35.68827198
 N      1   2   3     1.392820878649    97.78562242   261.10412739
 C      7   1   2     1.463602063404   117.43870524   212.55780834
 H      8   7   1     1.090079354910   107.92586144   353.40528593
 H      8   7   1     1.095670570929   110.58472104   111.55545537
 C      7   1   2     1.451706237501   122.89315990    10.73068846
 H     11   7   1     1.087783526259   109.64319184    46.90697676
 H     11   7   1     1.094680318632   107.02576194   165.31882253
 O     11   7   1     1.420809628346   113.79448056   288.88562842
 H     14  11   7     0.974982051117   107.54680526   285.57220973
 C      8   7   1     1.522715994531   110.48765556   228.37909526
 O     16   8   7     1.241475734761   119.12464192   258.50287180
 N     16   8   7     1.363778941031   117.81538153    77.39305245
 C     18  16   8     1.454985910585   118.39405224   184.13229347
 H     19  18  16     1.094061241430   109.37868515   224.77518704
 H     19  18  16     1.087431377145   108.55825974   344.94424645
 H     19  18  16     1.097308069778   110.68977469   105.08761484
 C     18  16   8     1.454389562669   125.14434802   351.71937182
 H     23  18  16     1.098093347580   110.24326424   255.22291276
 H     23  18  16     1.086439137734   112.00829008    16.15918305
 H     23  18  16     1.095206829781   108.96254554   136.59821341

---------------------------
INTERNAL COORDINATES (A.U.)
---------------------------
 C      0   0   0     0.000000000000     0.00000000     0.00000000
 H      1   0   0     4.117689830142     0.00000000     0.00000000
 H      2   1   0     3.350985340629    65.92531104     0.00000000
 H      3   2   1     3.357805121819    60.46643814   287.72537210
 O      1   2   3     2.292358534097   134.88758127   106.43583382
 C      4   3   2     2.059077541634    35.62510800    35.68827198
 N      1   2   3     2.632050014254    97.78562242   261.10412739
 C      7   1   2     2.765807068875   117.43870524   212.55780834
 H      8   7   1     2.059951445021   107.92586144   353.40528593
 H      8   7   1     2.070517312053   110.58472104   111.55545537
 C      7   1   2     2.743327215783   122.89315990    10.73068846
 H     11   7   1     2.055612957620   109.64319184    46.90697676
 H     11   7   1     2.068646006408   107.02576194   165.31882253
 O     11   7   1     2.684941086012   113.79448056   288.88562842
 H     14  11   7     1.842449062100   107.54680526   285.57220973
 C      8   7   1     2.877516209405   110.48765556   228.37909526
 O     16   8   7     2.346049140607   119.12464192   258.50287180
 N     16   8   7     2.577168705758   117.81538153    77.39305245
 C     18  16   8     2.749524899719   118.39405224   184.13229347
 H     19  18  16     2.067476120041   109.37868515   224.77518704
 H     19  18  16     2.054947492237   108.55825974   344.94424645
 H     19  18  16     2.073611736422   110.68977469   105.08761484
 C     18  16   8     2.748397965478   125.14434802   351.71937182
 H     23  18  16     2.075095696407   110.24326424   255.22291276
 H     23  18  16     2.053072431491   112.00829008    16.15918305
 H     23  18  16     2.069640968287   108.96254554   136.59821341

---------------------
BASIS SET INFORMATION
---------------------
There are 4 groups of distinct atoms

 Group   1 Type C   : 10s4p1d contracted to 3s2p1d pattern {631/31/1}
 Group   2 Type H   : 4s contracted to 2s pattern {31}
 Group   3 Type O   : 10s4p1d contracted to 3s2p1d pattern {631/31/1}
 Group   4 Type N   : 10s4p1d contracted to 3s2p1d pattern {631/31/1}

Atom   0C    basis set group =>   1
Atom   1H    basis set group =>   2
Atom   2H    basis set group =>   2
Atom   3H    basis set group =>   2
Atom   4O    basis set group =>   3
Atom   5C    basis set group =>   1
Atom   6N    basis set group =>   4
Atom   7C    basis set group =>   1
Atom   8H    basis set group =>   2
Atom   9H    basis set group =>   2
Atom  10C    basis set group =>   1
Atom  11H    basis set group =>   2
Atom  12H    basis set group =>   2
Atom  13O    basis set group =>   3
Atom  14H    basis set group =>   2
Atom  15C    basis set group =>   1
Atom  16O    basis set group =>   3
Atom  17N    basis set group =>   4
Atom  18C    basis set group =>   1
Atom  19H    basis set group =>   2
Atom  20H    basis set group =>   2
Atom  21H    basis set group =>   2
Atom  22C    basis set group =>   1
Atom  23H    basis set group =>   2
Atom  24H    basis set group =>   2
Atom  25H    basis set group =>   2
---------------------------------
AUXILIARY/J BASIS SET INFORMATION
---------------------------------
There are 4 groups of distinct atoms

 Group   1 Type C   : 13s11p10d2f contracted to 13s11p10d2f pattern {1111111111111/11111111111/1111111111/11}
 Group   2 Type H   : 9s2p contracted to 9s2p pattern {111111111/11}
 Group   3 Type O   : 14s11p10d2f contracted to 14s11p10d2f pattern {11111111111111/11111111111/1111111111/11}
 Group   4 Type N   : 14s11p10d2f contracted to 14s11p10d2f pattern {11111111111111/11111111111/1111111111/11}

Atom   0C    basis set group =>   1
Atom   1H    basis set group =>   2
Atom   2H    basis set group =>   2
Atom   3H    basis set group =>   2
Atom   4O    basis set group =>   3
Atom   5C    basis set group =>   1
Atom   6N    basis set group =>   4
Atom   7C    basis set group =>   1
Atom   8H    basis set group =>   2
Atom   9H    basis set group =>   2
Atom  10C    basis set group =>   1
Atom  11H    basis set group =>   2
Atom  12H    basis set group =>   2
Atom  13O    basis set group =>   3
Atom  14H    basis set group =>   2
Atom  15C    basis set group =>   1
Atom  16O    basis set group =>   3
Atom  17N    basis set group =>   4
Atom  18C    basis set group =>   1
Atom  19H    basis set group =>   2
Atom  20H    basis set group =>   2
Atom  21H    basis set group =>   2
Atom  22C    basis set group =>   1
Atom  23H    basis set group =>   2
Atom  24H    basis set group =>   2
Atom  25H    basis set group =>   2
---------------------------------
AUXILIARY/C BASIS SET INFORMATION
---------------------------------
There are 4 groups of distinct atoms

 Group   1 Type C   : 13s11p10d2f contracted to 13s11p10d2f pattern {1111111111111/11111111111/1111111111/11}
 Group   2 Type H   : 9s2p contracted to 9s2p pattern {111111111/11}
 Group   3 Type O   : 14s11p10d2f contracted to 14s11p10d2f pattern {11111111111111/11111111111/1111111111/11}
 Group   4 Type N   : 14s11p10d2f contracted to 14s11p10d2f pattern {11111111111111/11111111111/1111111111/11}

Atom   0C    basis set group =>   1
Atom   1H    basis set group =>   2
Atom   2H    basis set group =>   2
Atom   3H    basis set group =>   2
Atom   4O    basis set group =>   3
Atom   5C    basis set group =>   1
Atom   6N    basis set group =>   4
Atom   7C    basis set group =>   1
Atom   8H    basis set group =>   2
Atom   9H    basis set group =>   2
Atom  10C    basis set group =>   1
Atom  11H    basis set group =>   2
Atom  12H    basis set group =>   2
Atom  13O    basis set group =>   3
Atom  14H    basis set group =>   2
Atom  15C    basis set group =>   1
Atom  16O    basis set group =>   3
Atom  17N    basis set group =>   4
Atom  18C    basis set group =>   1
Atom  19H    basis set group =>   2
Atom  20H    basis set group =>   2
Atom  21H    basis set group =>   2
Atom  22C    basis set group =>   1
Atom  23H    basis set group =>   2
Atom  24H    basis set group =>   2
Atom  25H    basis set group =>   2
----------------------------------
AUXILIARY/JK BASIS SET INFORMATION
----------------------------------
There are 4 groups of distinct atoms

 Group   1 Type C   : 13s11p10d2f contracted to 13s11p10d2f pattern {1111111111111/11111111111/1111111111/11}
 Group   2 Type H   : 9s2p contracted to 9s2p pattern {111111111/11}
 Group   3 Type O   : 14s11p10d2f contracted to 14s11p10d2f pattern {11111111111111/11111111111/1111111111/11}
 Group   4 Type N   : 14s11p10d2f contracted to 14s11p10d2f pattern {11111111111111/11111111111/1111111111/11}

Atom   0C    basis set group =>   1
Atom   1H    basis set group =>   2
Atom   2H    basis set group =>   2
Atom   3H    basis set group =>   2
Atom   4O    basis set group =>   3
Atom   5C    basis set group =>   1
Atom   6N    basis set group =>   4
Atom   7C    basis set group =>   1
Atom   8H    basis set group =>   2
Atom   9H    basis set group =>   2
Atom  10C    basis set group =>   1
Atom  11H    basis set group =>   2
Atom  12H    basis set group =>   2
Atom  13O    basis set group =>   3
Atom  14H    basis set group =>   2
Atom  15C    basis set group =>   1
Atom  16O    basis set group =>   3
Atom  17N    basis set group =>   4
Atom  18C    basis set group =>   1
Atom  19H    basis set group =>   2
Atom  20H    basis set group =>   2
Atom  21H    basis set group =>   2
Atom  22C    basis set group =>   1
Atom  23H    basis set group =>   2
Atom  24H    basis set group =>   2
Atom  25H    basis set group =>   2


           ************************************************************
           *        Program running with 4 parallel MPI-processes     *
           *              working on a common directory               *
           ************************************************************
------------------------------------------------------------------------------
                           ORCA GTO INTEGRAL CALCULATION
                           -- RI-GTO INTEGRALS CHOSEN --
------------------------------------------------------------------------------
------------------------------------------------------------------------------
                   ___                                                        
                  /   \      - P O W E R E D   B Y -                         
                 /     \                                                     
                 |  |  |   _    _      __       _____    __    __             
                 |  |  |  | |  | |    /  \     |  _  \  |  |  /  |          
                  \  \/   | |  | |   /    \    | | | |  |  | /  /          
                 / \  \   | |__| |  /  /\  \   | |_| |  |  |/  /          
                |  |  |   |  __  | /  /__\  \  |    /   |      \           
                |  |  |   | |  | | |   __   |  |    \   |  |\   \          
                \     /   | |  | | |  |  |  |  | |\  \  |  | \   \       
                 \___/    |_|  |_| |__|  |__|  |_| \__\ |__|  \__/        
                                                                              
                      - O R C A' S   B I G   F R I E N D -                    
                                      &                                       
                       - I N T E G R A L  F E E D E R -                       
                                                                              
 v1 FN, 2020, v2 2021                                                         
------------------------------------------------------------------------------


Reading SHARK input file Ns_octanol.SHARKINP.tmp ... ok
----------------------
SHARK INTEGRAL PACKAGE
----------------------

Number of atoms                             ...     26
Number of basis functions                   ...    196
Number of shells                            ...    100
Maximum angular momentum                    ...      2
Integral batch strategy                     ... SHARK/LIBINT Hybrid
RI-J (if used) integral strategy            ... SPLIT-RIJ (Revised 2003 algorithm where possible)
Printlevel                                  ...      1
Contraction scheme used                     ... SEGMENTED contraction
Coulomb Range Separation                    ... NOT USED
Exchange Range Separation                   ... NOT USED
Finite Nucleus Model                        ... NOT USED
Auxiliary Coulomb fitting basis             ... AVAILABLE
   # of basis functions in Aux-J            ...   1535
   # of shells in Aux-J                     ...    591
   Maximum angular momentum in Aux-J        ...      3
Auxiliary J/K fitting basis                 ... AVAILABLE
   # of basis functions in Aux-JK           ...   1535
   # of shells in Aux-JK                    ...    591
   Maximum angular momentum in Aux-JK       ...      3
Auxiliary Correlation fitting basis         ... AVAILABLE
   # of basis functions in Aux-C            ...   1535
   # of shells in Aux-C                     ...    591
   Maximum angular momentum in Aux-C        ...      3
Auxiliary 'external' fitting basis          ... NOT available
Integral threshold                          ...     2.500000e-11
Primitive cut-off                           ...     2.500000e-12
Primitive pair pre-selection threshold      ...     2.500000e-12

Calculating pre-screening integrals         ... done (  0.0 sec) Dimension = 100
Organizing shell pair data                  ... done (  0.6 sec)
Shell pair information
Total number of shell pairs                 ...      5050
Shell pairs after pre-screening             ...      4498
Total number of primitive shell pairs       ...     28260
Primitive shell pairs kept                  ...     15265
          la=0 lb=0:   1787 shell pairs
          la=1 lb=0:   1426 shell pairs
          la=1 lb=1:    290 shell pairs
          la=2 lb=0:    658 shell pairs
          la=2 lb=1:    270 shell pairs
          la=2 lb=2:     67 shell pairs

Calculating one electron integrals          ... done (  0.0 sec)
Calculating RI/J V-Matrix + Cholesky decomp.... done (  3.5 sec)
Calculating RI/JK V-Matrix + Cholesky decomp... done (  0.1 sec)
Calculating RI/C V-Matrix + Cholesky decomp.... done (  0.1 sec)
Calculating Nuclear repulsion               ... done (  0.0 sec) ENN=    775.261840406057 Eh

SHARK setup successfully completed in   5.2 seconds

Maximum memory used throughout the entire GTOINT-calculation: 22.1 MB


           ************************************************************
           *        Program running with 4 parallel MPI-processes     *
           *              working on a common directory               *
           ************************************************************
-------------------------------------------------------------------------------
                                 ORCA SCF
-------------------------------------------------------------------------------

------------
SCF SETTINGS
------------
Hamiltonian:
 Density Functional     Method          .... DFT(GTOs)
 Exchange Functional    Exchange        .... B88
   X-Alpha parameter    XAlpha          ....  0.666667
   Becke's b parameter  XBeta           ....  0.004200
 Correlation Functional Correlation     .... LYP
 LDA part of GGA corr.  LDAOpt          .... VWN-5
 Gradients option       PostSCFGGA      .... off
 Hybrid DFT is turned on
   Fraction HF Exchange ScalHFX         ....  0.200000
   Scaling of DF-GGA-X  ScalDFX         ....  0.720000
   Scaling of DF-GGA-C  ScalDFC         ....  0.810000
   Scaling of DF-LDA-C  ScalLDAC        ....  1.000000
   Perturbative correction              ....  0.000000
   Density functional embedding theory  .... OFF
   NL short-range parameter             ....  4.800000
 RI-approximation to the Coulomb term is turned on
   Number of AuxJ basis functions       .... 1535
   RIJ-COSX (HFX calculated with COS-X)).... on


General Settings:
 Integral files         IntName         .... Ns_octanol
 Hartree-Fock type      HFTyp           .... RHF
 Total Charge           Charge          ....    0
 Multiplicity           Mult            ....    1
 Number of Electrons    NEL             ....   94
 Basis Dimension        Dim             ....  196
 Nuclear Repulsion      ENuc            ....    775.2618404061 Eh

Convergence Acceleration:
 DIIS                   CNVDIIS         .... on
   Start iteration      DIISMaxIt       ....    12
   Startup error        DIISStart       ....  0.200000
   # of expansion vecs  DIISMaxEq       ....     5
   Bias factor          DIISBfac        ....   1.050
   Max. coefficient     DIISMaxC        ....  10.000
 Trust-Rad. Augm. Hess. CNVTRAH         .... auto
   Auto Start mean grad. ratio tolernc. ....  1.125000
   Auto Start start iteration           ....    20
   Auto Start num. interpolation iter.  ....    10
   Max. Number of Micro iterations      ....    16
   Max. Number of Macro iterations      .... Maxiter - #DIIS iter
   Number of Davidson start vectors     ....     2
   Converg. threshold I  (grad. norm)   ....   1.000e-05
   Converg. threshold II (energy diff.) ....   1.000e-08
   Grad. Scal. Fac. for Micro threshold ....   0.100
   Minimum threshold for Micro iter.    ....   0.010
   NR start threshold (gradient norm)   ....   0.001
   Initial trust radius                 ....   0.400
   Minimum AH scaling param. (alpha)    ....   1.000
   Maximum AH scaling param. (alpha)    .... 1000.000
   Orbital update algorithm             .... Taylor
   White noise on init. David. guess    .... on
   Maximum white noise                  ....   0.010
   Quad. conv. algorithm                .... NR
 SOSCF                  CNVSOSCF        .... on
   Start iteration      SOSCFMaxIt      ....   150
   Startup grad/error   SOSCFStart      ....  0.003300
 Level Shifting         CNVShift        .... on
   Level shift para.    LevelShift      ....    0.2500
   Turn off err/grad.   ShiftErr        ....    0.0010
 Zerner damping         CNVZerner       .... off
 Static damping         CNVDamp         .... on
   Fraction old density DampFac         ....    0.7000
   Max. Damping (<1)    DampMax         ....    0.9800
   Min. Damping (>=0)   DampMin         ....    0.0000
   Turn off err/grad.   DampErr         ....    0.1000
 Fernandez-Rico         CNVRico         .... off

SCF Procedure:
 Maximum # iterations   MaxIter         ....   125
 SCF integral mode      SCFMode         .... Direct
   Integral package                     .... SHARK and LIBINT hybrid scheme
 Reset frequency        DirectResetFreq ....    20
 Integral Threshold     Thresh          ....  2.500e-11 Eh
 Primitive CutOff       TCut            ....  2.500e-12 Eh

Convergence Tolerance:
 Convergence Check Mode ConvCheckMode   .... Total+1el-Energy
 Convergence forced     ConvForced      .... 0
 Energy Change          TolE            ....  1.000e-08 Eh
 1-El. energy change                    ....  1.000e-05 Eh
 Orbital Gradient       TolG            ....  1.000e-05
 Orbital Rotation angle TolX            ....  1.000e-05
 DIIS Error             TolErr          ....  5.000e-07


Diagonalization of the overlap matrix:
Smallest eigenvalue                        ... 3.178e-03
Time for diagonalization                   ...    0.014 sec
Threshold for overlap eigenvalues          ... 1.000e-08
Number of eigenvalues below threshold      ... 0
Time for construction of square roots      ...    0.004 sec
Total time needed                          ...    0.019 sec

Time for model grid setup =    0.216 sec

------------------------------
INITIAL GUESS: MODEL POTENTIAL
------------------------------
Loading Hartree-Fock densities                     ... done
Calculating cut-offs                               ... done
Initializing the effective Hamiltonian             ... done
Setting up the integral package (SHARK)            ... done
Starting the Coulomb interaction                   ... done (   0.1 sec)
Reading the grid                                   ... done
Mapping shells                                     ... done
Starting the XC term evaluation                    ... done (   0.1 sec)
  promolecular density results
     # of electrons  =     93.995471320
     EX              =    -77.914880185
     EC              =     -3.203248603
     EX+EC           =    -81.118128788
Transforming the Hamiltonian                       ... done (   0.0 sec)
Diagonalizing the Hamiltonian                      ... done (   0.0 sec)
Back transforming the eigenvectors                 ... done (   0.0 sec)
Now organizing SCF variables                       ... done
                      ------------------
                      INITIAL GUESS DONE (   1.2 sec)
                      ------------------
-------------------
DFT GRID GENERATION
-------------------

General Integration Accuracy     IntAcc      ... 4.388
Radial Grid Type                 RadialGrid  ... OptM3 with GC (2021)
Angular Grid (max. ang.)         AngularGrid ... 4 (Lebedev-302)
Angular grid pruning method      GridPruning ... 4 (adaptive)
Weight generation scheme         WeightScheme... Becke
Basis function cutoff            BFCut       ... 1.0000e-11
Integration weight cutoff        WCut        ... 1.0000e-14
Angular grids for H and He will be reduced by one unit
Partially contracted basis set               ... off
Rotationally invariant grid construction     ... off

Total number of grid points                  ...   116817
Total number of batches                      ...     1839
Average number of points per batch           ...       63
Average number of grid points per atom       ...     4493
Time for grid setup =    0.835 sec

--------------------
COSX GRID GENERATION
--------------------

GRIDX 1
-------
General Integration Accuracy     IntAcc      ... 3.816
Radial Grid Type                 RadialGrid  ... OptM3 with GC (2021)
Angular Grid (max. ang.)         AngularGrid ... 1 (Lebedev-50)
Angular grid pruning method      GridPruning ... 4 (adaptive)
Weight generation scheme         WeightScheme... Becke
Basis function cutoff            BFCut       ... 1.0000e-11
Integration weight cutoff        WCut        ... 1.0000e-14
Angular grids for H and He will be reduced by one unit
Partially contracted basis set               ... on
Rotationally invariant grid construction     ... off

Total number of grid points                  ...    14920
Total number of batches                      ...      250
Average number of points per batch           ...       59
Average number of grid points per atom       ...      574
UseSFitting                                  ... on

GRIDX 2
-------
General Integration Accuracy     IntAcc      ... 4.020
Radial Grid Type                 RadialGrid  ... OptM3 with GC (2021)
Angular Grid (max. ang.)         AngularGrid ... 2 (Lebedev-110)
Angular grid pruning method      GridPruning ... 4 (adaptive)
Weight generation scheme         WeightScheme... Becke
Basis function cutoff            BFCut       ... 1.0000e-11
Integration weight cutoff        WCut        ... 1.0000e-14
Angular grids for H and He will be reduced by one unit
Partially contracted basis set               ... on
Rotationally invariant grid construction     ... off

Total number of grid points                  ...    31777
Total number of batches                      ...      507
Average number of points per batch           ...       62
Average number of grid points per atom       ...     1222
UseSFitting                                  ... on

GRIDX 3
-------
General Integration Accuracy     IntAcc      ... 4.338
Radial Grid Type                 RadialGrid  ... OptM3 with GC (2021)
Angular Grid (max. ang.)         AngularGrid ... 3 (Lebedev-194)
Angular grid pruning method      GridPruning ... 4 (adaptive)
Weight generation scheme         WeightScheme... Becke
Basis function cutoff            BFCut       ... 1.0000e-11
Integration weight cutoff        WCut        ... 1.0000e-14
Angular grids for H and He will be reduced by one unit
Partially contracted basis set               ... on
Rotationally invariant grid construction     ... off

Total number of grid points                  ...    69430
Total number of batches                      ...     1100
Average number of points per batch           ...       63
Average number of grid points per atom       ...     2670
UseSFitting                                  ... on

Time for X-Grid setup             =    3.537 sec


--------------------
CPCM SOLVATION MODEL
--------------------
CPCM parameters:
  Epsilon                                         ...       9.8629
  Refrac                                          ...       1.4295
  Rsolv                                           ...       1.3000
  Surface type                                    ... GAUSSIAN VDW
  Epsilon function type                           ...         CPCM
Radii:
 Radius for C  used is    3.8550 Bohr (=   2.0400 Ang.)
 Radius for H  used is    2.4944 Bohr (=   1.3200 Ang.)
 Radius for O  used is    3.4469 Bohr (=   1.8240 Ang.)
 Radius for N  used is    3.5149 Bohr (=   1.8600 Ang.)
Calculating surface                               ...        done! (  0.0s)
GEPOL surface points                              ...         1381
GEPOL Volume                                      ...    1444.5894
GEPOL Surface-area                                ...     787.0675
Calculating surface distance matrix               ...        done! (  0.0s)
Performing Cholesky decomposition & store         ...        done! (  0.1s)
Overall time for CPCM initialization              ...                 0.1s
--------------
SCF ITERATIONS
--------------
ITER       Energy         Delta-E        Max-DP      RMS-DP      [F,P]     Damp
               ***  Starting incremental Fock matrix formation  ***
  0   -609.6371660536   0.000000000000 0.09409554  0.00245905  0.2757791 0.7000
  1   -609.8159613871  -0.178795333540 0.05242188  0.00157173  0.1104832 0.7000
                               ***Turning on DIIS***
  2   -609.8819743767  -0.066012989557 0.06205681  0.00231732  0.0366309 0.0000
  3   -609.9928900719  -0.110915695229 0.03542031  0.00107218  0.0547212 0.0000
  4   -610.0133714803  -0.020481408363 0.00903501  0.00033753  0.0139118 0.0000
  5   -610.0148458475  -0.001474367238 0.00293180  0.00009664  0.0040004 0.0000
                      *** Initiating the SOSCF procedure ***
                           *** Shutting down DIIS ***
                      *** Re-Reading the Fockian *** 
                      *** Removing any level shift *** 
ITER      Energy       Delta-E        Grad      Rot      Max-DP    RMS-DP
  6   -610.01491489  -0.0000690411  0.000212  0.000212  0.001266  0.000043
               *** Restarting incremental Fock matrix formation ***
  7   -610.01494120  -0.0000263066  0.000192  0.000768  0.001282  0.000025
  8   -610.01493811   0.0000030817  0.000378  0.000562  0.000844  0.000016
  9   -610.01494315  -0.0000050411  0.000052  0.000141  0.000261  0.000006
 10   -610.01494295   0.0000002024  0.000102  0.000094  0.000186  0.000004
 11   -610.01494323  -0.0000002818  0.000004  0.000006  0.000023  0.000001
 12   -610.01494324  -0.0000000047  0.000004  0.000004  0.000011  0.000000
                  ***Gradient check signals convergence***
              ***Rediagonalizing the Fockian in SOSCF/NRSCF***

               *****************************************************
               *                     SUCCESS                       *
               *           SCF CONVERGED AFTER  13 CYCLES          *
               *****************************************************

Old exchange energy                            =    -15.856082589 Eh
New exchange energy                            =    -15.856078282 Eh
Exchange energy change after final integration =      0.000004307 Eh
Total energy after final integration           =   -610.014938924 Eh
Final COS-X integration done in                =     5.920 sec

----------------
TOTAL SCF ENERGY
----------------

Total Energy       :         -610.01493892 Eh          -16599.35038 eV

Components:
Nuclear Repulsion  :          775.26184041 Eh           21095.94717 eV
Electronic Energy  :        -1385.27677933 Eh          -37695.29756 eV
One Electron Energy:        -2369.96186570 Eh          -64489.94097 eV
Two Electron Energy:          984.68508637 Eh           26794.64341 eV
Max COSX asymmetry :            0.00000259 Eh               0.00007 eV
CPCM Dielectric    :           -0.01884705 Eh              -0.51285 eV

Virial components:
Potential Energy   :        -1216.49051480 Eh          -33102.38980 eV
Kinetic Energy     :          606.47557588 Eh           16503.03942 eV
Virial Ratio       :            2.00583595


DFT components:
N(Alpha)           :       47.000030561811 electrons
N(Beta)            :       47.000030561811 electrons
N(Total)           :       94.000061123621 electrons
E(X)               :      -63.001523979197 Eh       
E(C)               :       -3.774290384265 Eh       
E(XC)              :      -66.775814363463 Eh       
DFET-embed. en.    :        0.000000000000 Eh       
CPCM Solvation Model Properties:
Surface-charge          :           -0.01659032
Charge-correction       :           -0.00007051 Eh              -0.00192 eV
Free-energy (cav+disp)  :  This term is not implemented in the current solvation scheme

---------------
SCF CONVERGENCE
---------------

  Last Energy change         ...    7.2860e-09  Tolerance :   1.0000e-08
  Last MAX-Density change    ...    5.7732e-15  Tolerance :   1.0000e-07
  Last RMS-Density change    ...    6.1351e-17  Tolerance :   5.0000e-09
  Last Orbital Gradient      ...    9.3426e-07  Tolerance :   1.0000e-05
  Last Orbital Rotation      ...    2.0461e-06  Tolerance :   1.0000e-05

             **** THE GBW FILE WAS UPDATED (Ns_octanol.gbw) ****
             **** DENSITY Ns_octanol.scfp WAS UPDATED ****
             **** ENERGY FILE WAS UPDATED (Ns_octanol.en.tmp) ****
             **** THE GBW FILE WAS UPDATED (Ns_octanol.gbw) ****
             **** DENSITY Ns_octanol.scfp WAS UPDATED ****
----------------
ORBITAL ENERGIES
----------------

  NO   OCC          E(Eh)            E(eV) 
   0   2.0000     -19.144861      -520.9581 
   1   2.0000     -19.121983      -520.3356 
   2   2.0000     -19.108324      -519.9639 
   3   2.0000     -14.359230      -390.7345 
   4   2.0000     -14.358315      -390.7096 
   5   2.0000     -10.289383      -279.9883 
   6   2.0000     -10.279726      -279.7256 
   7   2.0000     -10.256702      -279.0990 
   8   2.0000     -10.211374      -277.8656 
   9   2.0000     -10.199704      -277.5481 
  10   2.0000     -10.195116      -277.4232 
  11   2.0000     -10.172440      -276.8062 
  12   2.0000      -1.050102       -28.5747 
  13   2.0000      -1.028229       -27.9795 
  14   2.0000      -1.025007       -27.8919 
  15   2.0000      -0.931247       -25.3405 
  16   2.0000      -0.923994       -25.1431 
  17   2.0000      -0.759888       -20.6776 
  18   2.0000      -0.722029       -19.6474 
  19   2.0000      -0.710005       -19.3202 
  20   2.0000      -0.689684       -18.7673 
  21   2.0000      -0.665534       -18.1101 
  22   2.0000      -0.568023       -15.4567 
  23   2.0000      -0.540290       -14.7020 
  24   2.0000      -0.517830       -14.0909 
  25   2.0000      -0.497896       -13.5484 
  26   2.0000      -0.485673       -13.2158 
  27   2.0000      -0.482550       -13.1309 
  28   2.0000      -0.465005       -12.6534 
  29   2.0000      -0.458455       -12.4752 
  30   2.0000      -0.442775       -12.0485 
  31   2.0000      -0.429629       -11.6908 
  32   2.0000      -0.413782       -11.2596 
  33   2.0000      -0.405571       -11.0361 
  34   2.0000      -0.396918       -10.8007 
  35   2.0000      -0.395934       -10.7739 
  36   2.0000      -0.393067       -10.6959 
  37   2.0000      -0.387029       -10.5316 
  38   2.0000      -0.374246       -10.1837 
  39   2.0000      -0.362892        -9.8748 
  40   2.0000      -0.356584        -9.7031 
  41   2.0000      -0.343999        -9.3607 
  42   2.0000      -0.296231        -8.0608 
  43   2.0000      -0.263642        -7.1741 
  44   2.0000      -0.260240        -7.0815 
  45   2.0000      -0.241718        -6.5775 
  46   2.0000      -0.236660        -6.4398 
  47   0.0000       0.013765         0.3746 
  48   0.0000       0.022808         0.6206 
  49   0.0000       0.077065         2.0970 
  50   0.0000       0.104744         2.8502 
  51   0.0000       0.117834         3.2064 
  52   0.0000       0.145777         3.9668 
  53   0.0000       0.148159         4.0316 
  54   0.0000       0.160413         4.3651 
  55   0.0000       0.165117         4.4931 
  56   0.0000       0.166699         4.5361 
  57   0.0000       0.169272         4.6061 
  58   0.0000       0.174666         4.7529 
  59   0.0000       0.178552         4.8586 
  60   0.0000       0.194551         5.2940 
  61   0.0000       0.195930         5.3315 
  62   0.0000       0.199731         5.4350 
  63   0.0000       0.204698         5.5701 
  64   0.0000       0.220656         6.0043 
  65   0.0000       0.223467         6.0808 
  66   0.0000       0.234022         6.3681 
  67   0.0000       0.244193         6.6448 
  68   0.0000       0.265011         7.2113 
  69   0.0000       0.270032         7.3479 
  70   0.0000       0.336654         9.1608 
  71   0.0000       0.354335         9.6420 
  72   0.0000       0.365652         9.9499 
  73   0.0000       0.419542        11.4163 
  74   0.0000       0.470616        12.8061 
  75   0.0000       0.502926        13.6853 
  76   0.0000       0.516095        14.0437 
  77   0.0000       0.522615        14.2211 
  78   0.0000       0.532906        14.5011 
  79   0.0000       0.537851        14.6357 
  80   0.0000       0.546804        14.8793 
  81   0.0000       0.560425        15.2499 
  82   0.0000       0.575722        15.6662 
  83   0.0000       0.609881        16.5957 
  84   0.0000       0.617531        16.8039 
  85   0.0000       0.650064        17.6891 
  86   0.0000       0.659389        17.9429 
  87   0.0000       0.669526        18.2187 
  88   0.0000       0.675626        18.3847 
  89   0.0000       0.702417        19.1138 
  90   0.0000       0.725306        19.7366 
  91   0.0000       0.751319        20.4444 
  92   0.0000       0.764423        20.8010 
  93   0.0000       0.768686        20.9170 
  94   0.0000       0.797806        21.7094 
  95   0.0000       0.799919        21.7669 
  96   0.0000       0.824447        22.4343 
  97   0.0000       0.829568        22.5737 
  98   0.0000       0.837976        22.8025 
  99   0.0000       0.846028        23.0216 
 100   0.0000       0.847166        23.0525 
 101   0.0000       0.855013        23.2661 
 102   0.0000       0.874337        23.7919 
 103   0.0000       0.885711        24.1014 
 104   0.0000       0.896077        24.3835 
 105   0.0000       0.904379        24.6094 
 106   0.0000       0.906206        24.6591 
 107   0.0000       0.918814        25.0022 
 108   0.0000       0.929481        25.2925 
 109   0.0000       0.933209        25.3939 
 110   0.0000       0.959565        26.1111 
 111   0.0000       0.972450        26.4617 
 112   0.0000       0.987928        26.8829 
 113   0.0000       1.004924        27.3454 
 114   0.0000       1.007639        27.4193 
 115   0.0000       1.027454        27.9585 
 116   0.0000       1.040641        28.3173 
 117   0.0000       1.049246        28.5514 
 118   0.0000       1.084344        29.5065 
 119   0.0000       1.100175        29.9373 
 120   0.0000       1.112433        30.2708 
 121   0.0000       1.132042        30.8044 
 122   0.0000       1.161507        31.6062 
 123   0.0000       1.222871        33.2760 
 124   0.0000       1.238366        33.6977 
 125   0.0000       1.262406        34.3518 
 126   0.0000       1.308456        35.6049 
 127   0.0000       1.335904        36.3518 
 128   0.0000       1.353699        36.8360 
 129   0.0000       1.366094        37.1733 
 130   0.0000       1.400860        38.1193 
 131   0.0000       1.431996        38.9666 
 132   0.0000       1.433529        39.0083 
 133   0.0000       1.450137        39.4602 
 134   0.0000       1.484832        40.4043 
 135   0.0000       1.499137        40.7936 
 136   0.0000       1.551104        42.2077 
 137   0.0000       1.593308        43.3561 
 138   0.0000       1.633034        44.4371 
 139   0.0000       1.691081        46.0166 
 140   0.0000       1.712050        46.5873 
 141   0.0000       1.743229        47.4357 
 142   0.0000       1.762119        47.9497 
 143   0.0000       1.766829        48.0779 
 144   0.0000       1.788528        48.6683 
 145   0.0000       1.796223        48.8777 
 146   0.0000       1.815248        49.3954 
 147   0.0000       1.833427        49.8901 
 148   0.0000       1.839360        50.0515 
 149   0.0000       1.884707        51.2855 
 150   0.0000       1.896393        51.6035 
 151   0.0000       1.904170        51.8151 
 152   0.0000       1.922998        52.3274 
 153   0.0000       1.942909        52.8692 
 154   0.0000       1.957185        53.2577 
 155   0.0000       1.966095        53.5002 
 156   0.0000       1.982603        53.9494 
 157   0.0000       2.003252        54.5113 
 158   0.0000       2.021813        55.0163 
 159   0.0000       2.068105        56.2760 
 160   0.0000       2.074108        56.4393 
 161   0.0000       2.085108        56.7387 
 162   0.0000       2.091722        56.9186 
 163   0.0000       2.106952        57.3331 
 164   0.0000       2.134313        58.0776 
 165   0.0000       2.155375        58.6507 
 166   0.0000       2.187623        59.5283 
 167   0.0000       2.218153        60.3590 
 168   0.0000       2.254008        61.3347 
 169   0.0000       2.255994        61.3887 
 170   0.0000       2.282858        62.1197 
 171   0.0000       2.300194        62.5915 
 172   0.0000       2.330938        63.4280 
 173   0.0000       2.335142        63.5425 
 174   0.0000       2.371835        64.5409 
 175   0.0000       2.403401        65.3999 
 176   0.0000       2.415778        65.7367 
 177   0.0000       2.451630        66.7122 
 178   0.0000       2.489921        67.7542 
 179   0.0000       2.504645        68.1549 
 180   0.0000       2.527703        68.7823 
 181   0.0000       2.551670        69.4345 
 182   0.0000       2.607684        70.9587 
 183   0.0000       2.620101        71.2966 
 184   0.0000       2.648315        72.0643 
 185   0.0000       2.659348        72.3645 
 186   0.0000       2.696631        73.3791 
 187   0.0000       2.720150        74.0191 
 188   0.0000       2.734314        74.4045 
 189   0.0000       2.864075        77.9355 
 190   0.0000       2.931262        79.7637 
 191   0.0000       2.954804        80.4043 
 192   0.0000       3.000356        81.6438 
 193   0.0000       3.008260        81.8589 
 194   0.0000       3.156980        85.9058 
 195   0.0000       3.175804        86.4180 

                    ********************************
                    * MULLIKEN POPULATION ANALYSIS *
                    ********************************

-----------------------
MULLIKEN ATOMIC CHARGES
-----------------------
   0 C :    0.540339
   1 H :    0.196206
   2 H :    0.197225
   3 H :    0.180035
   4 O :   -0.492879
   5 C :   -0.566085
   6 N :   -0.394895
   7 C :   -0.262299
   8 H :    0.207440
   9 H :    0.179621
  10 C :    0.055531
  11 H :    0.183663
  12 H :    0.176178
  13 O :   -0.652239
  14 H :    0.434486
  15 C :    0.530683
  16 O :   -0.540094
  17 N :   -0.362119
  18 C :   -0.329547
  19 H :    0.170327
  20 H :    0.186803
  21 H :    0.168333
  22 C :   -0.344186
  23 H :    0.169572
  24 H :    0.195849
  25 H :    0.172052
Sum of atomic charges:   -0.0000000

--------------------------------
MULLIKEN REDUCED ORBITAL CHARGES
--------------------------------
  0 C s       :     2.983286  s :     2.983286
      pz      :     0.794352  p :     2.366160
      px      :     0.812745
      py      :     0.759062
      dz2     :     0.013851  d :     0.110216
      dxz     :     0.012838
      dyz     :     0.022553
      dx2y2   :     0.034434
      dxy     :     0.026539
  1 H s       :     0.803794  s :     0.803794
  2 H s       :     0.802775  s :     0.802775
  3 H s       :     0.819965  s :     0.819965
  4 O s       :     3.852009  s :     3.852009
      pz      :     1.477382  p :     4.614197
      px      :     1.597206
      py      :     1.539608
      dz2     :     0.004843  d :     0.026673
      dxz     :     0.002810
      dyz     :     0.006866
      dx2y2   :     0.005622
      dxy     :     0.006532
  5 C s       :     3.326540  s :     3.326540
      pz      :     1.072546  p :     3.207967
      px      :     1.019748
      py      :     1.115674
      dz2     :     0.009166  d :     0.031578
      dxz     :     0.005795
      dyz     :     0.002454
      dx2y2   :     0.006875
      dxy     :     0.007288
  6 N s       :     3.542399  s :     3.542399
      pz      :     1.453242  p :     3.817104
      px      :     1.265889
      py      :     1.097973
      dz2     :     0.005032  d :     0.035393
      dxz     :     0.005860
      dyz     :     0.005994
      dx2y2   :     0.008555
      dxy     :     0.009953
  7 C s       :     3.257455  s :     3.257455
      pz      :     0.958814  p :     2.953185
      px      :     0.884198
      py      :     1.110174
      dz2     :     0.008047  d :     0.051659
      dxz     :     0.013373
      dyz     :     0.011646
      dx2y2   :     0.010316
      dxy     :     0.008277
  8 H s       :     0.792560  s :     0.792560
  9 H s       :     0.820379  s :     0.820379
 10 C s       :     3.143080  s :     3.143080
      pz      :     0.928157  p :     2.720508
      px      :     0.873937
      py      :     0.918414
      dz2     :     0.015688  d :     0.080881
      dxz     :     0.018896
      dyz     :     0.010911
      dx2y2   :     0.010244
      dxy     :     0.025142
 11 H s       :     0.816337  s :     0.816337
 12 H s       :     0.823822  s :     0.823822
 13 O s       :     3.876063  s :     3.876063
      pz      :     1.398198  p :     4.750662
      px      :     1.558439
      py      :     1.794024
      dz2     :     0.003406  d :     0.025514
      dxz     :     0.009301
      dyz     :     0.003760
      dx2y2   :     0.004629
      dxy     :     0.004417
 14 H s       :     0.565514  s :     0.565514
 15 C s       :     2.974158  s :     2.974158
      pz      :     0.807277  p :     2.387714
      px      :     0.824133
      py      :     0.756304
      dz2     :     0.013901  d :     0.107445
      dxz     :     0.007943
      dyz     :     0.029869
      dx2y2   :     0.020390
      dxy     :     0.035341
 16 O s       :     3.861801  s :     3.861801
      pz      :     1.626846  p :     4.653360
      px      :     1.671691
      py      :     1.354823
      dz2     :     0.002583  d :     0.024934
      dxz     :     0.000420
      dyz     :     0.007593
      dx2y2   :     0.007456
      dxy     :     0.006883
 17 N s       :     3.533338  s :     3.533338
      pz      :     1.361360  p :     3.791037
      px      :     1.305668
      py      :     1.124009
      dz2     :     0.006651  d :     0.037745
      dxz     :     0.005491
      dyz     :     0.007926
      dx2y2   :     0.008057
      dxy     :     0.009620
 18 C s       :     3.258849  s :     3.258849
      pz      :     1.013837  p :     3.022764
      px      :     0.948308
      py      :     1.060618
      dz2     :     0.013781  d :     0.047934
      dxz     :     0.007691
      dyz     :     0.006942
      dx2y2   :     0.009445
      dxy     :     0.010076
 19 H s       :     0.829673  s :     0.829673
 20 H s       :     0.813197  s :     0.813197
 21 H s       :     0.831667  s :     0.831667
 22 C s       :     3.267993  s :     3.267993
      pz      :     1.094061  p :     3.027891
      px      :     1.115385
      py      :     0.818445
      dz2     :     0.011172  d :     0.048301
      dxz     :     0.006793
      dyz     :     0.008247
      dx2y2   :     0.010504
      dxy     :     0.011584
 23 H s       :     0.830428  s :     0.830428
 24 H s       :     0.804151  s :     0.804151
 25 H s       :     0.827948  s :     0.827948


                     *******************************
                     * LOEWDIN POPULATION ANALYSIS *
                     *******************************

----------------------
LOEWDIN ATOMIC CHARGES
----------------------
   0 C :    0.122371
   1 H :    0.155771
   2 H :    0.157937
   3 H :    0.149512
   4 O :   -0.288400
   5 C :   -0.398179
   6 N :   -0.099117
   7 C :   -0.182719
   8 H :    0.159881
   9 H :    0.141958
  10 C :   -0.060373
  11 H :    0.140759
  12 H :    0.134641
  13 O :   -0.426133
  14 H :    0.333435
  15 C :    0.098450
  16 O :   -0.338968
  17 N :   -0.069288
  18 C :   -0.280098
  19 H :    0.135318
  20 H :    0.148410
  21 H :    0.131504
  22 C :   -0.283878
  23 H :    0.132246
  24 H :    0.149143
  25 H :    0.135816

-------------------------------
LOEWDIN REDUCED ORBITAL CHARGES
-------------------------------
  0 C s       :     2.851170  s :     2.851170
      pz      :     0.857490  p :     2.765504
      px      :     0.950936
      py      :     0.957078
      dz2     :     0.030422  d :     0.260955
      dxz     :     0.030103
      dyz     :     0.050818
      dx2y2   :     0.087530
      dxy     :     0.062082
  1 H s       :     0.844229  s :     0.844229
  2 H s       :     0.842063  s :     0.842063
  3 H s       :     0.850488  s :     0.850488
  4 O s       :     3.547502  s :     3.547502
      pz      :     1.486261  p :     4.685834
      px      :     1.619306
      py      :     1.580268
      dz2     :     0.007497  d :     0.055064
      dxz     :     0.006743
      dyz     :     0.014291
      dx2y2   :     0.011925
      dxy     :     0.014608
  5 C s       :     2.985609  s :     2.985609
      pz      :     1.121156  p :     3.350806
      px      :     1.080724
      py      :     1.148927
      dz2     :     0.017263  d :     0.061764
      dxz     :     0.012644
      dyz     :     0.004064
      dx2y2   :     0.013966
      dxy     :     0.013828
  6 N s       :     3.113028  s :     3.113028
      pz      :     1.446014  p :     3.892834
      px      :     1.278853
      py      :     1.167968
      dz2     :     0.012427  d :     0.093255
      dxz     :     0.013121
      dyz     :     0.015101
      dx2y2   :     0.024128
      dxy     :     0.028479
  7 C s       :     2.931580  s :     2.931580
      pz      :     1.035856  p :     3.141979
      px      :     0.976541
      py      :     1.129583
      dz2     :     0.016602  d :     0.109160
      dxz     :     0.029919
      dyz     :     0.023579
      dx2y2   :     0.021268
      dxy     :     0.017792
  8 H s       :     0.840119  s :     0.840119
  9 H s       :     0.858042  s :     0.858042
 10 C s       :     2.911811  s :     2.911811
      pz      :     1.002186  p :     2.973158
      px      :     0.970336
      py      :     1.000636
      dz2     :     0.032382  d :     0.175404
      dxz     :     0.041967
      dyz     :     0.022621
      dx2y2   :     0.022396
      dxy     :     0.056039
 11 H s       :     0.859241  s :     0.859241
 12 H s       :     0.865359  s :     0.865359
 13 O s       :     3.568572  s :     3.568572
      pz      :     1.422802  p :     4.810083
      px      :     1.599109
      py      :     1.788172
      dz2     :     0.008001  d :     0.047479
      dxz     :     0.017324
      dyz     :     0.007302
      dx2y2   :     0.007499
      dxy     :     0.007353
 14 H s       :     0.666565  s :     0.666565
 15 C s       :     2.851785  s :     2.851785
      pz      :     0.884758  p :     2.795023
      px      :     0.918046
      py      :     0.992219
      dz2     :     0.031722  d :     0.254741
      dxz     :     0.017795
      dyz     :     0.071522
      dx2y2   :     0.050014
      dxy     :     0.083689
 16 O s       :     3.566970  s :     3.566970
      pz      :     1.615445  p :     4.720513
      px      :     1.658793
      py      :     1.446275
      dz2     :     0.006541  d :     0.051485
      dxz     :     0.000617
      dyz     :     0.012893
      dx2y2   :     0.018901
      dxy     :     0.012533
 17 N s       :     3.090363  s :     3.090363
      pz      :     1.375682  p :     3.881176
      px      :     1.322938
      py      :     1.182556
      dz2     :     0.014673  d :     0.097749
      dxz     :     0.014995
      dyz     :     0.021314
      dx2y2   :     0.021780
      dxy     :     0.024987
 18 C s       :     2.962792  s :     2.962792
      pz      :     1.080614  p :     3.222173
      px      :     1.030039
      py      :     1.111521
      dz2     :     0.027329  d :     0.095133
      dxz     :     0.015199
      dyz     :     0.013648
      dx2y2   :     0.018970
      dxy     :     0.019987
 19 H s       :     0.864682  s :     0.864682
 20 H s       :     0.851590  s :     0.851590
 21 H s       :     0.868496  s :     0.868496
 22 C s       :     2.962385  s :     2.962385
      pz      :     1.137668  p :     3.225287
      px      :     1.152561
      py      :     0.935058
      dz2     :     0.021554  d :     0.096206
      dxz     :     0.012057
      dyz     :     0.017181
      dx2y2   :     0.021615
      dxy     :     0.023799
 23 H s       :     0.867754  s :     0.867754
 24 H s       :     0.850857  s :     0.850857
 25 H s       :     0.864184  s :     0.864184


                      *****************************
                      * MAYER POPULATION ANALYSIS *
                      *****************************

  NA   - Mulliken gross atomic population
  ZA   - Total nuclear charge
  QA   - Mulliken gross atomic charge
  VA   - Mayer's total valence
  BVA  - Mayer's bonded valence
  FA   - Mayer's free valence

  ATOM       NA         ZA         QA         VA         BVA        FA
  0 C      5.4597     6.0000     0.5403     3.9473     3.9473    -0.0000
  1 H      0.8038     1.0000     0.1962     0.9330     0.9330    -0.0000
  2 H      0.8028     1.0000     0.1972     0.9228     0.9228    -0.0000
  3 H      0.8200     1.0000     0.1800     0.9384     0.9384     0.0000
  4 O      8.4929     8.0000    -0.4929     2.0556     2.0556     0.0000
  5 C      6.5661     6.0000    -0.5661     3.7921     3.7921    -0.0000
  6 N      7.3949     7.0000    -0.3949     3.0529     3.0529    -0.0000
  7 C      6.2623     6.0000    -0.2623     3.7617     3.7617    -0.0000
  8 H      0.7926     1.0000     0.2074     0.9358     0.9358     0.0000
  9 H      0.8204     1.0000     0.1796     0.9354     0.9354    -0.0000
 10 C      5.9445     6.0000     0.0555     3.8148     3.8148     0.0000
 11 H      0.8163     1.0000     0.1837     0.9278     0.9278     0.0000
 12 H      0.8238     1.0000     0.1762     0.9418     0.9418     0.0000
 13 O      8.6522     8.0000    -0.6522     1.7822     1.7822     0.0000
 14 H      0.5655     1.0000     0.4345     0.7799     0.7799     0.0000
 15 C      5.4693     6.0000     0.5307     3.9323     3.9323    -0.0000
 16 O      8.5401     8.0000    -0.5401     1.9904     1.9904     0.0000
 17 N      7.3621     7.0000    -0.3621     3.1742     3.1742    -0.0000
 18 C      6.3295     6.0000    -0.3295     3.7799     3.7799    -0.0000
 19 H      0.8297     1.0000     0.1703     0.9290     0.9290    -0.0000
 20 H      0.8132     1.0000     0.1868     0.9507     0.9507     0.0000
 21 H      0.8317     1.0000     0.1683     0.9267     0.9267    -0.0000
 22 C      6.3442     6.0000    -0.3442     3.7655     3.7655    -0.0000
 23 H      0.8304     1.0000     0.1696     0.9249     0.9249     0.0000
 24 H      0.8042     1.0000     0.1958     0.9487     0.9487    -0.0000
 25 H      0.8279     1.0000     0.1721     0.9263     0.9263    -0.0000

  Mayer bond orders larger than 0.100000
B(  0-C ,  4-O ) :   1.8039 B(  0-C ,  5-C ) :   0.9896 B(  0-C ,  6-N ) :   1.0986 
B(  1-H ,  5-C ) :   0.9155 B(  2-H ,  5-C ) :   0.9228 B(  3-H ,  5-C ) :   0.9388 
B(  6-N ,  7-C ) :   0.9390 B(  6-N , 10-C ) :   0.9547 B(  7-C ,  8-H ) :   0.8946 
B(  7-C ,  9-H ) :   0.9182 B(  7-C , 15-C ) :   0.9366 B( 10-C , 11-H ) :   0.9233 
B( 10-C , 12-H ) :   0.9115 B( 10-C , 13-O ) :   0.9802 B( 13-O , 14-H ) :   0.7627 
B( 15-C , 16-O ) :   1.7352 B( 15-C , 17-N ) :   1.2068 B( 16-O , 17-N ) :   0.1015 
B( 17-N , 18-C ) :   0.9503 B( 17-N , 22-C ) :   0.9526 B( 18-C , 19-H ) :   0.9380 
B( 18-C , 20-H ) :   0.9244 B( 18-C , 21-H ) :   0.9360 B( 22-C , 23-H ) :   0.9320 
B( 22-C , 24-H ) :   0.9036 B( 22-C , 25-H ) :   0.9348 

-------
TIMINGS
-------

Total SCF time: 0 days 0 hours 1 min 8 sec 

Total time                  ....      68.377 sec
Sum of individual times     ....      65.048 sec  ( 95.1%)

Fock matrix formation       ....      58.888 sec  ( 86.1%)
  Split-RI-J                ....       7.492 sec  ( 12.7% of F)
  Chain of spheres X        ....      30.437 sec  ( 51.7% of F)
  XC integration            ....       9.495 sec  ( 16.1% of F)
    Basis function eval.    ....       2.369 sec  ( 25.0% of XC)
    Density eval.           ....       1.975 sec  ( 20.8% of XC)
    XC-Functional eval.     ....       1.876 sec  ( 19.8% of XC)
    XC-Potential eval.      ....       1.183 sec  ( 12.5% of XC)
Diagonalization             ....       0.069 sec  (  0.1%)
Density matrix formation    ....       0.007 sec  (  0.0%)
Population analysis         ....       0.447 sec  (  0.7%)
Initial guess               ....       0.934 sec  (  1.4%)
Orbital Transformation      ....       0.000 sec  (  0.0%)
Orbital Orthonormalization  ....       0.000 sec  (  0.0%)
DIIS solution               ....       0.050 sec  (  0.1%)
SOSCF solution              ....       0.064 sec  (  0.1%)
Grid generation             ....       4.588 sec  (  6.7%)

Maximum memory used throughout the entire SCF-calculation: 63.8 MB


-------------------------------------------------------------------------------
                          DFT DISPERSION CORRECTION                            
                                                                               
                                 DFTD4 V2.5                                    
-------------------------------------------------------------------------------
The B3LYP functional is recognized
Active option DFTDOPT                   ...         5   

Starting D4
-------------------------   ----------------
Dispersion correction           -0.040911592
-------------------------   ----------------


-------------------------   --------------------
FINAL SINGLE POINT ENERGY      -610.055850516766
-------------------------   --------------------



           ************************************************************
           *        Program running with 4 parallel MPI-processes     *
           *              working on a common directory               *
           ************************************************************
------------------------------------------------------------------------------
                         ORCA SCF GRADIENT CALCULATION
------------------------------------------------------------------------------

 ... reading COSX grid (gridx3)
Gradient of the Kohn-Sham DFT energy:
Kohn-Sham wavefunction type      ... RKS
Hartree-Fock exchange scaling    ...    0.200
Number of operators              ...    1
Number of atoms                  ...   26
Basis set dimensions             ...  196
Integral neglect threshold       ... 2.5e-11
Integral primitive cutoff        ... 2.5e-12
[...]
     15      -0.000214  -0.001168  -0.001257  -0.000021   0.000063   0.000038
     16       0.003349  -0.025470   0.088996   0.000090  -0.000273   0.000024
     17      -0.000423   0.002958  -0.010037   0.000067  -0.000221   0.000014
     18       0.000335  -0.000296  -0.000287  -0.000003   0.000093  -0.000189
     19      -0.000081   0.000353  -0.000090  -0.000119   0.000442   0.000385
     20       0.000347   0.000085  -0.000092   0.000076  -0.000225   0.000130
     21       0.031394   0.002073  -0.000637   0.001086  -0.003974   0.000046
     22      -0.083597  -0.004000   0.001854  -0.003105   0.010761   0.000086
     23       0.011017   0.000518  -0.000557   0.001042  -0.002554   0.000214
     24      -0.262347  -0.012214   0.006915  -0.011855   0.038514   0.000089
     25       0.790486   0.036222  -0.020164   0.035504  -0.115712  -0.000107
     26      -0.385241  -0.017559   0.009996  -0.015501   0.050603  -0.000397
     27      -0.108050  -0.005602   0.001756  -0.001824   0.011184  -0.001266
     28       0.221478   0.011689  -0.002950   0.003694  -0.022113  -0.000647
     29       0.257395   0.014561  -0.003105   0.004234  -0.025481  -0.001414
     30       0.001169  -0.045044  -0.012601  -0.000067   0.000153  -0.002087
     31       0.001356  -0.037830  -0.010626   0.000028  -0.000032  -0.001073
     32       0.002766  -0.066881  -0.019320  -0.000101   0.000181  -0.001987
     33      -0.013648   0.323919   0.093249   0.000416  -0.000644   0.007689
     34      -0.008739   0.204897   0.058260   0.000198  -0.000339   0.005438
     35      -0.035265   0.813115   0.234184   0.000908  -0.001303   0.017184
     36      -0.005851   0.209851   0.056151  -0.000050   0.000065  -0.000221
     37      -0.005971   0.248281   0.066774  -0.000145   0.000110   0.004244
     38      -0.000022  -0.025086  -0.006120   0.000013   0.000059   0.002897
     39      -0.000076   0.001353   0.000420   0.000016  -0.000029  -0.018709
     40       0.000023   0.000442   0.000240  -0.000005   0.000010  -0.024266
     41      -0.000083   0.001315   0.000402  -0.000000   0.000002  -0.054298
     42      -0.000176  -0.014007  -0.003742  -0.000062   0.000137   0.318906
     43       0.000655  -0.005371  -0.001431   0.000005   0.000012   0.384388
     44       0.001168  -0.015673  -0.004152  -0.000056   0.000071   0.863847
     45      -0.000241   0.000164   0.000039   0.000324   0.000316   0.000050
     46      -0.001389  -0.000014   0.000035   0.000984   0.000761   0.000019
     47      -0.000781  -0.000119   0.000035   0.000012   0.000252  -0.000027
     48       0.000264  -0.000097  -0.000027  -0.000636  -0.000289  -0.000025
     49       0.000681   0.000007  -0.000014  -0.000325  -0.000182  -0.000013
     50       0.000398   0.000011  -0.000017   0.000495   0.000128  -0.000000
     51      -0.000131  -0.000032   0.000009   0.000007  -0.000091  -0.000015
     52      -0.000205  -0.000023  -0.000002   0.000470  -0.000632   0.000001
     53       0.000043   0.000034  -0.000000   0.000193  -0.000046   0.000013
     54      -0.000286   0.000031  -0.000002  -0.004298  -0.001596   0.000012
     55      -0.000089  -0.000028  -0.000014   0.080153   0.022878   0.000009
     56       0.000158  -0.000057  -0.000014   0.032917   0.009544   0.000002
     57       0.002520  -0.000555  -0.000020   0.165169   0.046535  -0.000074
     58      -0.001103   0.000233   0.000001  -0.080164  -0.023720   0.000023
     59       0.000232  -0.000040   0.000004   0.036531   0.010584   0.000026
     60       0.000244   0.000059  -0.000000  -0.057277  -0.017164   0.000007
     61       0.001248   0.000202   0.000160  -0.878886  -0.255677  -0.000035
     62       0.000191   0.000017   0.000057  -0.271497  -0.078705  -0.000008
     63      -0.000162   0.000120   0.000021  -0.046165  -0.013427  -0.000006
     64       0.000005  -0.000005   0.000007   0.000964  -0.000492  -0.000012
     65      -0.001637   0.000742   0.000084  -0.168000  -0.048080   0.000072
     66       0.007898   0.000463   0.000029  -0.015768   0.053091   0.000004
     67       0.004200   0.000148   0.000015  -0.008397   0.027834  -0.000010
     68      -0.009534  -0.000499  -0.000062   0.017576  -0.061269   0.000006
     69       0.012751   0.000740   0.000165  -0.021046   0.073229   0.000033
     70       0.000893   0.000109   0.000022  -0.002154   0.005265   0.000013
     71       0.021876   0.001314   0.000346  -0.034508   0.124745   0.000023
     72      -0.081660  -0.003869  -0.000203   0.157197  -0.541947   0.000177
     73      -0.059322  -0.002989  -0.000298   0.118211  -0.409143   0.000031
     74       0.090491   0.004444   0.000432  -0.178070   0.614149  -0.000064
     75      -0.024121  -0.002311  -0.000263   0.049845  -0.168709  -0.000111
     76       0.013891   0.001271   0.000104  -0.028374   0.090993   0.000032
     77      -0.001447   0.000050   0.000053   0.000943  -0.001959   0.000043


-----------
IR SPECTRUM
-----------

 Mode   freq       eps      Int      T**2         TX        TY        TZ
       cm**-1   L/(mol*cm) km/mol    a.u.
----------------------------------------------------------------------------
  6:     29.72   0.001514    7.65  0.015904  ( 0.050871 -0.014003  0.114541)
  7:     65.84   0.000047    0.24  0.000224  (-0.002727  0.003445 -0.014323)
  8:     71.23   0.000572    2.89  0.002505  (-0.044311 -0.003427  0.023012)
  9:     84.39   0.001046    5.29  0.003868  ( 0.061970 -0.005117 -0.001416)
 10:    109.05   0.001530    7.73  0.004377  (-0.006194 -0.016563 -0.063750)
 11:    116.25   0.002214   11.19  0.005945  ( 0.065077 -0.006221 -0.040877)
 12:    144.80   0.001155    5.84  0.002490  (-0.043018  0.010408 -0.023036)
 13:    159.59   0.000062    0.31  0.000121  (-0.000797 -0.007866 -0.007619)
 14:    191.08   0.000044    0.22  0.000072  (-0.001475  0.005701  0.006077)
 15:    216.18   0.000894    4.52  0.001291  (-0.008553  0.002815 -0.034779)
 16:    257.28   0.002755   13.92  0.003342  ( 0.056982  0.005057  0.008318)
 17:    278.28   0.003372   17.04  0.003781  (-0.003973  0.054474 -0.028245)
 18:    321.52   0.024128  121.93  0.023418  ( 0.009283 -0.148509  0.035742)
 19:    346.42   0.007354   37.17  0.006625  ( 0.017394  0.063985 -0.047205)
 20:    391.79   0.006334   32.01  0.005045  (-0.026506  0.060327  0.026518)
 21:    424.77   0.000837    4.23  0.000615  ( 0.008507  0.023192 -0.002154)
 22:    445.74   0.003653   18.46  0.002558  ( 0.021574 -0.045044  0.007955)
 23:    464.89   0.003408   17.22  0.002288  ( 0.028382  0.033366 -0.019209)
 24:    525.00   0.005159   26.07  0.003066  ( 0.033053 -0.012724  0.042566)
 25:    575.38   0.002774   14.02  0.001504  (-0.025068 -0.025228  0.015480)
 26:    610.58   0.005306   26.81  0.002712  (-0.028347  0.006312  0.043224)
 27:    635.62   0.008980   45.38  0.004409  ( 0.002011 -0.064244  0.016655)
 28:    709.51   0.001519    7.67  0.000668  (-0.002392 -0.010341  0.023564)
 29:    763.08   0.003826   19.34  0.001565  ( 0.025658  0.016359 -0.025274)
 30:    807.44   0.006157   31.12  0.002380  (-0.035931  0.031261  0.010553)
 31:    951.39   0.003222   16.29  0.001057  ( 0.017461  0.022094 -0.016248)
 32:    994.89   0.022778  115.11  0.007145  (-0.072269  0.038124  0.021642)
 33:   1001.27   0.008214   41.51  0.002560  ( 0.015751  0.036885 -0.030845)
 34:   1010.00   0.005717   28.89  0.001767  ( 0.018362  0.035620  0.012673)
 35:   1050.48   0.044568  225.23  0.013240  ( 0.080419 -0.056345 -0.059981)
 36:   1066.81   0.004439   22.43  0.001298  (-0.019585  0.011964  0.027779)
 37:   1089.33   0.002367   11.96  0.000678  ( 0.007631  0.024780 -0.002412)
 38:   1109.29   0.010380   52.46  0.002920  ( 0.027579 -0.041251 -0.021398)
 39:   1136.62   0.000404    2.04  0.000111  ( 0.003392  0.008681  0.004910)
 40:   1167.07   0.011754   59.40  0.003143  (-0.032526  0.041715  0.018570)
 41:   1183.77   0.000476    2.41  0.000125  ( 0.004509 -0.010147 -0.001482)
 42:   1219.98   0.007619   38.50  0.001949  ( 0.001680 -0.002618 -0.044036)
 43:   1262.45   0.034204  172.85  0.008455  ( 0.030621  0.083654  0.022784)
 44:   1285.60   0.012197   61.64  0.002961  ( 0.037446  0.022483 -0.032450)
 45:   1306.96   0.018091   91.43  0.004320  (-0.064316 -0.003866 -0.012970)
 46:   1373.98   0.001814    9.17  0.000412  ( 0.000000  0.020266 -0.001159)
 47:   1397.26   0.007688   38.85  0.001717  (-0.016054 -0.033546  0.018275)
 48:   1414.91   0.012055   60.92  0.002659  ( 0.049700  0.008762  0.010583)
 49:   1436.03   0.018248   92.22  0.003965  ( 0.006704  0.062317  0.006098)
 50:   1441.50   0.019514   98.61  0.004224  ( 0.024980 -0.051056 -0.031524)
 51:   1458.75   0.020806  105.14  0.004451  ( 0.052152 -0.013408 -0.039386)
 52:   1476.90   0.027963  141.32  0.005909  ( 0.049436  0.058846 -0.001342)
 53:   1490.87   0.004121   20.83  0.000863  ( 0.024979 -0.015332  0.001916)
 54:   1492.26   0.002913   14.72  0.000609  (-0.013711  0.009421 -0.018234)
 55:   1501.14   0.002382   12.04  0.000495  ( 0.007020  0.011939 -0.017416)
 56:   1508.28   0.002401   12.14  0.000497  ( 0.015141  0.016342  0.000736)
 57:   1510.46   0.004283   21.65  0.000885  (-0.015984 -0.011493 -0.022302)
 58:   1520.06   0.004164   21.04  0.000855  ( 0.026910 -0.010802  0.003729)
 59:   1530.65   0.004591   23.20  0.000936  (-0.011453  0.016515 -0.023064)
 60:   1539.23   0.004033   20.38  0.000818  ( 0.018517  0.021709  0.001847)
 61:   1557.88   0.014820   74.89  0.002969  (-0.037183  0.000658  0.039820)
 62:   1711.41   0.144190  728.68  0.026292  ( 0.023060 -0.149356 -0.058763)
 63:   1723.52   0.064547  326.19  0.011687  (-0.032109  0.088599 -0.052974)
 64:   3036.25   0.007543   38.12  0.000775  ( 0.006612  0.023131  0.014017)
 65:   3043.60   0.018167   91.81  0.001863  ( 0.023498 -0.010170 -0.034743)
 66:   3064.30   0.000439    2.22  0.000045  (-0.003547 -0.001147 -0.005550)
 67:   3086.12   0.007357   37.18  0.000744  ( 0.006318  0.004424 -0.026163)
 68:   3091.35   0.007008   35.41  0.000707  (-0.003739  0.026015 -0.004082)
 69:   3091.77   0.016325   82.50  0.001648  ( 0.034825 -0.005351  0.020159)
 70:   3095.40   0.000457    2.31  0.000046  (-0.001264  0.001318  0.006536)
 71:   3133.04   0.001071    5.41  0.000107  ( 0.007013  0.003056 -0.006941)
 72:   3164.99   0.001636    8.27  0.000161  ( 0.011832  0.003010 -0.003496)
 73:   3167.92   0.004876   24.64  0.000480  (-0.011372 -0.009097 -0.016378)
 74:   3175.21   0.001829    9.24  0.000180  (-0.000013  0.012178 -0.005606)
 75:   3193.86   0.000835    4.22  0.000082  ( 0.005688  0.007013  0.000148)
 76:   3196.87   0.000543    2.75  0.000053  (-0.006090  0.002505 -0.003110)
 77:   3723.87   0.011072   55.95  0.000928  ( 0.000565  0.015777  0.026051)

* The epsilon (eps) is given for a Dirac delta lineshape.
** The dipole moment derivative (T) already includes vibrational overlap.

The first frequency considered to be a vibration is 6
The total number of vibrations considered is 72


--------------------------
THERMOCHEMISTRY AT 298.15K
--------------------------

Temperature         ... 298.15 K
Pressure            ... 1.00 atm
Total Mass          ... 174.20 AMU

Throughout the following assumptions are being made:
  (1) The electronic state is orbitally nondegenerate
  (2) There are no thermally accessible electronically excited states
  (3) Hindered rotations indicated by low frequency modes are not
      treated as such but are treated as vibrations and this may
      cause some error
  (4) All equations used are the standard statistical mechanics
      equations for an ideal gas
  (5) All vibrations are strictly harmonic

freq.      29.72  E(vib)   ...       0.55 
freq.      65.84  E(vib)   ...       0.50 
freq.      71.23  E(vib)   ...       0.50 
freq.      84.39  E(vib)   ...       0.48 
freq.     109.05  E(vib)   ...       0.45 
freq.     116.25  E(vib)   ...       0.44 
freq.     144.80  E(vib)   ...       0.41 
freq.     159.59  E(vib)   ...       0.39 
freq.     191.08  E(vib)   ...       0.36 
freq.     216.18  E(vib)   ...       0.34 
freq.     257.28  E(vib)   ...       0.30 
freq.     278.28  E(vib)   ...       0.28 
freq.     321.52  E(vib)   ...       0.25 
freq.     346.42  E(vib)   ...       0.23 
freq.     391.79  E(vib)   ...       0.20 
freq.     424.77  E(vib)   ...       0.18 
freq.     445.74  E(vib)   ...       0.17 
freq.     464.89  E(vib)   ...       0.16 
freq.     525.00  E(vib)   ...       0.13 
freq.     575.38  E(vib)   ...       0.11 
freq.     610.58  E(vib)   ...       0.10 
freq.     635.62  E(vib)   ...       0.09 
freq.     709.51  E(vib)   ...       0.07 
freq.     763.08  E(vib)   ...       0.06 
freq.     807.44  E(vib)   ...       0.05 
freq.     951.39  E(vib)   ...       0.03 
freq.     994.89  E(vib)   ...       0.02 
freq.    1001.27  E(vib)   ...       0.02 
freq.    1010.00  E(vib)   ...       0.02 
freq.    1050.48  E(vib)   ...       0.02 
freq.    1066.81  E(vib)   ...       0.02 
freq.    1089.33  E(vib)   ...       0.02 
freq.    1109.29  E(vib)   ...       0.02 
freq.    1136.62  E(vib)   ...       0.01 
freq.    1167.07  E(vib)   ...       0.01 
freq.    1183.77  E(vib)   ...       0.01 
freq.    1219.98  E(vib)   ...       0.01 
freq.    1262.45  E(vib)   ...       0.01 
freq.    1285.60  E(vib)   ...       0.01 
freq.    1306.96  E(vib)   ...       0.01 
freq.    1373.98  E(vib)   ...       0.01 
freq.    1397.26  E(vib)   ...       0.00 
freq.    1414.91  E(vib)   ...       0.00 
freq.    1436.03  E(vib)   ...       0.00 
freq.    1441.50  E(vib)   ...       0.00 
freq.    1458.75  E(vib)   ...       0.00 
freq.    1476.90  E(vib)   ...       0.00 
freq.    1490.87  E(vib)   ...       0.00 
freq.    1492.26  E(vib)   ...       0.00 
freq.    1501.14  E(vib)   ...       0.00 
freq.    1508.28  E(vib)   ...       0.00 
freq.    1510.46  E(vib)   ...       0.00 
freq.    1520.06  E(vib)   ...       0.00 
freq.    1530.65  E(vib)   ...       0.00 
freq.    1539.23  E(vib)   ...       0.00 
freq.    1557.88  E(vib)   ...       0.00 
freq.    1711.41  E(vib)   ...       0.00 
freq.    1723.52  E(vib)   ...       0.00 
freq.    3036.25  E(vib)   ...       0.00 
freq.    3043.60  E(vib)   ...       0.00 
freq.    3064.30  E(vib)   ...       0.00 
freq.    3086.12  E(vib)   ...       0.00 
freq.    3091.35  E(vib)   ...       0.00 
freq.    3091.77  E(vib)   ...       0.00 
freq.    3095.40  E(vib)   ...       0.00 
freq.    3133.04  E(vib)   ...       0.00 
freq.    3164.99  E(vib)   ...       0.00 
freq.    3167.92  E(vib)   ...       0.00 
freq.    3175.21  E(vib)   ...       0.00 
freq.    3193.86  E(vib)   ...       0.00 
freq.    3196.87  E(vib)   ...       0.00 
freq.    3723.87  E(vib)   ...       0.00 

------------
INNER ENERGY
------------

The inner energy is: U= E(el) + E(ZPE) + E(vib) + E(rot) + E(trans)
    E(el)   - is the total energy from the electronic structure calculation
              = E(kin-el) + E(nuc-el) + E(el-el) + E(nuc-nuc)
    E(ZPE)  - the the zero temperature vibrational energy from the frequency calculation
    E(vib)  - the the finite temperature correction to E(ZPE) due to population
              of excited vibrational states
    E(rot)  - is the rotational thermal energy
    E(trans)- is the translational thermal energy

Summary of contributions to the inner energy U:
Electronic energy                ...   -610.05754913 Eh
Zero point energy                ...      0.22082510 Eh     138.57 kcal/mol
Thermal vibrational correction   ...      0.01126960 Eh       7.07 kcal/mol
Thermal rotational correction    ...      0.00141627 Eh       0.89 kcal/mol
Thermal translational correction ...      0.00141627 Eh       0.89 kcal/mol
-----------------------------------------------------------------------
Total thermal energy                   -609.82262189 Eh


Summary of corrections to the electronic energy:
(perhaps to be used in another calculation)
Total thermal correction                  0.01410214 Eh       8.85 kcal/mol
Non-thermal (ZPE) correction              0.22082510 Eh     138.57 kcal/mol
-----------------------------------------------------------------------
Total correction                          0.23492724 Eh     147.42 kcal/mol


--------
ENTHALPY
--------

The enthalpy is H = U + kB*T
                kB is Boltzmann's constant
Total free energy                 ...   -609.82262189 Eh 
Thermal Enthalpy correction       ...      0.00094421 Eh       0.59 kcal/mol
-----------------------------------------------------------------------
Total Enthalpy                    ...   -609.82167768 Eh


Note: Only C1 symmetry has been detected, increase convergence thresholds 
      if your molecule has a higher symmetry. Symmetry factor of 1.0 is   
      used for the rotational entropy correction. 
 

Note: Rotational entropy computed according to Herzberg 
Infrared and Raman Spectra, Chapter V,1, Van Nostrand Reinhold, 1945 
Point Group:  C1, Symmetry Number:   1  
Rotational constants in cm-1:     0.044104     0.021596     0.016983 

Vibrational entropy computed according to the QRRHO of S. Grimme
Chem.Eur.J. 2012 18 9955


-------
ENTROPY
-------

The entropy contributions are T*S = T*(S(el)+S(vib)+S(rot)+S(trans))
     S(el)   - electronic entropy
     S(vib)  - vibrational entropy
     S(rot)  - rotational entropy
     S(trans)- translational entropy
The entropies will be listed as multiplied by the temperature to get
units of energy

Electronic entropy                ...      0.00000000 Eh      0.00 kcal/mol
Vibrational entropy               ...      0.02026511 Eh     12.72 kcal/mol
Rotational entropy                ...      0.01471892 Eh      9.24 kcal/mol
Translational entropy             ...      0.01965732 Eh     12.34 kcal/mol
-----------------------------------------------------------------------
Final entropy term                ...      0.05464135 Eh     34.29 kcal/mol

In case the symmetry of your molecule has not been determined correctly
or in case you have a reason to use a different symmetry number we print 
out the resulting rotational entropy values for sn=1,12 :
 --------------------------------------------------------
|  sn= 1 | S(rot)=       0.01471892 Eh      9.24 kcal/mol|
|  sn= 2 | S(rot)=       0.01406446 Eh      8.83 kcal/mol|
|  sn= 3 | S(rot)=       0.01368163 Eh      8.59 kcal/mol|
|  sn= 4 | S(rot)=       0.01341000 Eh      8.41 kcal/mol|
|  sn= 5 | S(rot)=       0.01319932 Eh      8.28 kcal/mol|
|  sn= 6 | S(rot)=       0.01302717 Eh      8.17 kcal/mol|
|  sn= 7 | S(rot)=       0.01288163 Eh      8.08 kcal/mol|
|  sn= 8 | S(rot)=       0.01275555 Eh      8.00 kcal/mol|
|  sn= 9 | S(rot)=       0.01264434 Eh      7.93 kcal/mol|
|  sn=10 | S(rot)=       0.01254486 Eh      7.87 kcal/mol|
|  sn=11 | S(rot)=       0.01245487 Eh      7.82 kcal/mol|
|  sn=12 | S(rot)=       0.01237272 Eh      7.76 kcal/mol|
 --------------------------------------------------------


-------------------
GIBBS FREE ENERGY
-------------------

The Gibbs free energy is G = H - T*S

Total enthalpy                    ...   -609.82167768 Eh 
Total entropy correction          ...     -0.05464135 Eh    -34.29 kcal/mol
-----------------------------------------------------------------------
Final Gibbs free energy         ...   -609.87631903 Eh

For completeness - the Gibbs free energy minus the electronic energy
G-E(el)                           ...      0.18123010 Eh    113.72 kcal/mol


Timings for individual modules:

Sum of individual times         ...     1484.435 sec (=  24.741 min)
GTO integral calculation        ...       36.788 sec (=   0.613 min)   2.5 %
SCF iterations                  ...      862.559 sec (=  14.376 min)  58.1 %
SCF Gradient evaluation         ...      218.467 sec (=   3.641 min)  14.7 %
Geometry relaxation             ...        6.029 sec (=   0.100 min)   0.4 %
Analytical frequency calculation...      360.592 sec (=   6.010 min)  24.3 %
                             ****ORCA TERMINATED NORMALLY****
TOTAL RUN TIME: 0 days 0 hours 25 minutes 0 seconds 450 msec
