
                                 *****************
                                 * O   R   C   A *
                                 *****************

                                            #,                                       
                                            ###                                      
                                            ####                                     
                                            #####                                    
                                            ######                                   
                                           ########,                                 
                                     ,,################,,,,,                         
                               ,,#################################,,                 
                          ,,##########################################,,             
                       ,#########################################, ''#####,          
                    ,#############################################,,   '####,        
                  ,##################################################,,,,####,       
                ,###########''''           ''''###############################       
              ,#####''   ,,,,##########,,,,          '''####'''          '####       
            ,##' ,,,,###########################,,,                        '##       
           ' ,,###''''                  '''############,,,                           
         ,,##''                                '''############,,,,        ,,,,,,###''
      ,#''                                            '''#######################'''  
     '                                                          ''''####''''         
             ,#######,   #######,   ,#######,      ##                                
            ,#'     '#,  ##    ##  ,#'     '#,    #''#        ######   ,####,        
            ##       ##  ##   ,#'  ##            #'  '#       #        #'  '#        
            ##       ##  #######   ##           ,######,      #####,   #    #        
            '#,     ,#'  ##    ##  '#,     ,#' ,#      #,         ##   #,  ,#        
             '#######'   ##     ##  '#######'  #'      '#     #####' # '####'        



                  #######################################################
                  #                        -***-                        #
                  #          Department of theory and spectroscopy      #
                  #    Directorship and core code : Frank Neese         #
                  #        Max Planck Institute fuer Kohlenforschung    #
                  #                Kaiser Wilhelm Platz 1               #
                  #                 D-45470 Muelheim/Ruhr               #
                  #                      Germany                        #
                  #                                                     #
                  #                  All rights reserved                #
                  #                        -***-                        #
                  #######################################################


                         Program Version 5.0.4 -  RELEASE  -


 With contributions from (in alphabetic order):
   Daniel Aravena         : Magnetic Suceptibility
   Michael Atanasov       : Ab Initio Ligand Field Theory (pilot matlab implementation)
   Alexander A. Auer      : GIAO ZORA, VPT2 properties, NMR spectrum
   Ute Becker             : Parallelization
   Giovanni Bistoni       : ED, misc. LED, open-shell LED, HFLD
   Martin Brehm           : Molecular dynamics
   Dmytro Bykov           : SCF Hessian
   Vijay G. Chilkuri      : MRCI spin determinant printing, contributions to CSF-ICE
   Dipayan Datta          : RHF DLPNO-CCSD density
   Achintya Kumar Dutta   : EOM-CC, STEOM-CC
   Dmitry Ganyushin       : Spin-Orbit,Spin-Spin,Magnetic field MRCI
   Miquel Garcia          : C-PCM and meta-GGA Hessian, CC/C-PCM, Gaussian charge scheme
   Yang Guo               : DLPNO-NEVPT2, F12-NEVPT2, CIM, IAO-localization
   Andreas Hansen         : Spin unrestricted coupled pair/coupled cluster methods
   Benjamin Helmich-Paris : MC-RPA, TRAH-SCF, COSX integrals
   Lee Huntington         : MR-EOM, pCC
   Robert Izsak           : Overlap fitted RIJCOSX, COSX-SCS-MP3, EOM
   Marcus Kettner         : VPT2
   Christian Kollmar      : KDIIS, OOCD, Brueckner-CCSD(T), CCSD density, CASPT2, CASPT2-K
   Simone Kossmann        : Meta GGA functionals, TD-DFT gradient, OOMP2, MP2 Hessian
   Martin Krupicka        : Initial AUTO-CI
   Lucas Lang             : DCDCAS
   Marvin Lechner         : AUTO-CI (C++ implementation), FIC-MRCC
   Dagmar Lenk            : GEPOL surface, SMD
   Dimitrios Liakos       : Extrapolation schemes; Compound Job, initial MDCI parallelization
   Dimitrios Manganas     : Further ROCIS development; embedding schemes
   Dimitrios Pantazis     : SARC Basis sets
   Anastasios Papadopoulos: AUTO-CI, single reference methods and gradients
   Taras Petrenko         : DFT Hessian,TD-DFT gradient, ASA, ECA, R-Raman, ABS, FL, XAS/XES, NRVS
   Peter Pinski           : DLPNO-MP2, DLPNO-MP2 Gradient
   Christoph Reimann      : Effective Core Potentials
   Marius Retegan         : Local ZFS, SOC
   Christoph Riplinger    : Optimizer, TS searches, QM/MM, DLPNO-CCSD(T), (RO)-DLPNO pert. Triples
   Tobias Risthaus        : Range-separated hybrids, TD-DFT gradient, RPA, STAB
   Michael Roemelt        : Original ROCIS implementation
   Masaaki Saitow         : Open-shell DLPNO-CCSD energy and density
   Barbara Sandhoefer     : DKH picture change effects
   Avijit Sen             : IP-ROCIS
   Kantharuban Sivalingam : CASSCF convergence, NEVPT2, FIC-MRCI
   Bernardo de Souza      : ESD, SOC TD-DFT
   Georgi Stoychev        : AutoAux, RI-MP2 NMR, DLPNO-MP2 response
   Willem Van den Heuvel  : Paramagnetic NMR
   Boris Wezisla          : Elementary symmetry handling
   Frank Wennmohs         : Technical directorship


 We gratefully acknowledge several colleagues who have allowed us to
 interface, adapt or use parts of their codes:
   Stefan Grimme, W. Hujo, H. Kruse, P. Pracht,  : VdW corrections, initial TS optimization,
                  C. Bannwarth, S. Ehlert          DFT functionals, gCP, sTDA/sTD-DF
   Ed Valeev, F. Pavosevic, A. Kumar             : LibInt (2-el integral package), F12 methods
   Garnet Chan, S. Sharma, J. Yang, R. Olivares  : DMRG
   Ulf Ekstrom                                   : XCFun DFT Library
   Mihaly Kallay                                 : mrcc  (arbitrary order and MRCC methods)
   Jiri Pittner, Ondrej Demel                    : Mk-CCSD
   Frank Weinhold                                : gennbo (NPA and NBO analysis)
   Christopher J. Cramer and Donald G. Truhlar   : smd solvation model
   Lars Goerigk                                  : TD-DFT with DH, B97 family of functionals
   V. Asgeirsson, H. Jonsson                     : NEB implementation
   FAccTs GmbH                                   : IRC, NEB, NEB-TS, DLPNO-Multilevel, CI-OPT
                                                   MM, QMMM, 2- and 3-layer-ONIOM, Crystal-QMMM,
                                                   LR-CPCM, SF, NACMEs, symmetry and pop. for TD-DFT,
                                                   nearIR, NL-DFT gradient (VV10), updates on ESD,
                                                   ML-optimized integration grids
   S Lehtola, MJT Oliveira, MAL Marques          : LibXC Library
   Liviu Ungur et al                             : ANISO software


 Your calculation uses the libint2 library for the computation of 2-el integrals
 For citations please refer to: http://libint.valeyev.net

 Your ORCA version has been built with support for libXC version: 5.1.0
 For citations please refer to: https://tddft.org/programs/libxc/

 This ORCA versions uses:
   CBLAS   interface :  Fast vector & matrix operations
   LAPACKE interface :  Fast linear algebra routines
   SCALAPACK package :  Parallel linear algebra routines
   Shared memory     :  Shared parallel matrices
   BLAS/LAPACK       :  OpenBLAS 0.3.15  USE64BITINT DYNAMIC_ARCH NO_AFFINITY SkylakeX SINGLE_THREADED
        Core in use  :  SkylakeX
   Copyright (c) 2011-2014, The OpenBLAS Project




***************************************
The coordinates will be read from file: /users/fjb15167/WWenergy/structures/Nv.xyz
***************************************


Your calculation utilizes the atom-pairwise dispersion correction
based on tight binding partial charges (D4)
Cite in your paper:
E.Caldeweyher, C.Bannwarth, S.Grimme, J.Chem.Phys., (2017), 147, 034112.
E.Caldeweyher, S.Ehlert, A.Hansen, H.Neugebauer, S.Grimme, J.Chem.Phys., (2018), in progress.
   

================================================================================

----- Orbital basis set information -----
Your calculation utilizes the basis: 6-31G(d)
   H-He, Li-Ne : W. J. Hehre, R. Ditchfield and J.A. Pople, J. Chem. Phys. 56, 2257 (1972).
                 Note: He and Ne are unpublished basis sets taken from the Gaussian program.
                 Note: Li and B from J. D. Dill and J. A. Pople, J. Chem. Phys. 62, 2921 (1975).
   Na - Ar     : M. M. Francl, W. J. Pietro, W. J. Hehre, J. S. Binkley, M. S. Gordon, 
                 D. J. DeFrees and J. A. Pople, J. Chem. Phys. 77, 3654 (1982).
   K - Zn      : V. A. Rassolov, J. A. Pople, M. A. Ratner, and T. L. Windus, J. Chem. Phys. 109, 1223 (1998).

----- AuxJ basis set information -----
Your calculation utilizes the AutoAux generation procedure.
  G. L. Stoychev, A. A. Auer, F. Neese, J. Chem. Theory Comput. 13, 554 (2017)

----- AuxC basis set information -----
Your calculation utilizes the AutoAux generation procedure.
  G. L. Stoychev, A. A. Auer, F. Neese, J. Chem. Theory Comput. 13, 554 (2017)

----- AuxJK basis set information -----
Your calculation utilizes the AutoAux generation procedure.
  G. L. Stoychev, A. A. Auer, F. Neese, J. Chem. Theory Comput. 13, 554 (2017)

================================================================================
                                        WARNINGS
                       Please study these warnings very carefully!
================================================================================


WARNING: Geometry Optimization
  ===> : Switching off AutoStart
         For restart on a previous wavefunction, please use MOREAD

INFO   : the flag for use of the SHARK integral package has been found!

================================================================================
                                       INPUT FILE
================================================================================
NAME = Nv_octanol.inp
|  1> ! OPT FREQ B3LYP 6-31G(d) D4 AUTOAUX
|  2> ! CPCM
|  3> 
|  4> %cpcm
|  5> epsilon 9.8629 
|  6> refrac  1.4295 
|  7> end
|  8> 
|  9> %PAL NPROCS 4 END
| 10> 
| 11> %maxcore 3375
| 12> 
| 13> *xyzfile 0 1 /users/fjb15167/WWenergy/structures/Nv.xyz
| 14> 
| 15>                          ****END OF INPUT****
================================================================================

                       *****************************
                       * Geometry Optimization Run *
                       *****************************

Geometry optimization settings:
Update method            Update   .... BFGS
Choice of coordinates    CoordSys .... Z-matrix Internals
Initial Hessian          InHess   .... Almoef's Model

Convergence Tolerances:
Energy Change            TolE     ....  5.0000e-06 Eh
Max. Gradient            TolMAXG  ....  3.0000e-04 Eh/bohr
RMS Gradient             TolRMSG  ....  1.0000e-04 Eh/bohr
Max. Displacement        TolMAXD  ....  4.0000e-03 bohr
RMS Displacement         TolRMSD  ....  2.0000e-03 bohr
Strict Convergence                ....  False
------------------------------------------------------------------------------
                        ORCA OPTIMIZATION COORDINATE SETUP
------------------------------------------------------------------------------

The optimization will be done in new redundant internal coordinates
Making redundant internal coordinates   ...  (new redundants) done
Evaluating the initial hessian          ...  (Almloef) done
Evaluating the coordinates              ...  done
Calculating the B-matrix                .... done
Calculating the G-matrix                .... done
Diagonalizing the G-matrix              .... done
Small eigenvalue found = 6.405e-03
Small eigenvalue found = 9.445e-03
Small eigenvalue found = 1.428e-02
Small eigenvalue found = 1.953e-02
The first mode is                       ....   59
The number of degrees of freedom        ....   87

    -----------------------------------------------------------------
                    Redundant Internal Coordinates


    -----------------------------------------------------------------
         Definition                    Initial Value    Approx d2E/dq
    -----------------------------------------------------------------
      1. B(H   1,C   0)                  1.0885         0.362147   
      2. B(H   2,C   0)                  1.0929         0.356272   
      3. B(H   3,C   0)                  1.0900         0.360095   
      4. B(C   4,C   0)                  1.5148         0.395052   
      5. B(O   5,C   4)                  1.2409         0.967786   
      6. B(N   6,C   4)                  1.3746         0.592244   
      7. B(C   7,N   6)                  1.4656         0.423921   
      8. B(H   8,C   7)                  1.0951         0.353436   
      9. B(H   9,C   7)                  1.0897         0.360486   
     10. B(C  10,C   7)                  1.5256         0.379720   
     11. B(N  11,C  10)                  1.3664         0.610349   
     12. B(O  12,C  10)                  1.2409         0.967714   
     13. B(C  13,N  11)                  1.4535         0.443111   
     14. B(H  14,C  13)                  1.0978         0.349923   
     15. B(H  15,C  13)                  1.0956         0.352814   
     16. B(H  16,C  13)                  1.0878         0.362970   
     17. B(C  17,N  11)                  1.4548         0.441003   
     18. B(H  18,C  17)                  1.0962         0.352018   
     19. B(H  19,C  17)                  1.0878         0.363005   
     20. B(H  20,C  17)                  1.0952         0.353285   
     21. B(C  21,N   6)                  1.4805         0.401314   
     22. B(C  22,C  21)                  1.5279         0.376425   
     23. B(C  23,C  21)                  1.5286         0.375555   
     24. B(H  24,C  21)                  1.0941         0.354696   
     25. B(H  25,C  22)                  1.0933         0.355794   
     26. B(H  26,C  22)                  1.0945         0.354142   
     27. B(H  27,C  22)                  1.0903         0.359757   
     28. B(H  28,C  23)                  1.0928         0.356465   
     29. B(H  29,C  23)                  1.0924         0.356920   
     30. B(H  30,C  23)                  1.0947         0.353964   
     31. A(H   1,C   0,H   2)          108.6095         0.290610   
     32. A(H   1,C   0,H   3)          109.6067         0.291098   
     33. A(H   3,C   0,C   4)          106.5864         0.327314   
     34. A(H   2,C   0,H   3)          108.2173         0.290351   
     35. A(H   2,C   0,C   4)          109.7057         0.326739   
     36. A(H   1,C   0,C   4)          113.9672         0.327621   
     37. A(O   5,C   4,N   6)          121.5562         0.460530   
     38. A(C   0,C   4,O   5)          118.9816         0.430808   
     39. A(C   0,C   4,N   6)          119.4553         0.394850   
     40. A(C   7,N   6,C  21)          114.3312         0.371227   
     41. A(C   4,N   6,C  21)          128.1770         0.393415   
     42. A(C   4,N   6,C   7)          117.3427         0.397215   
     43. A(H   8,C   7,C  10)          105.3690         0.324193   
     44. A(N   6,C   7,C  10)          111.4336         0.370028   
     45. A(H   8,C   7,H   9)          108.8219         0.290037   
     46. A(N   6,C   7,H   9)          108.0019         0.329216   
     47. A(N   6,C   7,H   8)          109.7288         0.328144   
     48. A(H   9,C   7,C  10)          113.4160         0.325247   
     49. A(N  11,C  10,O  12)          122.7089         0.463065   
     50. A(C   7,C  10,O  12)          119.2791         0.427753   
     51. A(C   7,C  10,N  11)          117.9967         0.394195   
     52. A(C  13,N  11,C  17)          115.4292         0.380220   
     53. A(C  10,N  11,C  17)          118.6452         0.402110   
     54. A(C  10,N  11,C  13)          125.5133         0.402448   
     55. A(H  15,C  13,H  16)          108.7288         0.290269   
     56. A(H  14,C  13,H  16)          108.6040         0.289895   
     57. A(N  11,C  13,H  16)          111.9503         0.332012   
     58. A(H  14,C  13,H  15)          108.1331         0.288608   
     59. A(N  11,C  13,H  15)          108.9330         0.330456   
     60. A(N  11,C  13,H  14)          110.4027         0.330007   
     61. A(H  18,C  17,H  19)          109.6873         0.290171   
     62. A(N  11,C  17,H  19)          108.3878         0.331755   
     63. A(N  11,C  17,H  18)          110.4744         0.330072   
     64. A(H  19,C  17,H  20)          110.0309         0.290334   
     65. A(H  18,C  17,H  20)          108.6270         0.288939   
     66. A(N  11,C  17,H  20)          109.6284         0.330269   
     67. A(C  23,C  21,H  24)          106.1468         0.323796   
     68. A(C  22,C  21,H  24)          106.4274         0.323919   
     69. A(N   6,C  21,H  24)          103.0689         0.325386   
     70. A(C  22,C  21,C  23)          113.3359         0.364153   
     71. A(N   6,C  21,C  23)          112.5051         0.365872   
     72. A(N   6,C  21,C  22)          114.2560         0.366017   
     73. A(H  26,C  22,H  27)          107.4990         0.290035   
     74. A(H  25,C  22,H  27)          108.8476         0.290247   
     75. A(C  21,C  22,H  27)          112.9632         0.324673   
     76. A(H  25,C  22,H  26)          108.0801         0.289532   
     77. A(C  21,C  22,H  26)          108.7452         0.323836   
     78. A(C  21,C  22,H  25)          110.5491         0.324083   
     79. A(H  29,C  23,H  30)          107.8101         0.289652   
     80. A(H  28,C  23,H  30)          108.3018         0.289595   
     81. A(C  21,C  23,H  30)          109.5623         0.323686   
     82. A(H  28,C  23,H  29)          108.5685         0.289972   
     83. A(C  21,C  23,H  29)          112.3581         0.324128   
     84. A(C  21,C  23,H  28)          110.1301         0.324060   
     85. D(N   6,C   4,C   0,H   1)     36.8666         0.011596   
     86. D(N   6,C   4,C   0,H   3)    157.9026         0.011596   
     87. D(N   6,C   4,C   0,H   2)    -85.1504         0.011596   
     88. D(O   5,C   4,C   0,H   1)   -144.0682         0.011596   
     89. D(O   5,C   4,C   0,H   3)    -23.0322         0.011596   
     90. D(O   5,C   4,C   0,H   2)     93.9148         0.011596   
     91. D(C   7,N   6,C   4,O   5)     -3.1816         0.028211   
     92. D(C   7,N   6,C   4,C   0)    175.8588         0.028211   
     93. D(C  21,N   6,C   4,O   5)   -178.4583         0.028211   
     94. D(C  21,N   6,C   4,C   0)      0.5820         0.028211   
     95. D(C  10,C   7,N   6,C   4)    125.7005         0.015322   
     96. D(H   8,C   7,N   6,C  21)     57.9392         0.015322   
     97. D(H   9,C   7,N   6,C   4)      0.4976         0.015322   
     98. D(H   9,C   7,N   6,C  21)    176.4239         0.015322   
     99. D(H   8,C   7,N   6,C   4)   -117.9871         0.015322   
    100. D(C  10,C   7,N   6,C  21)    -58.3732         0.015322   
    101. D(O  12,C  10,C   7,H   9)   -133.7127         0.010760   
    102. D(O  12,C  10,C   7,H   8)    -14.7882         0.010760   
    103. D(O  12,C  10,C   7,N   6)    104.1590         0.010760   
    104. D(N  11,C  10,C   7,H   8)    166.5947         0.010760   
    105. D(N  11,C  10,C   7,N   6)    -74.4582         0.010760   
    106. D(N  11,C  10,C   7,H   9)     47.6701         0.010760   
    107. D(C  17,N  11,C  10,C   7)    175.8274         0.030093   
    108. D(C  13,N  11,C  10,O  12)   -175.0111         0.030093   
    109. D(C  13,N  11,C  10,C   7)      3.5554         0.030093   
    110. D(C  17,N  11,C  10,O  12)     -2.7391         0.030093   
    111. D(H  16,C  13,N  11,C  10)    -13.9136         0.016744   
    112. D(H  15,C  13,N  11,C  10)   -134.1938         0.016744   
    113. D(H  14,C  13,N  11,C  17)    -65.2817         0.016744   
    114. D(H  15,C  13,N  11,C  17)     53.3146         0.016744   
    115. D(H  14,C  13,N  11,C  10)    107.2099         0.016744   
    116. D(H  16,C  13,N  11,C  17)    173.5948         0.016744   
    117. D(H  20,C  17,N  11,C  13)    -57.9027         0.016584   
    118. D(H  20,C  17,N  11,C  10)    129.0586         0.016584   
    119. D(H  19,C  17,N  11,C  13)   -178.0205         0.016584   
    120. D(H  19,C  17,N  11,C  10)      8.9408         0.016584   
    121. D(H  18,C  17,N  11,C  13)     61.7763         0.016584   
    122. D(H  18,C  17,N  11,C  10)   -111.2625         0.016584   
    123. D(H  24,C  21,N   6,C   7)     -5.9743         0.013749   
    124. D(H  24,C  21,N   6,C   4)    169.4215         0.013749   
    125. D(C  23,C  21,N   6,C   7)    107.9298         0.013749   
    126. D(C  23,C  21,N   6,C   4)    -76.6745         0.013749   
    127. D(C  22,C  21,N   6,C   7)   -121.0003         0.013749   
    128. D(C  22,C  21,N   6,C   4)     54.3955         0.013749   
    129. D(H  27,C  22,C  21,H  24)    169.7608         0.011305   
    130. D(H  27,C  22,C  21,C  23)     53.4678         0.011305   
    131. D(H  27,C  22,C  21,N   6)    -77.1961         0.011305   
    132. D(H  26,C  22,C  21,H  24)     50.5087         0.011305   
    133. D(H  26,C  22,C  21,C  23)    -65.7842         0.011305   
    134. D(H  26,C  22,C  21,N   6)    163.5519         0.011305   
    135. D(H  25,C  22,C  21,H  24)    -67.9948         0.011305   
    136. D(H  25,C  22,C  21,C  23)    175.7122         0.011305   
    137. D(H  25,C  22,C  21,N   6)     45.0484         0.011305   
    138. D(H  30,C  23,C  21,H  24)    -59.0568         0.011255   
    139. D(H  30,C  23,C  21,C  22)     57.4014         0.011255   
    140. D(H  30,C  23,C  21,N   6)   -171.0668         0.011255   
    141. D(H  29,C  23,C  21,H  24)   -178.8680         0.011255   
    142. D(H  29,C  23,C  21,C  22)    -62.4097         0.011255   
    143. D(H  29,C  23,C  21,N   6)     69.1220         0.011255   
    144. D(H  28,C  23,C  21,H  24)     59.9680         0.011255   
    145. D(H  28,C  23,C  21,C  22)    176.4262         0.011255   
    146. D(H  28,C  23,C  21,N   6)    -52.0420         0.011255   
    -----------------------------------------------------------------

Number of atoms                         .... 31
Number of degrees of freedom            .... 146

         *************************************************************
         *                GEOMETRY OPTIMIZATION CYCLE   1            *
         *************************************************************
---------------------------------
CARTESIAN COORDINATES (ANGSTROEM)
---------------------------------
  C     -2.780000    1.154000    0.718000
  H     -2.687000    0.462000    1.553000
  H     -3.657000    0.874000    0.129000
  H     -2.932000    2.165000    1.096000
  C     -1.559000    1.206000   -0.177000
  O     -1.228000    2.291000   -0.680000
  N     -0.856000    0.052000   -0.429000
  C      0.261000    0.137000   -1.374000
  H      0.065000   -0.508000   -2.237000
  H      0.335000    1.169000   -1.716000
  C      1.553000   -0.392000   -0.759000
  N      2.189000    0.387000    0.166000
  O      1.970000   -1.512000   -1.093000
  C      1.703000    1.658000    0.677000
  H      1.349000    1.545000    1.710000
  H      2.527000    2.380000    0.676000
  H      0.890000    2.055000    0.073000
  C      3.371000   -0.142000    0.829000
  H      3.163000   -0.334000    1.888000
  H      3.654000   -1.070000    0.337000
  H      4.188000    0.584000    0.759000
  C     -1.136000   -1.316000    0.063000
  C     -2.549000   -1.814000   -0.237000
  C     -0.723000   -1.509000    1.522000
  H     -0.457000   -1.936000   -0.530000
  H     -2.825000   -1.586000   -1.270000
  H     -2.573000   -2.901000   -0.111000
  H     -3.300000   -1.390000    0.430000
  H      0.314000   -1.195000    1.664000
  H     -1.355000   -0.944000    2.211000
  H     -0.801000   -2.568000    1.788000

----------------------------
CARTESIAN COORDINATES (A.U.)
----------------------------
  NO LB      ZA    FRAG     MASS         X           Y           Z
   0 C     6.0000    0    12.011   -5.253439    2.180744    1.356823
   1 H     1.0000    0     1.008   -5.077694    0.873053    2.934745
   2 H     1.0000    0     1.008   -6.910728    1.651621    0.243775
   3 H     1.0000    0     1.008   -5.540677    4.091257    2.071140
   4 C     6.0000    0    12.011   -2.946083    2.279010   -0.334482
   5 O     8.0000    0    15.999   -2.320584    4.329363   -1.285014
   6 N     7.0000    0    14.007   -1.617606    0.098266   -0.810693
   7 C     6.0000    0    12.011    0.493219    0.258892   -2.596484
   8 H     1.0000    0     1.008    0.122832   -0.959981   -4.227317
   9 H     1.0000    0     1.008    0.633058    2.209090   -3.242770
  10 C     6.0000    0    12.011    2.934745   -0.740773   -1.434302
  11 N     7.0000    0    14.007    4.136611    0.731324    0.313695
  12 O     8.0000    0    15.999    3.722760   -2.857266   -2.065471
  13 C     6.0000    0    12.011    3.218204    3.133166    1.279345
  14 H     1.0000    0     1.008    2.549241    2.919627    3.231432
  15 H     1.0000    0     1.008    4.775338    4.497548    1.277455
  16 H     1.0000    0     1.008    1.681856    3.883387    0.137950
  17 C     6.0000    0    12.011    6.370267   -0.268341    1.566583
  18 H     1.0000    0     1.008    5.977204   -0.631169    3.567803
  19 H     1.0000    0     1.008    6.905059   -2.022007    0.636838
  20 H     1.0000    0     1.008    7.914173    1.103600    1.434302
  21 C     6.0000    0    12.011   -2.146729   -2.486880    0.119053
  22 C     6.0000    0    12.011   -4.816912   -3.427963   -0.447865
  23 C     6.0000    0    12.011   -1.366272   -2.851597    2.876163
  24 H     1.0000    0     1.008   -0.863605   -3.658510   -1.001555
  25 H     1.0000    0     1.008   -5.338476   -2.997106   -2.399952
  26 H     1.0000    0     1.008   -4.862265   -5.482096   -0.209760
  27 H     1.0000    0     1.008   -6.236096   -2.626719    0.812582
  28 H     1.0000    0     1.008    0.593374   -2.258223    3.144504
  29 H     1.0000    0     1.008   -2.560579   -1.783901    4.178184
  30 H     1.0000    0     1.008   -1.513671   -4.852817    3.378830

--------------------------------
INTERNAL COORDINATES (ANGSTROEM)
--------------------------------
 C      0   0   0     0.000000000000     0.00000000     0.00000000
 H      1   0   0     1.088456705616     0.00000000     0.00000000
 H      1   2   0     1.092908962357   108.60950750     0.00000000
 H      1   2   3     1.090004128433   109.60670415   118.04192813
 C      1   2   3     1.514783812958   113.96721980   237.38103934
 O      5   1   2     1.240884764996   118.98162988   215.93176058
 N      5   1   2     1.374565022107   119.45530467    36.86656155
 C      7   5   1     1.465584866188   117.34265140   175.85878079
 H      8   7   5     1.095084471628   109.72884367   242.01292889
 H      8   7   5     1.089708217827   108.00186191     0.49760453
 C      8   7   5     1.525558913972   111.43356432   125.70049140
 N     11   8   7     1.366368178786   117.99670614   285.54184488
 O     11   8   7     1.240904911748   119.27907531   104.15902273
 C     12  11   8     1.453532937363   125.51333985     3.55538779
 H     14  12  11     1.097804171972   110.40266225   107.20991479
 H     14  12  11     1.095564238190   108.93302747   225.80620153
 H     14  12  11     1.087839142521   111.95034826   346.08641503
 C     12  11   8     1.454831261693   118.64516594   175.82739310
 H     18  12  11     1.096179273659   110.47444589   248.73754853
 H     18  12  11     1.087812943479   108.38782139     8.94078399
 H     18  12  11     1.095200894813   109.62840635   129.05858938
 C      7   5   1     1.480502617357   128.17699514     0.58201274
 C     22   7   5     1.527930953937   114.25595920    54.39545223
 C     22   7   5     1.528561088083   112.50505850   283.32551390
 H     22   7   5     1.094116081593   103.06894264   169.42148999
 H     23  22   7     1.093274439471   110.54910725    45.04835570
 H     23  22   7     1.094541456501   108.74521905   163.55186968
 H     23  22   7     1.090259602113   112.96319739   282.80393457
 H     24  22   7     1.092762096707   110.13009268   307.95797950
 H     24  22   7     1.092414756400   112.35807032    69.12200954
 H     24  22   7     1.094678491613   109.56226139   188.93317097

---------------------------
INTERNAL COORDINATES (A.U.)
---------------------------
 C      0   0   0     0.000000000000     0.00000000     0.00000000
 H      1   0   0     2.056885082244     0.00000000     0.00000000
 H      1   2   0     2.065298628163   108.60950750     0.00000000
 H      1   2   3     2.059809287581   109.60670415   118.04192813
 C      1   2   3     2.862526558588   113.96721980   237.38103934
 O      5   1   2     2.344932369598   118.98162988   215.93176058
 N      5   1   2     2.597551445050   119.45530467    36.86656155
 C      7   5   1     2.769554023115   117.34265140   175.85878079
 H      8   7   5     2.069409744886   109.72884367   242.01292889
 H      8   7   5     2.059250097577   108.00186191     0.49760453
 C      8   7   5     2.882888548570   111.43356432   125.70049140
 N     11   8   7     2.582061656011   117.99670614   285.54184488
 O     11   8   7     2.344970441441   119.27907531   104.15902273
 C     12  11   8     2.746779178251   125.51333985     3.55538779
 H     14  12  11     2.074549233704   110.40266225   107.20991479
 H     14  12  11     2.070316372296   108.93302747   225.80620153
 H     14  12  11     2.055718057124   111.95034826   346.08641503
 C     12  11   8     2.749232655667   118.64516594   175.82739310
 H     18  12  11     2.071478620897   110.47444589   248.73754853
 H     18  12  11     2.055668548110   108.38782139     8.94078399
 H     18  12  11     2.069629752823   109.62840635   129.05858938
 C      7   5   1     2.797744487358   128.17699514     0.58201274
 C     22   7   5     2.887371054483   114.25595920    54.39545223
 C     22   7   5     2.888561835445   112.50505850   283.32551390
 H     22   7   5     2.067579752929   103.06894264   169.42148999
 H     23  22   7     2.065989279816   110.54910725    45.04835570
 H     23  22   7     2.068383595011   108.74521905   163.55186968
 H     23  22   7     2.060292062872   112.96319739   282.80393457
 H     24  22   7     2.065021092306   110.13009268   307.95797950
 H     24  22   7     2.064364714250   112.35807032    69.12200954
 H     24  22   7     2.068642553842   109.56226139   188.93317097

---------------------
BASIS SET INFORMATION
---------------------
There are 4 groups of distinct atoms

 Group   1 Type C   : 10s4p1d contracted to 3s2p1d pattern {631/31/1}
 Group   2 Type H   : 4s contracted to 2s pattern {31}
 Group   3 Type O   : 10s4p1d contracted to 3s2p1d pattern {631/31/1}
 Group   4 Type N   : 10s4p1d contracted to 3s2p1d pattern {631/31/1}

Atom   0C    basis set group =>   1
Atom   1H    basis set group =>   2
Atom   2H    basis set group =>   2
Atom   3H    basis set group =>   2
Atom   4C    basis set group =>   1
Atom   5O    basis set group =>   3
Atom   6N    basis set group =>   4
Atom   7C    basis set group =>   1
Atom   8H    basis set group =>   2
Atom   9H    basis set group =>   2
Atom  10C    basis set group =>   1
Atom  11N    basis set group =>   4
Atom  12O    basis set group =>   3
Atom  13C    basis set group =>   1
Atom  14H    basis set group =>   2
Atom  15H    basis set group =>   2
Atom  16H    basis set group =>   2
Atom  17C    basis set group =>   1
Atom  18H    basis set group =>   2
Atom  19H    basis set group =>   2
Atom  20H    basis set group =>   2
Atom  21C    basis set group =>   1
Atom  22C    basis set group =>   1
Atom  23C    basis set group =>   1
Atom  24H    basis set group =>   2
Atom  25H    basis set group =>   2
Atom  26H    basis set group =>   2
Atom  27H    basis set group =>   2
Atom  28H    basis set group =>   2
Atom  29H    basis set group =>   2
Atom  30H    basis set group =>   2
---------------------------------
AUXILIARY/J BASIS SET INFORMATION
---------------------------------
There are 4 groups of distinct atoms

 Group   1 Type C   : 13s11p10d2f contracted to 13s11p10d2f pattern {1111111111111/11111111111/1111111111/11}
 Group   2 Type H   : 9s2p contracted to 9s2p pattern {111111111/11}
 Group   3 Type O   : 14s11p10d2f contracted to 14s11p10d2f pattern {11111111111111/11111111111/1111111111/11}
 Group   4 Type N   : 14s11p10d2f contracted to 14s11p10d2f pattern {11111111111111/11111111111/1111111111/11}

Atom   0C    basis set group =>   1
Atom   1H    basis set group =>   2
Atom   2H    basis set group =>   2
Atom   3H    basis set group =>   2
Atom   4C    basis set group =>   1
Atom   5O    basis set group =>   3
Atom   6N    basis set group =>   4
Atom   7C    basis set group =>   1
Atom   8H    basis set group =>   2
Atom   9H    basis set group =>   2
Atom  10C    basis set group =>   1
Atom  11N    basis set group =>   4
Atom  12O    basis set group =>   3
Atom  13C    basis set group =>   1
Atom  14H    basis set group =>   2
Atom  15H    basis set group =>   2
Atom  16H    basis set group =>   2
Atom  17C    basis set group =>   1
Atom  18H    basis set group =>   2
Atom  19H    basis set group =>   2
Atom  20H    basis set group =>   2
Atom  21C    basis set group =>   1
Atom  22C    basis set group =>   1
Atom  23C    basis set group =>   1
Atom  24H    basis set group =>   2
Atom  25H    basis set group =>   2
Atom  26H    basis set group =>   2
Atom  27H    basis set group =>   2
Atom  28H    basis set group =>   2
Atom  29H    basis set group =>   2
Atom  30H    basis set group =>   2
---------------------------------
AUXILIARY/C BASIS SET INFORMATION
---------------------------------
There are 4 groups of distinct atoms

 Group   1 Type C   : 13s11p10d2f contracted to 13s11p10d2f pattern {1111111111111/11111111111/1111111111/11}
 Group   2 Type H   : 9s2p contracted to 9s2p pattern {111111111/11}
 Group   3 Type O   : 14s11p10d2f contracted to 14s11p10d2f pattern {11111111111111/11111111111/1111111111/11}
 Group   4 Type N   : 14s11p10d2f contracted to 14s11p10d2f pattern {11111111111111/11111111111/1111111111/11}

Atom   0C    basis set group =>   1
Atom   1H    basis set group =>   2
Atom   2H    basis set group =>   2
Atom   3H    basis set group =>   2
Atom   4C    basis set group =>   1
Atom   5O    basis set group =>   3
Atom   6N    basis set group =>   4
Atom   7C    basis set group =>   1
Atom   8H    basis set group =>   2
Atom   9H    basis set group =>   2
Atom  10C    basis set group =>   1
Atom  11N    basis set group =>   4
Atom  12O    basis set group =>   3
Atom  13C    basis set group =>   1
Atom  14H    basis set group =>   2
Atom  15H    basis set group =>   2
Atom  16H    basis set group =>   2
Atom  17C    basis set group =>   1
Atom  18H    basis set group =>   2
Atom  19H    basis set group =>   2
Atom  20H    basis set group =>   2
Atom  21C    basis set group =>   1
Atom  22C    basis set group =>   1
Atom  23C    basis set group =>   1
Atom  24H    basis set group =>   2
Atom  25H    basis set group =>   2
Atom  26H    basis set group =>   2
Atom  27H    basis set group =>   2
Atom  28H    basis set group =>   2
Atom  29H    basis set group =>   2
Atom  30H    basis set group =>   2
----------------------------------
AUXILIARY/JK BASIS SET INFORMATION
----------------------------------
There are 4 groups of distinct atoms

 Group   1 Type C   : 13s11p10d2f contracted to 13s11p10d2f pattern {1111111111111/11111111111/1111111111/11}
 Group   2 Type H   : 9s2p contracted to 9s2p pattern {111111111/11}
 Group   3 Type O   : 14s11p10d2f contracted to 14s11p10d2f pattern {11111111111111/11111111111/1111111111/11}
 Group   4 Type N   : 14s11p10d2f contracted to 14s11p10d2f pattern {11111111111111/11111111111/1111111111/11}

Atom   0C    basis set group =>   1
Atom   1H    basis set group =>   2
Atom   2H    basis set group =>   2
Atom   3H    basis set group =>   2
Atom   4C    basis set group =>   1
Atom   5O    basis set group =>   3
Atom   6N    basis set group =>   4
Atom   7C    basis set group =>   1
Atom   8H    basis set group =>   2
Atom   9H    basis set group =>   2
Atom  10C    basis set group =>   1
Atom  11N    basis set group =>   4
Atom  12O    basis set group =>   3
Atom  13C    basis set group =>   1
Atom  14H    basis set group =>   2
Atom  15H    basis set group =>   2
Atom  16H    basis set group =>   2
Atom  17C    basis set group =>   1
Atom  18H    basis set group =>   2
Atom  19H    basis set group =>   2
Atom  20H    basis set group =>   2
Atom  21C    basis set group =>   1
Atom  22C    basis set group =>   1
Atom  23C    basis set group =>   1
Atom  24H    basis set group =>   2
Atom  25H    basis set group =>   2
Atom  26H    basis set group =>   2
Atom  27H    basis set group =>   2
Atom  28H    basis set group =>   2
Atom  29H    basis set group =>   2
Atom  30H    basis set group =>   2


           ************************************************************
           *        Program running with 4 parallel MPI-processes     *
           *              working on a common directory               *
           ************************************************************
------------------------------------------------------------------------------
                           ORCA GTO INTEGRAL CALCULATION
                           -- RI-GTO INTEGRALS CHOSEN --
------------------------------------------------------------------------------
------------------------------------------------------------------------------
                   ___                                                        
                  /   \      - P O W E R E D   B Y -                         
                 /     \                                                     
                 |  |  |   _    _      __       _____    __    __             
                 |  |  |  | |  | |    /  \     |  _  \  |  |  /  |          
                  \  \/   | |  | |   /    \    | | | |  |  | /  /          
                 / \  \   | |__| |  /  /\  \   | |_| |  |  |/  /          
                |  |  |   |  __  | /  /__\  \  |    /   |      \           
                |  |  |   | |  | | |   __   |  |    \   |  |\   \          
                \     /   | |  | | |  |  |  |  | |\  \  |  | \   \       
                 \___/    |_|  |_| |__|  |__|  |_| \__\ |__|  \__/        
                                                                              
                      - O R C A' S   B I G   F R I E N D -                    
                                      &                                       
                       - I N T E G R A L  F E E D E R -                       
                                                                              
 v1 FN, 2020, v2 2021                                                         
------------------------------------------------------------------------------


Reading SHARK input file Nv_octanol.SHARKINP.tmp ... ok
----------------------
SHARK INTEGRAL PACKAGE
----------------------

Number of atoms                             ...     31
Number of basis functions                   ...    218
Number of shells                            ...    114
Maximum angular momentum                    ...      2
Integral batch strategy                     ... SHARK/LIBINT Hybrid
RI-J (if used) integral strategy            ... SPLIT-RIJ (Revised 2003 algorithm where possible)
Printlevel                                  ...      1
Contraction scheme used                     ... SEGMENTED contraction
Coulomb Range Separation                    ... NOT USED
Exchange Range Separation                   ... NOT USED
Finite Nucleus Model                        ... NOT USED
Auxiliary Coulomb fitting basis             ... AVAILABLE
   # of basis functions in Aux-J            ...   1704
   # of shells in Aux-J                     ...    670
   Maximum angular momentum in Aux-J        ...      3
Auxiliary J/K fitting basis                 ... AVAILABLE
   # of basis functions in Aux-JK           ...   1704
   # of shells in Aux-JK                    ...    670
   Maximum angular momentum in Aux-JK       ...      3
Auxiliary Correlation fitting basis         ... AVAILABLE
   # of basis functions in Aux-C            ...   1704
   # of shells in Aux-C                     ...    670
   Maximum angular momentum in Aux-C        ...      3
Auxiliary 'external' fitting basis          ... NOT available
Integral threshold                          ...     2.500000e-11
Primitive cut-off                           ...     2.500000e-12
Primitive pair pre-selection threshold      ...     2.500000e-12

Calculating pre-screening integrals         ... done (  0.0 sec) Dimension = 114
Organizing shell pair data                  ... done (  0.0 sec)
Shell pair information
Total number of shell pairs                 ...      6555
Shell pairs after pre-screening             ...      5891
Total number of primitive shell pairs       ...     36105
Primitive shell pairs kept                  ...     19475
          la=0 lb=0:   2476 shell pairs
          la=1 lb=0:   1830 shell pairs
          la=1 lb=1:    344 shell pairs
          la=2 lb=0:    839 shell pairs
          la=2 lb=1:    321 shell pairs
          la=2 lb=2:     81 shell pairs

Calculating one electron integrals          ... done (  0.0 sec)
Calculating RI/J V-Matrix + Cholesky decomp.... done (  0.2 sec)
Calculating RI/JK V-Matrix + Cholesky decomp... done (  0.2 sec)
Calculating RI/C V-Matrix + Cholesky decomp.... done (  0.2 sec)
Calculating Nuclear repulsion               ... done (  0.0 sec) ENN=    898.637822265924 Eh

SHARK setup successfully completed in   0.9 seconds

Maximum memory used throughout the entire GTOINT-calculation: 27.1 MB


           ************************************************************
           *        Program running with 4 parallel MPI-processes     *
           *              working on a common directory               *
           ************************************************************
-------------------------------------------------------------------------------
                                 ORCA SCF
-------------------------------------------------------------------------------

------------
SCF SETTINGS
------------
Hamiltonian:
 Density Functional     Method          .... DFT(GTOs)
 Exchange Functional    Exchange        .... B88
   X-Alpha parameter    XAlpha          ....  0.666667
   Becke's b parameter  XBeta           ....  0.004200
 Correlation Functional Correlation     .... LYP
 LDA part of GGA corr.  LDAOpt          .... VWN-5
 Gradients option       PostSCFGGA      .... off
 Hybrid DFT is turned on
   Fraction HF Exchange ScalHFX         ....  0.200000
   Scaling of DF-GGA-X  ScalDFX         ....  0.720000
   Scaling of DF-GGA-C  ScalDFC         ....  0.810000
   Scaling of DF-LDA-C  ScalLDAC        ....  1.000000
   Perturbative correction              ....  0.000000
   Density functional embedding theory  .... OFF
   NL short-range parameter             ....  4.800000
 RI-approximation to the Coulomb term is turned on
   Number of AuxJ basis functions       .... 1704
   RIJ-COSX (HFX calculated with COS-X)).... on


General Settings:
 Integral files         IntName         .... Nv_octanol
 Hartree-Fock type      HFTyp           .... RHF
 Total Charge           Charge          ....    0
 Multiplicity           Mult            ....    1
 Number of Electrons    NEL             ....  102
 Basis Dimension        Dim             ....  218
 Nuclear Repulsion      ENuc            ....    898.6378222659 Eh

Convergence Acceleration:
 DIIS                   CNVDIIS         .... on
   Start iteration      DIISMaxIt       ....    12
   Startup error        DIISStart       ....  0.200000
   # of expansion vecs  DIISMaxEq       ....     5
   Bias factor          DIISBfac        ....   1.050
   Max. coefficient     DIISMaxC        ....  10.000
 Trust-Rad. Augm. Hess. CNVTRAH         .... auto
   Auto Start mean grad. ratio tolernc. ....  1.125000
   Auto Start start iteration           ....    20
   Auto Start num. interpolation iter.  ....    10
   Max. Number of Micro iterations      ....    16
   Max. Number of Macro iterations      .... Maxiter - #DIIS iter
   Number of Davidson start vectors     ....     2
   Converg. threshold I  (grad. norm)   ....   1.000e-05
   Converg. threshold II (energy diff.) ....   1.000e-08
   Grad. Scal. Fac. for Micro threshold ....   0.100
   Minimum threshold for Micro iter.    ....   0.010
   NR start threshold (gradient norm)   ....   0.001
   Initial trust radius                 ....   0.400
   Minimum AH scaling param. (alpha)    ....   1.000
   Maximum AH scaling param. (alpha)    .... 1000.000
   Orbital update algorithm             .... Taylor
   White noise on init. David. guess    .... on
   Maximum white noise                  ....   0.010
   Quad. conv. algorithm                .... NR
 SOSCF                  CNVSOSCF        .... on
   Start iteration      SOSCFMaxIt      ....   150
   Startup grad/error   SOSCFStart      ....  0.003300
 Level Shifting         CNVShift        .... on
   Level shift para.    LevelShift      ....    0.2500
   Turn off err/grad.   ShiftErr        ....    0.0010
 Zerner damping         CNVZerner       .... off
 Static damping         CNVDamp         .... on
   Fraction old density DampFac         ....    0.7000
   Max. Damping (<1)    DampMax         ....    0.9800
   Min. Damping (>=0)   DampMin         ....    0.0000
   Turn off err/grad.   DampErr         ....    0.1000
 Fernandez-Rico         CNVRico         .... off

SCF Procedure:
 Maximum # iterations   MaxIter         ....   125
 SCF integral mode      SCFMode         .... Direct
   Integral package                     .... SHARK and LIBINT hybrid scheme
 Reset frequency        DirectResetFreq ....    20
 Integral Threshold     Thresh          ....  2.500e-11 Eh
 Primitive CutOff       TCut            ....  2.500e-12 Eh

Convergence Tolerance:
 Convergence Check Mode ConvCheckMode   .... Total+1el-Energy
 Convergence forced     ConvForced      .... 0
 Energy Change          TolE            ....  1.000e-08 Eh
 1-El. energy change                    ....  1.000e-05 Eh
 Orbital Gradient       TolG            ....  1.000e-05
 Orbital Rotation angle TolX            ....  1.000e-05
 DIIS Error             TolErr          ....  5.000e-07


Diagonalization of the overlap matrix:
Smallest eigenvalue                        ... 3.192e-03
Time for diagonalization                   ...    0.008 sec
Threshold for overlap eigenvalues          ... 1.000e-08
Number of eigenvalues below threshold      ... 0
Time for construction of square roots      ...    0.004 sec
Total time needed                          ...    0.024 sec

Time for model grid setup =    0.251 sec

------------------------------
INITIAL GUESS: MODEL POTENTIAL
------------------------------
Loading Hartree-Fock densities                     ... done
Calculating cut-offs                               ... done
Initializing the effective Hamiltonian             ... done
Setting up the integral package (SHARK)            ... done
Starting the Coulomb interaction                   ... done (   0.7 sec)
Reading the grid                                   ... done
Mapping shells                                     ... done
Starting the XC term evaluation                    ... done (   0.1 sec)
  promolecular density results
     # of electrons  =    101.995071084
     EX              =    -81.187667242
     EC              =     -3.420640173
     EX+EC           =    -84.608307416
Transforming the Hamiltonian                       ... done (   0.0 sec)
Diagonalizing the Hamiltonian                      ... done (   0.0 sec)
Back transforming the eigenvectors                 ... done (   0.0 sec)
Now organizing SCF variables                       ... done
                      ------------------
                      INITIAL GUESS DONE (   1.1 sec)
                      ------------------
-------------------
DFT GRID GENERATION
-------------------

General Integration Accuracy     IntAcc      ... 4.388
Radial Grid Type                 RadialGrid  ... OptM3 with GC (2021)
Angular Grid (max. ang.)         AngularGrid ... 4 (Lebedev-302)
Angular grid pruning method      GridPruning ... 4 (adaptive)
Weight generation scheme         WeightScheme... Becke
Basis function cutoff            BFCut       ... 1.0000e-11
Integration weight cutoff        WCut        ... 1.0000e-14
Angular grids for H and He will be reduced by one unit
Partially contracted basis set               ... off
Rotationally invariant grid construction     ... off

Total number of grid points                  ...   134871
Total number of batches                      ...     2125
Average number of points per batch           ...       63
Average number of grid points per atom       ...     4351
Time for grid setup =    1.022 sec

--------------------
COSX GRID GENERATION
--------------------

GRIDX 1
-------
General Integration Accuracy     IntAcc      ... 3.816
Radial Grid Type                 RadialGrid  ... OptM3 with GC (2021)
Angular Grid (max. ang.)         AngularGrid ... 1 (Lebedev-50)
Angular grid pruning method      GridPruning ... 4 (adaptive)
Weight generation scheme         WeightScheme... Becke
Basis function cutoff            BFCut       ... 1.0000e-11
Integration weight cutoff        WCut        ... 1.0000e-14
Angular grids for H and He will be reduced by one unit
Partially contracted basis set               ... on
Rotationally invariant grid construction     ... off

Total number of grid points                  ...    17168
Total number of batches                      ...      287
Average number of points per batch           ...       59
Average number of grid points per atom       ...      554
UseSFitting                                  ... on

GRIDX 2
-------
General Integration Accuracy     IntAcc      ... 4.020
Radial Grid Type                 RadialGrid  ... OptM3 with GC (2021)
Angular Grid (max. ang.)         AngularGrid ... 2 (Lebedev-110)
Angular grid pruning method      GridPruning ... 4 (adaptive)
Weight generation scheme         WeightScheme... Becke
Basis function cutoff            BFCut       ... 1.0000e-11
Integration weight cutoff        WCut        ... 1.0000e-14
Angular grids for H and He will be reduced by one unit
Partially contracted basis set               ... on
Rotationally invariant grid construction     ... off

Total number of grid points                  ...    36081
Total number of batches                      ...      580
Average number of points per batch           ...       62
Average number of grid points per atom       ...     1164
UseSFitting                                  ... on

GRIDX 3
-------
General Integration Accuracy     IntAcc      ... 4.338
Radial Grid Type                 RadialGrid  ... OptM3 with GC (2021)
Angular Grid (max. ang.)         AngularGrid ... 3 (Lebedev-194)
Angular grid pruning method      GridPruning ... 4 (adaptive)
Weight generation scheme         WeightScheme... Becke
Basis function cutoff            BFCut       ... 1.0000e-11
Integration weight cutoff        WCut        ... 1.0000e-14
Angular grids for H and He will be reduced by one unit
Partially contracted basis set               ... on
Rotationally invariant grid construction     ... off

Total number of grid points                  ...    78677
Total number of batches                      ...     1250
Average number of points per batch           ...       62
Average number of grid points per atom       ...     2538
UseSFitting                                  ... on

Time for X-Grid setup             =    1.967 sec


--------------------
CPCM SOLVATION MODEL
--------------------
CPCM parameters:
  Epsilon                                         ...       9.8629
  Refrac                                          ...       1.4295
  Rsolv                                           ...       1.3000
  Surface type                                    ... GAUSSIAN VDW
  Epsilon function type                           ...         CPCM
Radii:
 Radius for C  used is    3.8550 Bohr (=   2.0400 Ang.)
 Radius for H  used is    2.4944 Bohr (=   1.3200 Ang.)
 Radius for O  used is    3.4469 Bohr (=   1.8240 Ang.)
 Radius for N  used is    3.5149 Bohr (=   1.8600 Ang.)
Calculating surface                               ...        done! (  0.0s)
GEPOL surface points                              ...         1588
GEPOL Volume                                      ...    1633.0225
GEPOL Surface-area                                ...     863.8599
Calculating surface distance matrix               ...        done! (  0.0s)
Performing Cholesky decomposition & store         ...        done! (  0.1s)
Overall time for CPCM initialization              ...                 0.1s
--------------
SCF ITERATIONS
--------------
ITER       Energy         Delta-E        Max-DP      RMS-DP      [F,P]     Damp
               ***  Starting incremental Fock matrix formation  ***
  0   -612.9697354375   0.000000000000 0.09249162  0.00227747  0.2732534 0.7000
  1   -613.1695346634  -0.199799225945 0.05145333  0.00151948  0.1090455 0.7000
                               ***Turning on DIIS***
  2   -613.2460445603  -0.076509896936 0.06382766  0.00236185  0.0370292 0.0000
  3   -613.3674213617  -0.121376801389 0.03467167  0.00103041  0.0539056 0.0000
  4   -613.3933286582  -0.025907296504 0.00869269  0.00034157  0.0118408 0.0000
  5   -613.3950904606  -0.001761802359 0.00357857  0.00010338  0.0057387 0.0000
                      *** Initiating the SOSCF procedure ***
                           *** Shutting down DIIS ***
                      *** Re-Reading the Fockian *** 
                      *** Removing any level shift *** 
ITER      Energy       Delta-E        Grad      Rot      Max-DP    RMS-DP
  6   -613.39520771  -0.0001172469  0.000225  0.000225  0.001288  0.000045
               *** Restarting incremental Fock matrix formation ***
  7   -613.39532226  -0.0001145525  0.000227  0.000914  0.001495  0.000028
  8   -613.39531726   0.0000049980  0.000441  0.000655  0.000963  0.000018
  9   -613.39532517  -0.0000079039  0.000046  0.000128  0.000266  0.000006
 10   -613.39532489   0.0000002758  0.000095  0.000085  0.000192  0.000004
 11   -613.39532527  -0.0000003797  0.000004  0.000006  0.000020  0.000001
 12   -613.39532527   0.0000000044  0.000004  0.000003  0.000011  0.000000
                  ***Gradient check signals convergence***
              ***Rediagonalizing the Fockian in SOSCF/NRSCF***

               *****************************************************
               *                     SUCCESS                       *
               *           SCF CONVERGED AFTER  13 CYCLES          *
               *****************************************************

Old exchange energy                            =    -16.569241699 Eh
New exchange energy                            =    -16.569237552 Eh
Exchange energy change after final integration =      0.000004147 Eh
Total energy after final integration           =   -613.395321122 Eh
Final COS-X integration done in                =     8.222 sec

----------------
TOTAL SCF ENERGY
----------------

Total Energy       :         -613.39532112 Eh          -16691.33526 eV

Components:
Nuclear Repulsion  :          898.63782227 Eh           24453.17832 eV
Electronic Energy  :        -1512.03314339 Eh          -41144.51358 eV
One Electron Energy:        -2617.27874206 Eh          -71219.77531 eV
Two Electron Energy:         1105.24559868 Eh           30075.26174 eV
Max COSX asymmetry :            0.00000230 Eh               0.00006 eV
CPCM Dielectric    :           -0.01573106 Eh              -0.42806 eV

Virial components:
Potential Energy   :        -1223.19698751 Eh          -33284.88220 eV
Kinetic Energy     :          609.80166639 Eh           16593.54694 eV
Virial Ratio       :            2.00589315


DFT components:
N(Alpha)           :       50.999941092961 electrons
N(Beta)            :       50.999941092961 electrons
N(Total)           :      101.999882185922 electrons
E(X)               :      -65.775591758111 Eh       
E(C)               :       -4.032516257404 Eh       
E(XC)              :      -69.808108015515 Eh       
DFET-embed. en.    :        0.000000000000 Eh       
CPCM Solvation Model Properties:
Surface-charge          :           -0.02073249
Charge-correction       :           -0.00024402 Eh              -0.00664 eV
Free-energy (cav+disp)  :  This term is not implemented in the current solvation scheme

---------------
SCF CONVERGENCE
---------------

  Last Energy change         ...   -3.7692e-09  Tolerance :   1.0000e-08
  Last MAX-Density change    ...    2.6645e-15  Tolerance :   1.0000e-07
  Last RMS-Density change    ...    4.2451e-17  Tolerance :   5.0000e-09
  Last Orbital Gradient      ...    3.2643e-07  Tolerance :   1.0000e-05
  Last Orbital Rotation      ...    1.2213e-06  Tolerance :   1.0000e-05

             **** THE GBW FILE WAS UPDATED (Nv_octanol.gbw) ****
             **** DENSITY Nv_octanol.scfp WAS UPDATED ****
             **** ENERGY FILE WAS UPDATED (Nv_octanol.en.tmp) ****
             **** THE GBW FILE WAS UPDATED (Nv_octanol.gbw) ****
             **** DENSITY Nv_octanol.scfp WAS UPDATED ****
----------------
ORBITAL ENERGIES
----------------

  NO   OCC          E(Eh)            E(eV) 
   0   2.0000     -19.107503      -519.9416 
   1   2.0000     -19.107307      -519.9362 
   2   2.0000     -14.358296      -390.7091 
   3   2.0000     -14.357959      -390.6999 
   4   2.0000     -10.283055      -279.8162 
   5   2.0000     -10.278884      -279.7026 
   6   2.0000     -10.217881      -278.0427 
   7   2.0000     -10.208174      -277.7785 
   8   2.0000     -10.197521      -277.4887 
   9   2.0000     -10.194379      -277.4032 
  10   2.0000     -10.171400      -276.7779 
  11   2.0000     -10.163391      -276.5599 
  12   2.0000     -10.163175      -276.5541 
  13   2.0000      -1.030539       -28.0424 
  14   2.0000      -1.023469       -27.8500 
  15   2.0000      -0.931528       -25.3482 
  16   2.0000      -0.925353       -25.1801 
  17   2.0000      -0.781106       -21.2550 
  18   2.0000      -0.751941       -20.4614 
  19   2.0000      -0.718326       -19.5466 
  20   2.0000      -0.705799       -19.2058 
  21   2.0000      -0.686407       -18.6781 
  22   2.0000      -0.668630       -18.1943 
  23   2.0000      -0.622125       -16.9289 
  24   2.0000      -0.543227       -14.7820 
  25   2.0000      -0.524333       -14.2678 
  26   2.0000      -0.501200       -13.6384 
  27   2.0000      -0.490706       -13.3528 
  28   2.0000      -0.478413       -13.0183 
  29   2.0000      -0.461595       -12.5606 
  30   2.0000      -0.456279       -12.4160 
  31   2.0000      -0.447660       -12.1814 
  32   2.0000      -0.430691       -11.7197 
  33   2.0000      -0.420505       -11.4425 
  34   2.0000      -0.409897       -11.1539 
  35   2.0000      -0.407335       -11.0841 
  36   2.0000      -0.396179       -10.7806 
  37   2.0000      -0.393755       -10.7146 
  38   2.0000      -0.392232       -10.6732 
  39   2.0000      -0.389426       -10.5968 
  40   2.0000      -0.380880       -10.3643 
  41   2.0000      -0.373243       -10.1565 
  42   2.0000      -0.369549       -10.0559 
  43   2.0000      -0.350794        -9.5456 
  44   2.0000      -0.347945        -9.4681 
  45   2.0000      -0.340312        -9.2604 
  46   2.0000      -0.331337        -9.0161 
  47   2.0000      -0.257185        -6.9984 
  48   2.0000      -0.250704        -6.8220 
  49   2.0000      -0.236891        -6.4461 
  50   2.0000      -0.233381        -6.3506 
  51   0.0000       0.014669         0.3992 
  52   0.0000       0.028997         0.7891 
  53   0.0000       0.083115         2.2617 
  54   0.0000       0.105546         2.8721 
  55   0.0000       0.116901         3.1810 
  56   0.0000       0.134962         3.6725 
  57   0.0000       0.145148         3.9497 
  58   0.0000       0.149306         4.0628 
  59   0.0000       0.151945         4.1346 
  60   0.0000       0.159312         4.3351 
  61   0.0000       0.168001         4.5715 
  62   0.0000       0.171430         4.6649 
  63   0.0000       0.174701         4.7538 
  64   0.0000       0.178571         4.8592 
  65   0.0000       0.186601         5.0777 
  66   0.0000       0.191628         5.2145 
  67   0.0000       0.194629         5.2961 
  68   0.0000       0.197083         5.3629 
  69   0.0000       0.201855         5.4928 
  70   0.0000       0.208462         5.6725 
  71   0.0000       0.223037         6.0691 
  72   0.0000       0.226219         6.1557 
  73   0.0000       0.229069         6.2333 
  74   0.0000       0.246185         6.6990 
  75   0.0000       0.251840         6.8529 
  76   0.0000       0.265911         7.2358 
  77   0.0000       0.272329         7.4105 
  78   0.0000       0.301739         8.2107 
  79   0.0000       0.339574         9.2403 
  80   0.0000       0.366824         9.9818 
  81   0.0000       0.390219        10.6184 
  82   0.0000       0.423705        11.5296 
  83   0.0000       0.465316        12.6619 
  84   0.0000       0.494476        13.4554 
  85   0.0000       0.502606        13.6766 
  86   0.0000       0.508072        13.8253 
  87   0.0000       0.515836        14.0366 
  88   0.0000       0.524992        14.2858 
  89   0.0000       0.542161        14.7529 
  90   0.0000       0.554939        15.1006 
  91   0.0000       0.564723        15.3669 
  92   0.0000       0.591426        16.0935 
  93   0.0000       0.603326        16.4173 
  94   0.0000       0.617089        16.7918 
  95   0.0000       0.635754        17.2997 
  96   0.0000       0.640153        17.4195 
  97   0.0000       0.648404        17.6440 
  98   0.0000       0.668413        18.1884 
  99   0.0000       0.685892        18.6641 
 100   0.0000       0.698419        19.0050 
 101   0.0000       0.703905        19.1542 
 102   0.0000       0.717067        19.5124 
 103   0.0000       0.722936        19.6721 
 104   0.0000       0.733761        19.9667 
 105   0.0000       0.766506        20.8577 
 106   0.0000       0.793723        21.5983 
 107   0.0000       0.800915        21.7940 
 108   0.0000       0.805219        21.9111 
 109   0.0000       0.820179        22.3182 
 110   0.0000       0.827904        22.5284 
 111   0.0000       0.847603        23.0645 
 112   0.0000       0.855453        23.2781 
 113   0.0000       0.869548        23.6616 
 114   0.0000       0.877243        23.8710 
 115   0.0000       0.884884        24.0789 
 116   0.0000       0.888928        24.1890 
 117   0.0000       0.901638        24.5348 
 118   0.0000       0.904608        24.6156 
 119   0.0000       0.908635        24.7252 
 120   0.0000       0.919036        25.0082 
 121   0.0000       0.926636        25.2151 
 122   0.0000       0.935671        25.4609 
 123   0.0000       0.944080        25.6897 
 124   0.0000       0.952607        25.9217 
 125   0.0000       0.965018        26.2595 
 126   0.0000       0.973342        26.4860 
 127   0.0000       0.979207        26.6456 
 128   0.0000       0.990780        26.9605 
 129   0.0000       1.003929        27.3183 
 130   0.0000       1.022660        27.8280 
 131   0.0000       1.035573        28.1794 
 132   0.0000       1.038132        28.2490 
 133   0.0000       1.067943        29.0602 
 134   0.0000       1.080428        29.4000 
 135   0.0000       1.084296        29.5052 
 136   0.0000       1.109061        30.1791 
 137   0.0000       1.125435        30.6246 
 138   0.0000       1.158598        31.5271 
 139   0.0000       1.181228        32.1429 
 140   0.0000       1.250292        34.0222 
 141   0.0000       1.276857        34.7450 
 142   0.0000       1.289822        35.0978 
 143   0.0000       1.314950        35.7816 
 144   0.0000       1.346294        36.6345 
 145   0.0000       1.364867        37.1399 
 146   0.0000       1.390333        37.8329 
 147   0.0000       1.418405        38.5968 
 148   0.0000       1.441369        39.2217 
 149   0.0000       1.445668        39.3386 
 150   0.0000       1.460287        39.7364 
 151   0.0000       1.467334        39.9282 
 152   0.0000       1.505428        40.9648 
 153   0.0000       1.560037        42.4508 
 154   0.0000       1.614103        43.9220 
 155   0.0000       1.621768        44.1306 
 156   0.0000       1.672448        45.5096 
 157   0.0000       1.702392        46.3244 
 158   0.0000       1.719823        46.7988 
 159   0.0000       1.749073        47.5947 
 160   0.0000       1.758563        47.8529 
 161   0.0000       1.791099        48.7383 
 162   0.0000       1.803924        49.0873 
 163   0.0000       1.823667        49.6245 
 164   0.0000       1.841008        50.0964 
 165   0.0000       1.845846        50.2280 
 166   0.0000       1.871965        50.9388 
 167   0.0000       1.889444        51.4144 
 168   0.0000       1.903565        51.7986 
 169   0.0000       1.914587        52.0986 
 170   0.0000       1.938840        52.7585 
 171   0.0000       1.948091        53.0103 
 172   0.0000       1.963281        53.4236 
 173   0.0000       1.977734        53.8169 
 174   0.0000       1.992830        54.2277 
 175   0.0000       2.003341        54.5137 
 176   0.0000       2.030194        55.2444 
 177   0.0000       2.047604        55.7182 
 178   0.0000       2.056756        55.9672 
 179   0.0000       2.071886        56.3789 
 180   0.0000       2.084877        56.7324 
 181   0.0000       2.102619        57.2152 
 182   0.0000       2.109989        57.4157 
 183   0.0000       2.119885        57.6850 
 184   0.0000       2.166255        58.9468 
 185   0.0000       2.184523        59.4439 
 186   0.0000       2.208565        60.0981 
 187   0.0000       2.218816        60.3770 
 188   0.0000       2.233498        60.7766 
 189   0.0000       2.267587        61.7042 
 190   0.0000       2.268980        61.7421 
 191   0.0000       2.283366        62.1336 
 192   0.0000       2.289499        62.3004 
 193   0.0000       2.304098        62.6977 
 194   0.0000       2.341711        63.7212 
 195   0.0000       2.353692        64.0472 
 196   0.0000       2.395913        65.1961 
 197   0.0000       2.413670        65.6793 
 198   0.0000       2.423994        65.9602 
 199   0.0000       2.453654        66.7673 
 200   0.0000       2.498774        67.9951 
 201   0.0000       2.503765        68.1309 
 202   0.0000       2.519492        68.5589 
 203   0.0000       2.571941        69.9861 
 204   0.0000       2.593431        70.5708 
 205   0.0000       2.623310        71.3839 
 206   0.0000       2.635124        71.7054 
 207   0.0000       2.672145        72.7128 
 208   0.0000       2.699589        73.4596 
 209   0.0000       2.733589        74.3847 
 210   0.0000       2.748831        74.7995 
 211   0.0000       2.771325        75.4116 
 212   0.0000       2.939540        79.9889 
 213   0.0000       2.967363        80.7461 
 214   0.0000       2.998487        81.5930 
 215   0.0000       3.005147        81.7742 
 216   0.0000       3.164130        86.1003 
 217   0.0000       3.183057        86.6154 

                    ********************************
                    * MULLIKEN POPULATION ANALYSIS *
                    ********************************

-----------------------
MULLIKEN ATOMIC CHARGES
-----------------------
   0 C :   -0.554820
   1 H :    0.184854
   2 H :    0.198705
   3 H :    0.180929
   4 C :    0.532945
   5 O :   -0.536124
   6 N :   -0.379814
   7 C :   -0.258461
   8 H :    0.180786
   9 H :    0.206212
  10 C :    0.528262
  11 N :   -0.361025
  12 O :   -0.538632
  13 C :   -0.348590
  14 H :    0.167983
  15 H :    0.169523
  16 H :    0.199651
  17 C :   -0.330717
  18 H :    0.168916
  19 H :    0.186785
  20 H :    0.169483
  21 C :    0.020217
  22 C :   -0.466519
  23 C :   -0.466164
  24 H :    0.172016
  25 H :    0.160721
  26 H :    0.161764
  27 H :    0.162535
  28 H :    0.165418
  29 H :    0.163168
  30 H :    0.159995
Sum of atomic charges:   -0.0000000

--------------------------------
MULLIKEN REDUCED ORBITAL CHARGES
--------------------------------
  0 C s       :     3.321761  s :     3.321761
      pz      :     1.054702  p :     3.200851
      px      :     1.030506
      py      :     1.115643
      dz2     :     0.002988  d :     0.032208
      dxz     :     0.009022
      dyz     :     0.008713
      dx2y2   :     0.009050
      dxy     :     0.002435
  1 H s       :     0.815146  s :     0.815146
  2 H s       :     0.801295  s :     0.801295
  3 H s       :     0.819071  s :     0.819071
  4 C s       :     2.988013  s :     2.988013
      pz      :     0.811415  p :     2.371388
      px      :     0.808707
      py      :     0.751266
      dz2     :     0.012976  d :     0.107655
      dxz     :     0.010964
      dyz     :     0.025412
      dx2y2   :     0.027827
      dxy     :     0.030477
  5 O s       :     3.866017  s :     3.866017
      pz      :     1.539743  p :     4.645154
      px      :     1.653640
      py      :     1.451771
      dz2     :     0.003887  d :     0.024954
      dxz     :     0.001549
      dyz     :     0.007436
      dx2y2   :     0.005931
      dxy     :     0.006151
  6 N s       :     3.539356  s :     3.539356
      pz      :     1.409630  p :     3.804478
      px      :     1.292580
      py      :     1.102268
      dz2     :     0.005327  d :     0.035981
      dxz     :     0.005026
      dyz     :     0.007498
      dx2y2   :     0.009222
      dxy     :     0.008907
  7 C s       :     3.253890  s :     3.253890
      pz      :     0.959008  p :     2.952790
      px      :     0.856222
      py      :     1.137560
      dz2     :     0.009835  d :     0.051781
      dxz     :     0.013087
      dyz     :     0.009839
      dx2y2   :     0.013971
      dxy     :     0.005050
  8 H s       :     0.819214  s :     0.819214
  9 H s       :     0.793788  s :     0.793788
 10 C s       :     2.979441  s :     2.979441
      pz      :     0.791306  p :     2.385027
      px      :     0.835939
      py      :     0.757782
      dz2     :     0.018493  d :     0.107270
      dxz     :     0.010870
      dyz     :     0.025823
      dx2y2   :     0.022062
      dxy     :     0.030021
 11 N s       :     3.532834  s :     3.532834
      pz      :     1.329262  p :     3.790573
      px      :     1.258317
      py      :     1.202993
      dz2     :     0.007098  d :     0.037618
      dxz     :     0.006387
      dyz     :     0.007179
      dx2y2   :     0.007441
      dxy     :     0.009513
 12 O s       :     3.860189  s :     3.860189
      pz      :     1.614184  p :     4.653446
      px      :     1.663158
      py      :     1.376104
      dz2     :     0.003041  d :     0.024997
      dxz     :     0.001858
      dyz     :     0.006595
      dx2y2   :     0.007355
      dxy     :     0.006150
 13 C s       :     3.269132  s :     3.269132
      pz      :     1.075635  p :     3.031156
      px      :     1.094143
      py      :     0.861378
      dz2     :     0.011456  d :     0.048301
      dxz     :     0.008255
      dyz     :     0.007245
      dx2y2   :     0.008022
      dxy     :     0.013323
 14 H s       :     0.832017  s :     0.832017
 15 H s       :     0.830477  s :     0.830477
 16 H s       :     0.800349  s :     0.800349
 17 C s       :     3.258804  s :     3.258804
      pz      :     1.039495  p :     3.023959
      px      :     0.897980
      py      :     1.086484
      dz2     :     0.013005  d :     0.047955
      dxz     :     0.007803
      dyz     :     0.006690
      dx2y2   :     0.008268
      dxy     :     0.012190
 18 H s       :     0.831084  s :     0.831084
 19 H s       :     0.813215  s :     0.813215
 20 H s       :     0.830517  s :     0.830517
 21 C s       :     3.172875  s :     3.172875
      pz      :     0.957877  p :     2.748089
      px      :     0.990045
      py      :     0.800167
      dz2     :     0.011043  d :     0.058819
      dxz     :     0.010573
      dyz     :     0.013130
      dx2y2   :     0.012402
      dxy     :     0.011671
 22 C s       :     3.300904  s :     3.300904
      pz      :     1.079952  p :     3.131496
      px      :     0.979757
      py      :     1.071788
      dz2     :     0.008725  d :     0.034119
      dxz     :     0.008314
      dyz     :     0.002660
      dx2y2   :     0.009808
      dxy     :     0.004612
 23 C s       :     3.301198  s :     3.301198
      pz      :     0.970709  p :     3.130823
      px      :     1.080275
      py      :     1.079840
      dz2     :     0.008344  d :     0.034143
      dxz     :     0.006844
      dyz     :     0.005808
      dx2y2   :     0.009225
      dxy     :     0.003921
 24 H s       :     0.827984  s :     0.827984
 25 H s       :     0.839279  s :     0.839279
 26 H s       :     0.838236  s :     0.838236
 27 H s       :     0.837465  s :     0.837465
 28 H s       :     0.834582  s :     0.834582
 29 H s       :     0.836832  s :     0.836832
 30 H s       :     0.840005  s :     0.840005


                     *******************************
                     * LOEWDIN POPULATION ANALYSIS *
                     *******************************

----------------------
LOEWDIN ATOMIC CHARGES
----------------------
   0 C :   -0.391262
   1 H :    0.145721
   2 H :    0.160236
   3 H :    0.151131
   4 C :    0.118951
   5 O :   -0.339793
   6 N :   -0.069450
   7 C :   -0.180395
   8 H :    0.144071
   9 H :    0.159811
  10 C :    0.097885
  11 N :   -0.069400
  12 O :   -0.337949
  13 C :   -0.287372
  14 H :    0.131163
  15 H :    0.134651
  16 H :    0.150985
  17 C :   -0.281259
  18 H :    0.131649
  19 H :    0.148567
  20 H :    0.134371
  21 C :   -0.062912
  22 C :   -0.369427
  23 C :   -0.369875
  24 H :    0.144618
  25 H :    0.134437
  26 H :    0.137516
  27 H :    0.132234
  28 H :    0.134676
  29 H :    0.130129
  30 H :    0.136293

-------------------------------
LOEWDIN REDUCED ORBITAL CHARGES
-------------------------------
  0 C s       :     2.981439  s :     2.981439
      pz      :     1.108725  p :     3.346447
      px      :     1.088884
      py      :     1.148838
      dz2     :     0.005769  d :     0.063375
      dxz     :     0.018936
      dyz     :     0.016223
      dx2y2   :     0.017799
      dxy     :     0.004648
  1 H s       :     0.854279  s :     0.854279
  2 H s       :     0.839764  s :     0.839764
  3 H s       :     0.848869  s :     0.848869
  4 C s       :     2.850474  s :     2.850474
      pz      :     0.881622  p :     2.777153
      px      :     0.933924
      py      :     0.961606
      dz2     :     0.029376  d :     0.253422
      dxz     :     0.024790
      dyz     :     0.057542
      dx2y2   :     0.069053
      dxy     :     0.072662
  5 O s       :     3.566151  s :     3.566151
      pz      :     1.551710  p :     4.722250
      px      :     1.654818
      py      :     1.515722
      dz2     :     0.006520  d :     0.051392
      dxz     :     0.003505
      dyz     :     0.015477
      dx2y2   :     0.013912
      dxy     :     0.011978
  6 N s       :     3.103270  s :     3.103270
      pz      :     1.403499  p :     3.873629
      px      :     1.297059
      py      :     1.173071
      dz2     :     0.012935  d :     0.092552
      dxz     :     0.011947
      dyz     :     0.018182
      dx2y2   :     0.024855
      dxy     :     0.024633
  7 C s       :     2.932928  s :     2.932928
      pz      :     1.029223  p :     3.138361
      px      :     0.959420
      py      :     1.149718
      dz2     :     0.020588  d :     0.109106
      dxz     :     0.029445
      dyz     :     0.018776
      dx2y2   :     0.029713
      dxy     :     0.010583
  8 H s       :     0.855929  s :     0.855929
  9 H s       :     0.840189  s :     0.840189
 10 C s       :     2.854114  s :     2.854114
      pz      :     0.888405  p :     2.794032
      px      :     0.945676
      py      :     0.959951
      dz2     :     0.042216  d :     0.253969
      dxz     :     0.023736
      dyz     :     0.064188
      dx2y2   :     0.052894
      dxy     :     0.070934
 11 N s       :     3.089294  s :     3.089294
      pz      :     1.355073  p :     3.882551
      px      :     1.285151
      py      :     1.242327
      dz2     :     0.015861  d :     0.097555
      dxz     :     0.017622
      dyz     :     0.019772
      dx2y2   :     0.020423
      dxy     :     0.023877
 12 O s       :     3.566014  s :     3.566014
      pz      :     1.605887  p :     4.720354
      px      :     1.662672
      py      :     1.451795
      dz2     :     0.006744  d :     0.051581
      dxz     :     0.002978
      dyz     :     0.012466
      dx2y2   :     0.015247
      dxy     :     0.014146
 13 C s       :     2.962593  s :     2.962593
      pz      :     1.123580  p :     3.228487
      px      :     1.136921
      py      :     0.967986
      dz2     :     0.022339  d :     0.096292
      dxz     :     0.015500
      dyz     :     0.014813
      dx2y2   :     0.016694
      dxy     :     0.026947
 14 H s       :     0.868837  s :     0.868837
 15 H s       :     0.865349  s :     0.865349
 16 H s       :     0.849015  s :     0.849015
 17 C s       :     2.962736  s :     2.962736
      pz      :     1.098358  p :     3.223319
      px      :     0.993453
      py      :     1.131507
      dz2     :     0.025469  d :     0.095204
      dxz     :     0.015766
      dyz     :     0.012669
      dx2y2   :     0.017135
      dxy     :     0.024165
 18 H s       :     0.868351  s :     0.868351
 19 H s       :     0.851433  s :     0.851433
 20 H s       :     0.865629  s :     0.865629
 21 C s       :     2.885853  s :     2.885853
      pz      :     1.057347  p :     3.047539
      px      :     1.076198
      py      :     0.913994
      dz2     :     0.027056  d :     0.129519
      dxz     :     0.020565
      dyz     :     0.028073
      dx2y2   :     0.028094
      dxy     :     0.025732
 22 C s       :     2.977289  s :     2.977289
      pz      :     1.130501  p :     3.325183
      px      :     1.067990
      py      :     1.126692
      dz2     :     0.016491  d :     0.066955
      dxz     :     0.016379
      dyz     :     0.004541
      dx2y2   :     0.019859
      dxy     :     0.009685
 23 C s       :     2.978312  s :     2.978312
      pz      :     1.062760  p :     3.324473
      px      :     1.127834
      py      :     1.133879
      dz2     :     0.018393  d :     0.067090
      dxz     :     0.013892
      dyz     :     0.011429
      dx2y2   :     0.016566
      dxy     :     0.006811
 24 H s       :     0.855382  s :     0.855382
 25 H s       :     0.865563  s :     0.865563
[...]
     24       0.000277  -0.006001   0.005363
     25       0.000481  -0.016575   0.014702
     26       0.000594  -0.021782   0.019284
     27       0.001071  -0.009121   0.006030
     28       0.009310  -0.115193   0.077935
     29      -0.003491   0.034607  -0.023413
     30       0.000033   0.000098   0.000675
     31      -0.000008  -0.000328  -0.001065
     32      -0.000009   0.000120  -0.000369
     33      -0.000015   0.000223  -0.000101
     34      -0.000006  -0.000695   0.000160
     35       0.000001  -0.000244  -0.000039
     36      -0.000018  -0.000354  -0.000708
     37       0.000010   0.000084   0.000238
     38       0.000005  -0.000294  -0.000354
     39       0.000308  -0.050785   0.035670
     40      -0.000145   0.020097  -0.014081
     41       0.000408  -0.048256   0.034616
     42       0.000806  -0.058883   0.042139
     43       0.000333  -0.023219   0.017372
     44      -0.001545   0.103445  -0.075704
     45      -0.001042   0.126802  -0.089220
     46      -0.000820   0.110223  -0.075357
     47      -0.000126   0.010682  -0.007556
     48      -0.003319   0.535054  -0.381310
     49       0.002129  -0.306495   0.219071
     50      -0.003137   0.468572  -0.333985
     51      -0.000010   0.008998   0.012175
     52       0.000032  -0.043426  -0.060311
     53       0.000061  -0.028264  -0.039674
     54       0.000101  -0.022245  -0.031713
     55       0.000112  -0.026616  -0.036336
     56      -0.000432   0.086322   0.121577
     57       0.000146  -0.167110  -0.236079
     58      -0.000435   0.459373   0.646041
     59      -0.000258   0.265012   0.372345
     60      -0.000132   0.092680   0.125235
     61      -0.000106   0.084297   0.116289
     62       0.000004  -0.008197  -0.011350
     63      -0.001326  -0.000050   0.000045
     64       0.001309  -0.000068   0.000013
     65       0.001134   0.000090  -0.000069
     66      -0.003941  -0.000041   0.000027
     67       0.003626  -0.000004  -0.000009
     68       0.005274   0.000013  -0.000000
     69      -0.006094   0.000142   0.000008
     70       0.004415   0.000031  -0.000014
     71       0.004175   0.000031  -0.000018
     72       0.014111   0.000122  -0.000201
     73      -0.012744  -0.000208   0.000334
     74      -0.011820  -0.000062   0.000187
     75      -0.005979   0.000020  -0.000034
     76       0.004560  -0.000025   0.000026
     77      -0.020459   0.000123  -0.000159
     78      -0.000361   0.000110  -0.000051
     79      -0.019017   0.000430  -0.000101
     80       0.002997  -0.000046   0.000009
     81       0.053941   0.000403  -0.000272
     82      -0.032525  -0.000232   0.000147
     83      -0.047957  -0.000322   0.000219
     84       0.023393  -0.001650  -0.000033
     85       0.008985  -0.000502  -0.000006
     86       0.003963  -0.000292  -0.000016
     87       0.060334   0.000006  -0.000213
     88      -0.055511  -0.000013   0.000190
     89      -0.057919  -0.000016   0.000231
     90      -0.002488   0.000018   0.000015
     91      -0.015199   0.000341  -0.000102
     92       0.004918  -0.000178   0.000065


-----------
IR SPECTRUM
-----------

 Mode   freq       eps      Int      T**2         TX        TY        TZ
       cm**-1   L/(mol*cm) km/mol    a.u.
----------------------------------------------------------------------------
  6:     45.66   0.001542    7.79  0.010536  (-0.025263 -0.039429  0.091343)
  7:     61.34   0.000102    0.52  0.000519  (-0.008542  0.000906  0.021104)
  8:     78.11   0.000010    0.05  0.000039  (-0.003439  0.003208  0.004101)
  9:     81.42   0.000861    4.35  0.003298  (-0.050226  0.001596  0.027807)
 10:     96.03   0.000479    2.42  0.001557  ( 0.035611  0.009199  0.014277)
 11:    112.20   0.002777   14.03  0.007724  (-0.076019 -0.013885 -0.041858)
 12:    144.38   0.000659    3.33  0.001425  (-0.033579 -0.013345  0.010906)
 13:    167.18   0.000018    0.09  0.000034  ( 0.000277  0.005579 -0.001626)
 14:    178.09   0.000051    0.26  0.000089  (-0.005581  0.001046 -0.007528)
 15:    214.12   0.000267    1.35  0.000389  (-0.009482 -0.009270  0.014595)
 16:    227.11   0.000515    2.60  0.000707  (-0.004341  0.007020 -0.025280)
 17:    236.14   0.000979    4.95  0.001294  (-0.033898  0.009603  0.007240)
 18:    259.15   0.001396    7.06  0.001682  (-0.034265 -0.017338  0.014385)
 19:    273.90   0.000635    3.21  0.000724  ( 0.023278  0.013475 -0.000274)
 20:    311.41   0.000593    3.00  0.000594  ( 0.005162  0.012590 -0.020225)
 21:    330.74   0.000665    3.36  0.000627  (-0.023808  0.005856 -0.005106)
 22:    359.83   0.003198   16.16  0.002774  (-0.021615 -0.038637 -0.028524)
 23:    393.48   0.001667    8.42  0.001322  (-0.009741  0.017227 -0.030503)
 24:    427.42   0.001293    6.53  0.000944  ( 0.028237  0.010820  0.005419)
 25:    450.05   0.002242   11.33  0.001555  (-0.027302  0.017368 -0.022530)
 26:    482.59   0.000732    3.70  0.000473  (-0.014295  0.012086  0.011081)
 27:    535.94   0.004735   23.93  0.002757  ( 0.038589 -0.015275 -0.032163)
 28:    578.88   0.003350   16.93  0.001806  (-0.025158  0.022780 -0.025573)
 29:    610.47   0.001708    8.63  0.000873  ( 0.000518  0.009339 -0.028030)
 30:    620.68   0.004369   22.08  0.002197  (-0.033107 -0.026306 -0.020210)
 31:    680.09   0.002670   13.49  0.001225  ( 0.004699 -0.023870 -0.025162)
 32:    745.38   0.000542    2.74  0.000227  (-0.012168  0.005289 -0.007137)
 33:    786.18   0.005695   28.78  0.002261  (-0.031166 -0.030161 -0.019483)
 34:    890.08   0.001081    5.46  0.000379  (-0.000239 -0.014860 -0.012577)
 35:    944.92   0.000580    2.93  0.000192  ( 0.009871  0.008270  0.005070)
 36:    958.70   0.000426    2.15  0.000139  (-0.006184  0.009882 -0.001648)
 37:    963.99   0.000213    1.07  0.000069  (-0.004028 -0.004148 -0.005950)
 38:   1002.41   0.007809   39.46  0.002431  (-0.030576 -0.011204 -0.037021)
 39:   1013.26   0.005589   28.25  0.001721  (-0.008199  0.039436 -0.009948)
 40:   1063.29   0.003452   17.45  0.001013  (-0.019411 -0.001908 -0.025154)
 41:   1070.21   0.002458   12.42  0.000717  ( 0.011263 -0.007949 -0.022949)
 42:   1090.87   0.001813    9.16  0.000519  (-0.013022  0.017971 -0.005122)
 43:   1136.28   0.000183    0.93  0.000050  (-0.005695  0.002144  0.003641)
 44:   1151.20   0.006100   30.83  0.001654  ( 0.034188  0.018166  0.012445)
 45:   1158.82   0.004230   21.38  0.001139  ( 0.008066 -0.031289  0.009752)
 46:   1161.89   0.014135   71.43  0.003796  (-0.020647 -0.051770 -0.026267)
 47:   1184.09   0.001707    8.63  0.000450  (-0.007948 -0.015820 -0.011686)
 48:   1200.77   0.010741   54.28  0.002791  (-0.009356 -0.030277 -0.042274)
 49:   1235.34   0.007715   38.99  0.001949  (-0.003144 -0.034151  0.027796)
 50:   1277.19   0.030206  152.65  0.007380  (-0.063589  0.041141  0.040548)
 51:   1287.37   0.021691  109.62  0.005258  ( 0.064034 -0.027492  0.020048)
 52:   1368.82   0.000979    4.95  0.000223  (-0.006321 -0.013406 -0.001884)
 53:   1374.56   0.023995  121.26  0.005448  (-0.032507  0.064446 -0.015416)
 54:   1379.53   0.005420   27.39  0.001226  (-0.015708  0.031252  0.001597)
 55:   1416.06   0.008756   44.25  0.001930  (-0.036876  0.023427  0.004576)
 56:   1425.68   0.002743   13.86  0.000600  (-0.001010  0.016035  0.018502)
 57:   1440.49   0.009009   45.53  0.001952  ( 0.012869  0.019613  0.037435)
 58:   1441.98   0.006449   32.59  0.001396  (-0.009673 -0.034005 -0.012074)
 59:   1457.55   0.017084   86.34  0.003658  ( 0.044148  0.019667  0.036359)
 60:   1484.24   0.013268   67.05  0.002790  ( 0.020771 -0.047640  0.009419)
 61:   1490.00   0.002930   14.81  0.000614  ( 0.021652 -0.011665  0.002964)
 62:   1498.53   0.002172   10.98  0.000452  ( 0.021110  0.002359 -0.001060)
 63:   1502.75   0.000439    2.22  0.000091  ( 0.001755 -0.007211 -0.006011)
 64:   1507.02   0.000315    1.59  0.000065  ( 0.000397  0.007993 -0.001070)
 65:   1510.35   0.000990    5.00  0.000205  (-0.011745  0.007581 -0.003032)
 66:   1512.20   0.005960   30.12  0.001230  (-0.027786  0.004306  0.020962)
 67:   1517.57   0.004915   24.84  0.001011  (-0.025609  0.015999  0.009942)
 68:   1521.86   0.003301   16.68  0.000677  ( 0.019517  0.012461 -0.011862)
 69:   1524.12   0.005748   29.05  0.001177  (-0.003941  0.027214  0.020514)
 70:   1531.58   0.006052   30.58  0.001233  ( 0.006447  0.028256 -0.019826)
 71:   1541.76   0.010843   54.80  0.002195  ( 0.033000 -0.024255 -0.022748)
 72:   1556.57   0.015633   79.00  0.003134  ( 0.037825  0.006430  0.040769)
 73:   1691.67   0.113962  575.92  0.021023  (-0.006547 -0.142276  0.027155)
 74:   1711.25   0.101655  513.72  0.018538  ( 0.013282 -0.104393 -0.086391)
 75:   3034.93   0.006680   33.76  0.000687  (-0.011126  0.019360  0.013719)
 76:   3041.58   0.018381   92.89  0.001886  (-0.019233 -0.008810 -0.037926)
 77:   3057.76   0.005980   30.22  0.000610  (-0.015424 -0.004614 -0.018737)
 78:   3062.14   0.003357   16.96  0.000342  (-0.007894 -0.012774  0.010799)
 79:   3076.32   0.001104    5.58  0.000112  (-0.009701 -0.002748  0.003206)
 80:   3086.17   0.004482   22.65  0.000453  (-0.004515  0.009082  0.018718)
 81:   3092.56   0.014299   72.26  0.001443  ( 0.026761  0.026193 -0.006377)
 82:   3092.90   0.005389   27.23  0.000544  ( 0.014677  0.002634 -0.017926)
 83:   3095.77   0.001136    5.74  0.000115  ( 0.006500  0.004856 -0.006978)
 84:   3122.15   0.004115   20.79  0.000411  ( 0.005629 -0.010349  0.016507)
 85:   3127.38   0.011161   56.40  0.001114  (-0.001774 -0.033298  0.001334)
 86:   3138.57   0.006333   32.01  0.000630  ( 0.024817 -0.002738 -0.002517)
 87:   3148.06   0.008911   45.03  0.000883  ( 0.012120 -0.017700 -0.020572)
 88:   3151.68   0.003760   19.00  0.000372  (-0.013159  0.008300  0.011415)
 89:   3168.86   0.001972    9.97  0.000194  (-0.013610  0.000914 -0.002857)
 90:   3185.76   0.002807   14.18  0.000275  (-0.002943 -0.011870  0.011197)
 91:   3194.33   0.001111    5.61  0.000109  ( 0.009946 -0.001568 -0.002670)
 92:   3195.99   0.000454    2.30  0.000044  ( 0.000149 -0.006588  0.000969)

* The epsilon (eps) is given for a Dirac delta lineshape.
** The dipole moment derivative (T) already includes vibrational overlap.

The first frequency considered to be a vibration is 6
The total number of vibrations considered is 87


--------------------------
THERMOCHEMISTRY AT 298.15K
--------------------------

Temperature         ... 298.15 K
Pressure            ... 1.00 atm
Total Mass          ... 186.26 AMU

Throughout the following assumptions are being made:
  (1) The electronic state is orbitally nondegenerate
  (2) There are no thermally accessible electronically excited states
  (3) Hindered rotations indicated by low frequency modes are not
      treated as such but are treated as vibrations and this may
      cause some error
  (4) All equations used are the standard statistical mechanics
      equations for an ideal gas
  (5) All vibrations are strictly harmonic

freq.      45.66  E(vib)   ...       0.53 
freq.      61.34  E(vib)   ...       0.51 
freq.      78.11  E(vib)   ...       0.49 
freq.      81.42  E(vib)   ...       0.48 
freq.      96.03  E(vib)   ...       0.47 
freq.     112.20  E(vib)   ...       0.45 
freq.     144.38  E(vib)   ...       0.41 
freq.     167.18  E(vib)   ...       0.39 
freq.     178.09  E(vib)   ...       0.37 
freq.     214.12  E(vib)   ...       0.34 
freq.     227.11  E(vib)   ...       0.33 
freq.     236.14  E(vib)   ...       0.32 
freq.     259.15  E(vib)   ...       0.30 
freq.     273.90  E(vib)   ...       0.28 
freq.     311.41  E(vib)   ...       0.25 
freq.     330.74  E(vib)   ...       0.24 
freq.     359.83  E(vib)   ...       0.22 
freq.     393.48  E(vib)   ...       0.20 
freq.     427.42  E(vib)   ...       0.18 
freq.     450.05  E(vib)   ...       0.17 
freq.     482.59  E(vib)   ...       0.15 
freq.     535.94  E(vib)   ...       0.12 
freq.     578.88  E(vib)   ...       0.11 
freq.     610.47  E(vib)   ...       0.10 
freq.     620.68  E(vib)   ...       0.09 
freq.     680.09  E(vib)   ...       0.08 
freq.     745.38  E(vib)   ...       0.06 
freq.     786.18  E(vib)   ...       0.05 
freq.     890.08  E(vib)   ...       0.04 
freq.     944.92  E(vib)   ...       0.03 
freq.     958.70  E(vib)   ...       0.03 
freq.     963.99  E(vib)   ...       0.03 
freq.    1002.41  E(vib)   ...       0.02 
freq.    1013.26  E(vib)   ...       0.02 
freq.    1063.29  E(vib)   ...       0.02 
freq.    1070.21  E(vib)   ...       0.02 
freq.    1090.87  E(vib)   ...       0.02 
freq.    1136.28  E(vib)   ...       0.01 
freq.    1151.20  E(vib)   ...       0.01 
freq.    1158.82  E(vib)   ...       0.01 
freq.    1161.89  E(vib)   ...       0.01 
freq.    1184.09  E(vib)   ...       0.01 
freq.    1200.77  E(vib)   ...       0.01 
freq.    1235.34  E(vib)   ...       0.01 
freq.    1277.19  E(vib)   ...       0.01 
freq.    1287.37  E(vib)   ...       0.01 
freq.    1368.82  E(vib)   ...       0.01 
freq.    1374.56  E(vib)   ...       0.01 
freq.    1379.53  E(vib)   ...       0.01 
freq.    1416.06  E(vib)   ...       0.00 
freq.    1425.68  E(vib)   ...       0.00 
freq.    1440.49  E(vib)   ...       0.00 
freq.    1441.98  E(vib)   ...       0.00 
freq.    1457.55  E(vib)   ...       0.00 
freq.    1484.24  E(vib)   ...       0.00 
freq.    1490.00  E(vib)   ...       0.00 
freq.    1498.53  E(vib)   ...       0.00 
freq.    1502.75  E(vib)   ...       0.00 
freq.    1507.02  E(vib)   ...       0.00 
freq.    1510.35  E(vib)   ...       0.00 
freq.    1512.20  E(vib)   ...       0.00 
freq.    1517.57  E(vib)   ...       0.00 
freq.    1521.86  E(vib)   ...       0.00 
freq.    1524.12  E(vib)   ...       0.00 
freq.    1531.58  E(vib)   ...       0.00 
freq.    1541.76  E(vib)   ...       0.00 
freq.    1556.57  E(vib)   ...       0.00 
freq.    1691.67  E(vib)   ...       0.00 
freq.    1711.25  E(vib)   ...       0.00 
freq.    3034.93  E(vib)   ...       0.00 
freq.    3041.58  E(vib)   ...       0.00 
freq.    3057.76  E(vib)   ...       0.00 
freq.    3062.14  E(vib)   ...       0.00 
freq.    3076.32  E(vib)   ...       0.00 
freq.    3086.17  E(vib)   ...       0.00 
freq.    3092.56  E(vib)   ...       0.00 
freq.    3092.90  E(vib)   ...       0.00 
freq.    3095.77  E(vib)   ...       0.00 
freq.    3122.15  E(vib)   ...       0.00 
freq.    3127.38  E(vib)   ...       0.00 
freq.    3138.57  E(vib)   ...       0.00 
freq.    3148.06  E(vib)   ...       0.00 
freq.    3151.68  E(vib)   ...       0.00 
freq.    3168.86  E(vib)   ...       0.00 
freq.    3185.76  E(vib)   ...       0.00 
freq.    3194.33  E(vib)   ...       0.00 
freq.    3195.99  E(vib)   ...       0.00 

------------
INNER ENERGY
------------

The inner energy is: U= E(el) + E(ZPE) + E(vib) + E(rot) + E(trans)
    E(el)   - is the total energy from the electronic structure calculation
              = E(kin-el) + E(nuc-el) + E(el-el) + E(nuc-nuc)
    E(ZPE)  - the the zero temperature vibrational energy from the frequency calculation
    E(vib)  - the the finite temperature correction to E(ZPE) due to population
              of excited vibrational states
    E(rot)  - is the rotational thermal energy
    E(trans)- is the translational thermal energy

Summary of contributions to the inner energy U:
Electronic energy                ...   -613.44842383 Eh
Zero point energy                ...      0.27282807 Eh     171.20 kcal/mol
Thermal vibrational correction   ...      0.01284336 Eh       8.06 kcal/mol
Thermal rotational correction    ...      0.00141627 Eh       0.89 kcal/mol
Thermal translational correction ...      0.00141627 Eh       0.89 kcal/mol
-----------------------------------------------------------------------
Total thermal energy                   -613.15991986 Eh


Summary of corrections to the electronic energy:
(perhaps to be used in another calculation)
Total thermal correction                  0.01567591 Eh       9.84 kcal/mol
Non-thermal (ZPE) correction              0.27282807 Eh     171.20 kcal/mol
-----------------------------------------------------------------------
Total correction                          0.28850398 Eh     181.04 kcal/mol


--------
ENTHALPY
--------

The enthalpy is H = U + kB*T
                kB is Boltzmann's constant
Total free energy                 ...   -613.15991986 Eh 
Thermal Enthalpy correction       ...      0.00094421 Eh       0.59 kcal/mol
-----------------------------------------------------------------------
Total Enthalpy                    ...   -613.15897565 Eh


Note: Only C1 symmetry has been detected, increase convergence thresholds 
      if your molecule has a higher symmetry. Symmetry factor of 1.0 is   
      used for the rotational entropy correction. 
 

Note: Rotational entropy computed according to Herzberg 
Infrared and Raman Spectra, Chapter V,1, Van Nostrand Reinhold, 1945 
Point Group:  C1, Symmetry Number:   1  
Rotational constants in cm-1:     0.036153     0.019890     0.016709 

Vibrational entropy computed according to the QRRHO of S. Grimme
Chem.Eur.J. 2012 18 9955


-------
ENTROPY
-------

The entropy contributions are T*S = T*(S(el)+S(vib)+S(rot)+S(trans))
     S(el)   - electronic entropy
     S(vib)  - vibrational entropy
     S(rot)  - rotational entropy
     S(trans)- translational entropy
The entropies will be listed as multiplied by the temperature to get
units of energy

Electronic entropy                ...      0.00000000 Eh      0.00 kcal/mol
Vibrational entropy               ...      0.02275291 Eh     14.28 kcal/mol
Rotational entropy                ...      0.01485929 Eh      9.32 kcal/mol
Translational entropy             ...      0.01975209 Eh     12.39 kcal/mol
-----------------------------------------------------------------------
Final entropy term                ...      0.05736429 Eh     36.00 kcal/mol

In case the symmetry of your molecule has not been determined correctly
or in case you have a reason to use a different symmetry number we print 
out the resulting rotational entropy values for sn=1,12 :
 --------------------------------------------------------
|  sn= 1 | S(rot)=       0.01485929 Eh      9.32 kcal/mol|
|  sn= 2 | S(rot)=       0.01420483 Eh      8.91 kcal/mol|
|  sn= 3 | S(rot)=       0.01382200 Eh      8.67 kcal/mol|
|  sn= 4 | S(rot)=       0.01355037 Eh      8.50 kcal/mol|
|  sn= 5 | S(rot)=       0.01333969 Eh      8.37 kcal/mol|
|  sn= 6 | S(rot)=       0.01316754 Eh      8.26 kcal/mol|
|  sn= 7 | S(rot)=       0.01302200 Eh      8.17 kcal/mol|
|  sn= 8 | S(rot)=       0.01289592 Eh      8.09 kcal/mol|
|  sn= 9 | S(rot)=       0.01278471 Eh      8.02 kcal/mol|
|  sn=10 | S(rot)=       0.01268523 Eh      7.96 kcal/mol|
|  sn=11 | S(rot)=       0.01259524 Eh      7.90 kcal/mol|
|  sn=12 | S(rot)=       0.01251309 Eh      7.85 kcal/mol|
 --------------------------------------------------------


-------------------
GIBBS FREE ENERGY
-------------------

The Gibbs free energy is G = H - T*S

Total enthalpy                    ...   -613.15897565 Eh 
Total entropy correction          ...     -0.05736429 Eh    -36.00 kcal/mol
-----------------------------------------------------------------------
Final Gibbs free energy         ...   -613.21633993 Eh

For completeness - the Gibbs free energy minus the electronic energy
G-E(el)                           ...      0.23208390 Eh    145.63 kcal/mol


Timings for individual modules:

Sum of individual times         ...     1231.067 sec (=  20.518 min)
GTO integral calculation        ...       13.360 sec (=   0.223 min)   1.1 %
SCF iterations                  ...      542.747 sec (=   9.046 min)  44.1 %
SCF Gradient evaluation         ...      159.733 sec (=   2.662 min)  13.0 %
Geometry relaxation             ...        1.108 sec (=   0.018 min)   0.1 %
Analytical frequency calculation...      514.119 sec (=   8.569 min)  41.8 %
                             ****ORCA TERMINATED NORMALLY****
TOTAL RUN TIME: 0 days 0 hours 20 minutes 36 seconds 259 msec
