
                                 *****************
                                 * O   R   C   A *
                                 *****************

                                            #,                                       
                                            ###                                      
                                            ####                                     
                                            #####                                    
                                            ######                                   
                                           ########,                                 
                                     ,,################,,,,,                         
                               ,,#################################,,                 
                          ,,##########################################,,             
                       ,#########################################, ''#####,          
                    ,#############################################,,   '####,        
                  ,##################################################,,,,####,       
                ,###########''''           ''''###############################       
              ,#####''   ,,,,##########,,,,          '''####'''          '####       
            ,##' ,,,,###########################,,,                        '##       
           ' ,,###''''                  '''############,,,                           
         ,,##''                                '''############,,,,        ,,,,,,###''
      ,#''                                            '''#######################'''  
     '                                                          ''''####''''         
             ,#######,   #######,   ,#######,      ##                                
            ,#'     '#,  ##    ##  ,#'     '#,    #''#        ######   ,####,        
            ##       ##  ##   ,#'  ##            #'  '#       #        #'  '#        
            ##       ##  #######   ##           ,######,      #####,   #    #        
            '#,     ,#'  ##    ##  '#,     ,#' ,#      #,         ##   #,  ,#        
             '#######'   ##     ##  '#######'  #'      '#     #####' # '####'        



                  #######################################################
                  #                        -***-                        #
                  #          Department of theory and spectroscopy      #
                  #    Directorship and core code : Frank Neese         #
                  #        Max Planck Institute fuer Kohlenforschung    #
                  #                Kaiser Wilhelm Platz 1               #
                  #                 D-45470 Muelheim/Ruhr               #
                  #                      Germany                        #
                  #                                                     #
                  #                  All rights reserved                #
                  #                        -***-                        #
                  #######################################################


                         Program Version 5.0.4 -  RELEASE  -


 With contributions from (in alphabetic order):
   Daniel Aravena         : Magnetic Suceptibility
   Michael Atanasov       : Ab Initio Ligand Field Theory (pilot matlab implementation)
   Alexander A. Auer      : GIAO ZORA, VPT2 properties, NMR spectrum
   Ute Becker             : Parallelization
   Giovanni Bistoni       : ED, misc. LED, open-shell LED, HFLD
   Martin Brehm           : Molecular dynamics
   Dmytro Bykov           : SCF Hessian
   Vijay G. Chilkuri      : MRCI spin determinant printing, contributions to CSF-ICE
   Dipayan Datta          : RHF DLPNO-CCSD density
   Achintya Kumar Dutta   : EOM-CC, STEOM-CC
   Dmitry Ganyushin       : Spin-Orbit,Spin-Spin,Magnetic field MRCI
   Miquel Garcia          : C-PCM and meta-GGA Hessian, CC/C-PCM, Gaussian charge scheme
   Yang Guo               : DLPNO-NEVPT2, F12-NEVPT2, CIM, IAO-localization
   Andreas Hansen         : Spin unrestricted coupled pair/coupled cluster methods
   Benjamin Helmich-Paris : MC-RPA, TRAH-SCF, COSX integrals
   Lee Huntington         : MR-EOM, pCC
   Robert Izsak           : Overlap fitted RIJCOSX, COSX-SCS-MP3, EOM
   Marcus Kettner         : VPT2
   Christian Kollmar      : KDIIS, OOCD, Brueckner-CCSD(T), CCSD density, CASPT2, CASPT2-K
   Simone Kossmann        : Meta GGA functionals, TD-DFT gradient, OOMP2, MP2 Hessian
   Martin Krupicka        : Initial AUTO-CI
   Lucas Lang             : DCDCAS
   Marvin Lechner         : AUTO-CI (C++ implementation), FIC-MRCC
   Dagmar Lenk            : GEPOL surface, SMD
   Dimitrios Liakos       : Extrapolation schemes; Compound Job, initial MDCI parallelization
   Dimitrios Manganas     : Further ROCIS development; embedding schemes
   Dimitrios Pantazis     : SARC Basis sets
   Anastasios Papadopoulos: AUTO-CI, single reference methods and gradients
   Taras Petrenko         : DFT Hessian,TD-DFT gradient, ASA, ECA, R-Raman, ABS, FL, XAS/XES, NRVS
   Peter Pinski           : DLPNO-MP2, DLPNO-MP2 Gradient
   Christoph Reimann      : Effective Core Potentials
   Marius Retegan         : Local ZFS, SOC
   Christoph Riplinger    : Optimizer, TS searches, QM/MM, DLPNO-CCSD(T), (RO)-DLPNO pert. Triples
   Tobias Risthaus        : Range-separated hybrids, TD-DFT gradient, RPA, STAB
   Michael Roemelt        : Original ROCIS implementation
   Masaaki Saitow         : Open-shell DLPNO-CCSD energy and density
   Barbara Sandhoefer     : DKH picture change effects
   Avijit Sen             : IP-ROCIS
   Kantharuban Sivalingam : CASSCF convergence, NEVPT2, FIC-MRCI
   Bernardo de Souza      : ESD, SOC TD-DFT
   Georgi Stoychev        : AutoAux, RI-MP2 NMR, DLPNO-MP2 response
   Willem Van den Heuvel  : Paramagnetic NMR
   Boris Wezisla          : Elementary symmetry handling
   Frank Wennmohs         : Technical directorship


 We gratefully acknowledge several colleagues who have allowed us to
 interface, adapt or use parts of their codes:
   Stefan Grimme, W. Hujo, H. Kruse, P. Pracht,  : VdW corrections, initial TS optimization,
                  C. Bannwarth, S. Ehlert          DFT functionals, gCP, sTDA/sTD-DF
   Ed Valeev, F. Pavosevic, A. Kumar             : LibInt (2-el integral package), F12 methods
   Garnet Chan, S. Sharma, J. Yang, R. Olivares  : DMRG
   Ulf Ekstrom                                   : XCFun DFT Library
   Mihaly Kallay                                 : mrcc  (arbitrary order and MRCC methods)
   Jiri Pittner, Ondrej Demel                    : Mk-CCSD
   Frank Weinhold                                : gennbo (NPA and NBO analysis)
   Christopher J. Cramer and Donald G. Truhlar   : smd solvation model
   Lars Goerigk                                  : TD-DFT with DH, B97 family of functionals
   V. Asgeirsson, H. Jonsson                     : NEB implementation
   FAccTs GmbH                                   : IRC, NEB, NEB-TS, DLPNO-Multilevel, CI-OPT
                                                   MM, QMMM, 2- and 3-layer-ONIOM, Crystal-QMMM,
                                                   LR-CPCM, SF, NACMEs, symmetry and pop. for TD-DFT,
                                                   nearIR, NL-DFT gradient (VV10), updates on ESD,
                                                   ML-optimized integration grids
   S Lehtola, MJT Oliveira, MAL Marques          : LibXC Library
   Liviu Ungur et al                             : ANISO software


 Your calculation uses the libint2 library for the computation of 2-el integrals
 For citations please refer to: http://libint.valeyev.net

 Your ORCA version has been built with support for libXC version: 5.1.0
 For citations please refer to: https://tddft.org/programs/libxc/

 This ORCA versions uses:
   CBLAS   interface :  Fast vector & matrix operations
   LAPACKE interface :  Fast linear algebra routines
   SCALAPACK package :  Parallel linear algebra routines
   Shared memory     :  Shared parallel matrices
   BLAS/LAPACK       :  OpenBLAS 0.3.15  USE64BITINT DYNAMIC_ARCH NO_AFFINITY SkylakeX SINGLE_THREADED
        Core in use  :  SkylakeX
   Copyright (c) 2011-2014, The OpenBLAS Project




***************************************
The coordinates will be read from file: /users/fjb15167/WWenergy/structures/NfeBr.xyz
***************************************


Your calculation utilizes the atom-pairwise dispersion correction
based on tight binding partial charges (D4)
Cite in your paper:
E.Caldeweyher, C.Bannwarth, S.Grimme, J.Chem.Phys., (2017), 147, 034112.
E.Caldeweyher, S.Ehlert, A.Hansen, H.Neugebauer, S.Grimme, J.Chem.Phys., (2018), in progress.
   

================================================================================

----- Orbital basis set information -----
Your calculation utilizes the basis: 6-311G(d)
   H, Li - Ne  : R. Krishnan, J. S. Binkley, R. Seeger and J. A. Pople, J. Chem. Phys. 72, 650 (1980).
   Na - Ar     : A. D. McLean and G. S. Chandler J. Chem. Phys. 72, 5639, (1980).
   K  - Ca     : J.-P. Blaudeau, M. P. McGrath, L. A. Curtiss and L. Radom, J. Chem. Phys. 107, 5016 (1997).
   Ga - Kr     : L. A. Curtiss, M. P. McGrath, J.-P. Blandeau, N. E. Davis, R. C. Binning and L. Radom, J. Chem. Phys. 103, 6104 (1995).
   Pol./Diff.
   H, Li - Cl  : T. Clark, J. Chandrasekhar and P. v. R. Schleyer, J. Comp. Chem. 4, 294 (1983).
   H - Ne      : M. J. Frisch, J. A. Pople and J. S. Binkley, J. Chem. Phys. 80, 3265 (1984).

----- AuxJ basis set information -----
Your calculation utilizes the AutoAux generation procedure.
  G. L. Stoychev, A. A. Auer, F. Neese, J. Chem. Theory Comput. 13, 554 (2017)

----- AuxC basis set information -----
Your calculation utilizes the AutoAux generation procedure.
  G. L. Stoychev, A. A. Auer, F. Neese, J. Chem. Theory Comput. 13, 554 (2017)

----- AuxJK basis set information -----
Your calculation utilizes the AutoAux generation procedure.
  G. L. Stoychev, A. A. Auer, F. Neese, J. Chem. Theory Comput. 13, 554 (2017)

================================================================================
                                        WARNINGS
                       Please study these warnings very carefully!
================================================================================


WARNING: Geometry Optimization
  ===> : Switching off AutoStart
         For restart on a previous wavefunction, please use MOREAD

INFO   : the flag for use of the SHARK integral package has been found!

================================================================================
                                       INPUT FILE
================================================================================
NAME = NfeBr_gas.inp
|  1> ! OPT FREQ B3LYP 6-311G(d) D4 AUTOAUX
|  2> 
|  3> %PAL NPROCS 4 END
|  4> 
|  5> %maxcore 3375
|  6> 
|  7> *xyzfile 0 1 /users/fjb15167/WWenergy/structures/NfeBr.xyz
|  8> 
|  9>                          ****END OF INPUT****
================================================================================

                       *****************************
                       * Geometry Optimization Run *
                       *****************************

Geometry optimization settings:
Update method            Update   .... BFGS
Choice of coordinates    CoordSys .... Z-matrix Internals
Initial Hessian          InHess   .... Almoef's Model

Convergence Tolerances:
Energy Change            TolE     ....  5.0000e-06 Eh
Max. Gradient            TolMAXG  ....  3.0000e-04 Eh/bohr
RMS Gradient             TolRMSG  ....  1.0000e-04 Eh/bohr
Max. Displacement        TolMAXD  ....  4.0000e-03 bohr
RMS Displacement         TolRMSD  ....  2.0000e-03 bohr
Strict Convergence                ....  False
------------------------------------------------------------------------------
                        ORCA OPTIMIZATION COORDINATE SETUP
------------------------------------------------------------------------------

The optimization will be done in new redundant internal coordinates
Making redundant internal coordinates   ...  (new redundants) done
Evaluating the initial hessian          ...  (Almloef) done
Evaluating the coordinates              ...  done
Calculating the B-matrix                .... done
Calculating the G-matrix                .... done
Diagonalizing the G-matrix              .... done
Small eigenvalue found = 2.691e-03
Small eigenvalue found = 4.821e-03
Small eigenvalue found = 6.932e-03
Small eigenvalue found = 1.141e-02
Small eigenvalue found = 2.007e-02
Small eigenvalue found = 2.168e-02
Small eigenvalue found = 2.800e-02
The first mode is                       ....   79
The number of degrees of freedom        ....  108

    -----------------------------------------------------------------
                    Redundant Internal Coordinates


    -----------------------------------------------------------------
         Definition                    Initial Value    Approx d2E/dq
    -----------------------------------------------------------------
      1. B(H   1,C   0)                  1.0929         0.356236   
      2. B(H   2,C   0)                  1.0943         0.354463   
      3. B(H   3,C   0)                  1.0894         0.360887   
      4. B(C   4,C   0)                  1.5158         0.393545   
      5. B(O   5,C   4)                  1.2388         0.975396   
      6. B(N   6,C   4)                  1.3734         0.594794   
      7. B(C   7,N   6)                  1.4605         0.431970   
      8. B(H   8,C   7)                  1.0954         0.353079   
      9. B(H   9,C   7)                  1.0896         0.360642   
     10. B(C  10,N   6)                  1.4619         0.429661   
     11. B(H  11,C  10)                  1.0944         0.354375   
     12. B(H  12,C  10)                  1.0945         0.354192   
     13. B(C  13,C  10)                  1.5379         0.362912   
     14. B(H  14,C  13)                  1.0942         0.354553   
     15. B(H  15,C  13)                  1.0960         0.352208   
     16. B(C  16,C  13)                  1.5041         0.410878   
     17. B(C  17,C  16)                  1.4040         0.593464   
     18. B(C  18,C  16)                  1.3993         0.603914   
     19. B(C  19,C  17)                  1.3945         0.614460   
     20. B(H  20,C  17)                  1.0890         0.361457   
     21. B(C  21,C  18)                  1.3965         0.609963   
     22. B(H  22,C  18)                  1.0889         0.361585   
     23. B(C  23,C  21)                  1.3937         0.616341   
     24. B(C  23,C  19)                  1.3960         0.611180   
     25. B(H  24,C  19)                  1.0864         0.364875   
     26. B(H  25,C  21)                  1.0858         0.365748   
     27. B(C  26,C   7)                  1.5253         0.380059   
     28. B(N  27,C  26)                  1.3625         0.619140   
     29. B(O  28,C  26)                  1.2422         0.963236   
     30. B(C  29,N  27)                  1.4559         0.439208   
     31. B(H  30,C  29)                  1.0972         0.350721   
     32. B(H  31,C  29)                  1.0950         0.353496   
     33. B(H  32,C  29)                  1.0881         0.362637   
     34. B(C  33,N  27)                  1.4558         0.439480   
     35. B(H  34,C  33)                  1.0970         0.351003   
     36. B(H  35,C  33)                  1.0882         0.362485   
     37. B(H  36,C  33)                  1.0938         0.355152   
     38. B(Br 37,C  23)                  1.9079         0.313242   
     39. A(H   2,C   0,C   4)          110.8084         0.326260   
     40. A(H   1,C   0,H   3)          109.4527         0.290447   
     41. A(H   2,C   0,H   3)          108.9701         0.290219   
     42. A(H   1,C   0,H   2)          108.0242         0.289629   
     43. A(H   3,C   0,C   4)          107.1341         0.327227   
     44. A(H   1,C   0,C   4)          112.4035         0.326528   
     45. A(C   0,C   4,O   5)          121.0700         0.431118   
     46. A(C   0,C   4,N   6)          116.9358         0.394883   
     47. A(O   5,C   4,N   6)          121.9874         0.461552   
     48. A(C   7,N   6,C  10)          115.9766         0.376844   
     49. A(C   4,N   6,C  10)          124.8108         0.398455   
     50. A(C   4,N   6,C   7)          119.1338         0.398831   
     51. A(N   6,C   7,H   9)          107.9302         0.330264   
     52. A(H   8,C   7,H   9)          108.9831         0.290010   
     53. A(N   6,C   7,C  26)          111.0273         0.371284   
     54. A(H   8,C   7,C  26)          105.4203         0.324187   
     55. A(N   6,C   7,H   8)          109.5575         0.329109   
     56. A(H   9,C   7,C  26)          113.8495         0.325317   
     57. A(H  12,C  10,C  13)          108.8273         0.321908   
     58. A(H  11,C  10,C  13)          110.0092         0.321935   
     59. A(N   6,C  10,C  13)          113.5596         0.368012   
     60. A(H  11,C  10,H  12)          107.1128         0.289357   
     61. A(N   6,C  10,H  12)          106.8661         0.328989   
     62. A(N   6,C  10,H  11)          110.2095         0.329017   
     63. A(H  15,C  13,C  16)          110.4754         0.328240   
     64. A(H  14,C  13,C  16)          109.7973         0.328600   
     65. A(C  10,C  13,C  16)          110.4780         0.367494   
     66. A(H  14,C  13,H  15)          107.1137         0.289125   
     67. A(C  10,C  13,H  15)          109.9523         0.321612   
     68. A(C  10,C  13,H  14)          108.9514         0.321962   
     69. A(C  17,C  16,C  18)          118.8912         0.428640   
     70. A(C  13,C  16,C  17)          119.3554         0.400287   
     71. A(C  13,C  16,C  18)          121.6793         0.401519   
     72. A(C  16,C  17,C  19)          120.7859         0.429973   
     73. A(C  19,C  17,H  20)          119.9007         0.352598   
     74. A(C  16,C  17,H  20)          119.3124         0.350532   
     75. A(C  21,C  18,H  22)          119.1482         0.352181   
     76. A(C  16,C  18,H  22)          119.7498         0.351588   
     77. A(C  16,C  18,C  21)          121.0943         0.430754   
     78. A(C  23,C  19,H  24)          120.1891         0.352840   
     79. A(C  17,C  19,H  24)          120.7877         0.353160   
     80. A(C  17,C  19,C  23)          119.0230         0.432251   
     81. A(C  23,C  21,H  25)          120.2559         0.353486   
     82. A(C  18,C  21,H  25)          120.9547         0.352864   
     83. A(C  18,C  21,C  23)          118.7894         0.432333   
     84. A(C  19,C  23,C  21)          121.4104         0.432488   
     85. A(C  21,C  23,Br 37)          119.2406         0.409349   
     86. A(C  19,C  23,Br 37)          119.3484         0.408740   
     87. A(N  27,C  26,O  28)          122.7353         0.463884   
     88. A(C   7,C  26,O  28)          119.1178         0.427466   
     89. A(C   7,C  26,N  27)          118.1196         0.395247   
     90. A(C  29,N  27,C  33)          115.4010         0.379410   
     91. A(C  26,N  27,C  33)          118.3289         0.402879   
     92. A(C  26,N  27,C  29)          125.3210         0.402835   
     93. A(H  31,C  29,H  32)          108.9099         0.290315   
     94. A(H  30,C  29,H  32)          108.4492         0.289957   
     95. A(N  27,C  29,H  32)          111.9514         0.331476   
     96. A(H  30,C  29,H  31)          108.2290         0.288799   
     97. A(N  27,C  29,H  31)          109.1334         0.330079   
     98. A(N  27,C  29,H  30)          110.0876         0.329649   
     99. A(H  34,C  33,H  36)          108.6572         0.289046   
    100. A(N  27,C  33,H  36)          109.1897         0.330368   
    101. A(H  34,C  33,H  35)          109.3816         0.289974   
    102. A(N  27,C  33,H  35)          108.6519         0.331487   
    103. A(N  27,C  33,H  34)          110.8117         0.329726   
    104. A(H  35,C  33,H  36)          110.1436         0.290509   
    105. D(N   6,C   4,C   0,H   2)    -67.6275         0.011512   
    106. D(O   5,C   4,C   0,H   1)   -127.5771         0.011512   
    107. D(N   6,C   4,C   0,H   1)     53.3498         0.011512   
    108. D(O   5,C   4,C   0,H   2)    111.4457         0.011512   
    109. D(O   5,C   4,C   0,H   3)     -7.3097         0.011512   
    110. D(N   6,C   4,C   0,H   3)    173.6172         0.011512   
    111. D(C   7,N   6,C   4,O   5)     -5.4228         0.028472   
    112. D(C  10,N   6,C   4,C   0)     -2.9940         0.028472   
    113. D(C  10,N   6,C   4,O   5)    177.9420         0.028472   
    114. D(C   7,N   6,C   4,C   0)    173.6412         0.028472   
    115. D(C  26,C   7,N   6,C   4)    126.7246         0.015909   
    116. D(H   8,C   7,N   6,C   4)   -117.2436         0.015909   
    117. D(H   9,C   7,N   6,C  10)    178.2237         0.015909   
    118. D(H   8,C   7,N   6,C  10)     59.6835         0.015909   
    119. D(H   9,C   7,N   6,C   4)      1.2966         0.015909   
    120. D(C  26,C   7,N   6,C  10)    -56.3483         0.015909   
    121. D(C  13,C  10,N   6,C   7)     95.2003         0.015739   
    122. D(C  13,C  10,N   6,C   4)    -88.0691         0.015739   
    123. D(H  12,C  10,N   6,C   7)    -24.8055         0.015739   
    124. D(H  11,C  10,N   6,C   7)   -140.8620         0.015739   
    125. D(H  11,C  10,N   6,C   4)     35.8687         0.015739   
    126. D(H  12,C  10,N   6,C   4)    151.9252         0.015739   
    127. D(C  16,C  13,C  10,N   6)   -165.9890         0.010555   
    128. D(C  16,C  13,C  10,H  11)     69.9645         0.010555   
    129. D(H  15,C  13,C  10,H  12)   -169.2976         0.010555   
    130. D(H  15,C  13,C  10,H  11)    -52.2314         0.010555   
    131. D(H  15,C  13,C  10,N   6)     71.8151         0.010555   
    132. D(H  14,C  13,C  10,H  12)     73.5951         0.010555   
    133. D(H  14,C  13,C  10,H  11)   -169.3387         0.010555   
    134. D(C  16,C  13,C  10,H  12)    -47.1017         0.010555   
    135. D(H  14,C  13,C  10,N   6)    -45.2921         0.010555   
    136. D(C  18,C  16,C  13,H  15)     22.8222         0.012501   
    137. D(C  18,C  16,C  13,H  14)    140.7433         0.012501   
    138. D(C  18,C  16,C  13,C  10)    -99.0660         0.012501   
    139. D(C  17,C  16,C  13,H  15)   -160.3447         0.012501   
    140. D(C  17,C  16,C  13,H  14)    -42.4236         0.012501   
    141. D(C  17,C  16,C  13,C  10)     77.7671         0.012501   
    142. D(H  20,C  17,C  16,C  18)    179.5171         0.024252   
    143. D(H  20,C  17,C  16,C  13)      2.5951         0.024252   
    144. D(C  19,C  17,C  16,C  18)     -0.8418         0.024252   
    145. D(C  19,C  17,C  16,C  13)   -177.7638         0.024252   
    146. D(H  22,C  18,C  16,C  17)    179.8343         0.025160   
    147. D(H  22,C  18,C  16,C  13)     -3.3183         0.025160   
    148. D(C  21,C  18,C  16,C  17)      0.8543         0.025160   
    149. D(C  21,C  18,C  16,C  13)    177.7017         0.025160   
    150. D(H  24,C  19,C  17,H  20)      0.0364         0.026098   
    151. D(H  24,C  19,C  17,C  16)   -179.6026         0.026098   
    152. D(C  23,C  19,C  17,H  20)   -179.8249         0.026098   
    153. D(C  23,C  19,C  17,C  16)      0.5361         0.026098   
    154. D(H  25,C  21,C  18,H  22)      0.5160         0.025696   
    155. D(H  25,C  21,C  18,C  16)    179.5021         0.025696   
    156. D(C  23,C  21,C  18,H  22)   -179.5442         0.025696   
    157. D(C  23,C  21,C  18,C  16)     -0.5581         0.025696   
    158. D(Br 37,C  23,C  21,H  25)     -0.1143         0.026268   
    159. D(Br 37,C  23,C  21,C  18)    179.9455         0.026268   
    160. D(C  19,C  23,C  21,H  25)   -179.8182         0.026268   
    161. D(C  19,C  23,C  21,C  18)      0.2415         0.026268   
    162. D(Br 37,C  23,C  19,H  24)      0.2017         0.025804   
    163. D(Br 37,C  23,C  19,C  17)   -179.9362         0.025804   
    164. D(C  21,C  23,C  19,H  24)    179.9053         0.025804   
    165. D(C  21,C  23,C  19,C  17)     -0.2326         0.025804   
    166. D(N  27,C  26,C   7,H   8)    162.1720         0.010778   
    167. D(N  27,C  26,C   7,N   6)    -79.2693         0.010778   
    168. D(O  28,C  26,C   7,H   9)   -139.0723         0.010778   
    169. D(O  28,C  26,C   7,H   8)    -19.6739         0.010778   
    170. D(O  28,C  26,C   7,N   6)     98.8847         0.010778   
    171. D(N  27,C  26,C   7,H   9)     42.7737         0.010778   
    172. D(C  33,N  27,C  26,O  28)     -2.0972         0.031034   
    173. D(C  33,N  27,C  26,C   7)    175.9856         0.031034   
    174. D(C  29,N  27,C  26,O  28)   -170.4046         0.031034   
    175. D(C  29,N  27,C  26,C   7)      7.6782         0.031034   
    176. D(H  32,C  29,N  27,C  33)    178.0397         0.016449   
    177. D(H  32,C  29,N  27,C  26)    -13.3499         0.016449   
    178. D(H  31,C  29,N  27,C  33)     57.3977         0.016449   
    179. D(H  31,C  29,N  27,C  26)   -133.9919         0.016449   
    180. D(H  30,C  29,N  27,C  33)    -61.2504         0.016449   
    181. D(H  30,C  29,N  27,C  26)    107.3600         0.016449   
    182. D(H  36,C  33,N  27,C  29)    -52.1728         0.016469   
    183. D(H  36,C  33,N  27,C  26)    138.3748         0.016469   
    184. D(H  35,C  33,N  27,C  29)   -172.3268         0.016469   
    185. D(H  35,C  33,N  27,C  26)     18.2208         0.016469   
    186. D(H  34,C  33,N  27,C  29)     67.4744         0.016469   
    187. D(H  34,C  33,N  27,C  26)   -101.9781         0.016469   
    -----------------------------------------------------------------

Number of atoms                         .... 38
Number of degrees of freedom            .... 187

         *************************************************************
         *                GEOMETRY OPTIMIZATION CYCLE   1            *
         *************************************************************
---------------------------------
CARTESIAN COORDINATES (ANGSTROEM)
---------------------------------
  C      3.113000    3.180000    0.302000
  H      2.358000    2.998000    1.071000
  H      2.647000    3.762000   -0.499000
  H      3.933000    3.757000    0.728000
  C      3.706000    1.895000   -0.241000
  O      4.932000    1.721000   -0.275000
  N      2.824000    0.951000   -0.707000
  C      3.344000   -0.243000   -1.368000
  H      2.998000   -0.267000   -2.407000
  H      4.432000   -0.185000   -1.358000
  C      1.368000    1.073000   -0.658000
  H      1.070000    2.113000   -0.823000
  H      0.972000    0.488000   -1.494000
  C      0.751000    0.550000    0.650000
  H      1.206000   -0.414000    0.897000
  H      0.982000    1.236000    1.473000
  C     -0.737000    0.388000    0.502000
  C     -1.243000   -0.727000   -0.185000
  C     -1.632000    1.354000    0.975000
  C     -2.615000   -0.883000   -0.380000
  H     -0.552000   -1.479000   -0.563000
  C     -3.009000    1.214000    0.789000
  H     -1.255000    2.223000    1.512000
  C     -3.484000    0.094000    0.109000
  H     -3.007000   -1.749000   -0.906000
  H     -3.702000    1.961000    1.164000
  C      2.788000   -1.510000   -0.726000
  N      3.348000   -1.938000    0.440000
  O      1.828000   -2.088000   -1.262000
  C      4.335000   -1.204000    1.219000
  H      3.875000   -0.808000    2.133000
  H      5.142000   -1.885000    1.509000
  H      4.759000   -0.373000    0.659000
  C      2.764000   -3.095000    1.103000
  H      2.141000   -2.785000    1.951000
  H      2.152000   -3.636000    0.384000
  H      3.566000   -3.739000    1.475000
  Br    -5.363000   -0.111000   -0.151000

----------------------------
CARTESIAN COORDINATES (A.U.)
----------------------------
  NO LB      ZA    FRAG     MASS         X           Y           Z
   0 C     6.0000    0    12.011    5.882717    6.009329    0.570697
   1 H     1.0000    0     1.008    4.455974    5.665399    2.023897
   2 H     1.0000    0     1.008    5.002105    7.109150   -0.942973
   3 H     1.0000    0     1.008    7.432293    7.099701    1.375721
   4 C     6.0000    0    12.011    7.003325    3.581031   -0.455424
   5 O     8.0000    0    15.999    9.320129    3.252219   -0.519675
   6 N     7.0000    0    14.007    5.336587    1.797130   -1.336036
   7 C     6.0000    0    12.011    6.319244   -0.459203   -2.585145
   8 H     1.0000    0     1.008    5.665399   -0.504557   -4.548571
   9 H     1.0000    0     1.008    8.375266   -0.349599   -2.566248
  10 C     6.0000    0    12.011    2.585145    2.027676   -1.243440
  11 H     1.0000    0     1.008    2.022007    3.992991   -1.555245
  12 H     1.0000    0     1.008    1.836814    0.922186   -2.823251
  13 C     6.0000    0    12.011    1.419184    1.039349    1.228322
  14 H     1.0000    0     1.008    2.279010   -0.782347    1.695084
  15 H     1.0000    0     1.008    1.855711    2.335702    2.783567
  16 C     6.0000    0    12.011   -1.392728    0.733214    0.948643
  17 C     6.0000    0    12.011   -2.348930   -1.373831   -0.349599
  18 C     6.0000    0    12.011   -3.084033    2.558689    1.842483
  19 C     6.0000    0    12.011   -4.941634   -1.668628   -0.718096
  20 H     1.0000    0     1.008   -1.043129   -2.794905   -1.063916
  21 C     6.0000    0    12.011   -5.686186    2.294128    1.490994
  22 H     1.0000    0     1.008   -2.371606    4.200861    2.857266
  23 C     6.0000    0    12.011   -6.583806    0.177634    0.205980
  24 H     1.0000    0     1.008   -5.682406   -3.305131   -1.712092
  25 H     1.0000    0     1.008   -6.995766    3.705753    2.199641
  26 C     6.0000    0    12.011    5.268556   -2.853486   -1.371941
  27 N     7.0000    0    14.007    6.326803   -3.662289    0.831479
  28 O     8.0000    0    15.999    3.454419   -3.945748   -2.384834
  29 C     6.0000    0    12.011    8.191963   -2.275230    2.303576
  30 H     1.0000    0     1.008    7.322689   -1.526899    4.030786
  31 H     1.0000    0     1.008    9.716972   -3.562134    2.851597
  32 H     1.0000    0     1.008    8.993207   -0.704868    1.245330
  33 C     6.0000    0    12.011    5.223203   -5.848702    2.084368
  34 H     1.0000    0     1.008    4.045904   -5.262887    3.686856
  35 H     1.0000    0     1.008    4.066691   -6.871044    0.725655
  36 H     1.0000    0     1.008    6.738763   -7.065686    2.787346
  37 Br   35.0000    0    79.900  -10.134601   -0.209760   -0.285349

--------------------------------
INTERNAL COORDINATES (ANGSTROEM)
--------------------------------
 C      0   0   0     0.000000000000     0.00000000     0.00000000
 H      1   0   0     1.092936411691     0.00000000     0.00000000
 H      1   2   0     1.094294750056   108.02419775     0.00000000
 H      1   2   3     1.089405801343   109.45265545   118.52024246
 C      1   2   3     1.515824198250   112.40347563   237.43786826
 O      5   1   2     1.238752598383   121.07004512   232.42293999
 N      5   1   2     1.373395791460   116.93584778    53.34979849
 C      7   5   1     1.460464652089   119.13375764   173.64121198
 H      8   7   5     1.095359758253   109.55748733   242.75635820
 H      8   7   5     1.089590748859   107.93022362     1.29657983
 C      7   5   1     1.461923732621   124.81082092   357.00603334
 H     11   7   5     1.094362371429   110.20951267    35.86871493
 H     11   7   5     1.094503083595   106.86614245   151.92515781
 C     11   7   5     1.537882310192   113.55958721   271.93093446
 H     14  11   7     1.094225753672   108.95139457   314.70787119
 H     14  11   7     1.096031933841   109.95228531    71.81510137
 C     14  11   7     1.504091752520   110.47799087   194.01102817
 C     17  14  11     1.404004985746   119.35537807    77.76707876
 C     17  14  11     1.399253372338   121.67931565   260.93400469
 C     18  17  14     1.394541143172   120.78591046   182.23624462
 H     18  17  14     1.088976124623   119.31244163     2.59513766
 C     19  17  14     1.396540368196   121.09425032   177.70168845
 H     19  17  14     1.088879699508   119.74979684   356.68168596
 C     22  19  17     1.393709080117   118.78937270   359.44185367
 H     20  18  17     1.086414285620   120.78766232   180.39736638
 H     22  19  17     1.085763786466   120.95469784   179.50205367
 C      8   7   5     1.525316032827   111.02728837   126.72457197
 N     27   8   7     1.362475687856   118.11963785   280.73065820
 O     27   8   7     1.242167460530   119.11783728    98.88466875
 C     28  27   8     1.455941619709   125.32104110     7.67817802
 H     30  28  27     1.097183667396   110.08762005   107.35999687
 H     30  28  27     1.095038812098   109.13337150   226.00807317
 H     30  28  27     1.088088691238   111.95135143   346.65006211
 C     28  27   8     1.455772647085   118.32892263   175.98559846
 H     34  28  27     1.096965359526   110.81167834   258.02193576
 H     34  28  27     1.088203106042   108.65191480    18.22076762
 H     34  28  27     1.093765971312   109.18971239   138.37476357
 Br    24  22  19     1.907948112502   119.24062182   179.94548285

---------------------------
INTERNAL COORDINATES (A.U.)
---------------------------
 C      0   0   0     0.000000000000     0.00000000     0.00000000
 H      1   0   0     2.065350499887     0.00000000     0.00000000
 H      1   2   0     2.067917387394   108.02419775     0.00000000
 H      1   2   3     2.058678613243   109.45265545   118.52024246
 C      1   2   3     2.864492601863   112.40347563   237.43786826
 O      5   1   2     2.340903158627   121.07004512   232.42293999
 N      5   1   2     2.595341919339   116.93584778    53.34979849
 C      7   5   1     2.759878220720   119.13375764   173.64121198
 H      8   7   5     2.069929961216   109.55748733   242.75635820
 H      8   7   5     2.059028113398   107.93022362     1.29657983
 C      7   5   1     2.762635483333   124.81082092   357.00603334
 H     11   7   5     2.068045173270   110.20951267    35.86871493
 H     11   7   5     2.068311080728   106.86614245   151.92515781
 C     11   7   5     2.906176392464   113.55958721   271.93093446
 H     14  11   7     2.067787003124   108.95139457   314.70787119
 H     14  11   7     2.071200188992   109.95228531    71.81510137
 C     14  11   7     2.842321492553   110.47799087   194.01102817
 C     17  14  11     2.653184913720   119.35537807    77.76707876
 C     17  14  11     2.644205665685   121.67931565   260.93400469
 C     18  17  14     2.635300843081   120.78591046   182.23624462
 H     18  17  14     2.057866641917   119.31244163     2.59513766
 C     19  17  14     2.639078830855   121.09425032   177.70168845
 H     19  17  14     2.057684424856   119.74979684   356.68168596
 C     22  19  17     2.633728471780   118.78937270   359.44185367
 H     20  18  17     2.053025467802   120.78766232   180.39736638
 H     22  19  17     2.051796202549   120.95469784   179.50205367
 C      8   7   5     2.882429569723   111.02728837   126.72457197
 N     27   8   7     2.574705914175   118.11963785   280.73065820
 O     27   8   7     2.347356312870   119.11783728    98.88466875
 C     28  27   8     2.751330928227   125.32104110     7.67817802
 H     30  28  27     2.073376649989   110.08762005   107.35999687
 H     30  28  27     2.069323460879   109.13337150   226.00807317
 H     30  28  27     2.056189635857   111.95135143   346.65006211
 C     28  27   8     2.751011616244   118.32892263   175.98559846
 H     34  28  27     2.072964107903   110.81167834   258.02193576
 H     34  28  27     2.056405848502   108.65191480    18.22076762
 H     34  28  27     2.066918140382   109.18971239   138.37476357
 Br    24  22  19     3.605499410361   119.24062182   179.94548285

---------------------
BASIS SET INFORMATION
---------------------
There are 5 groups of distinct atoms

 Group   1 Type C   : 11s5p1d contracted to 4s3p1d pattern {6311/311/1}
 Group   2 Type H   : 5s contracted to 3s pattern {311}
 Group   3 Type O   : 11s5p1d contracted to 4s3p1d pattern {6311/311/1}
 Group   4 Type N   : 11s5p1d contracted to 4s3p1d pattern {6311/311/1}
 Group   5 Type Br  : 15s13p6d contracted to 8s7p3d pattern {63111111/3331111/411}

Atom   0C    basis set group =>   1
Atom   1H    basis set group =>   2
Atom   2H    basis set group =>   2
Atom   3H    basis set group =>   2
Atom   4C    basis set group =>   1
Atom   5O    basis set group =>   3
Atom   6N    basis set group =>   4
Atom   7C    basis set group =>   1
Atom   8H    basis set group =>   2
Atom   9H    basis set group =>   2
Atom  10C    basis set group =>   1
Atom  11H    basis set group =>   2
Atom  12H    basis set group =>   2
Atom  13C    basis set group =>   1
Atom  14H    basis set group =>   2
Atom  15H    basis set group =>   2
Atom  16C    basis set group =>   1
Atom  17C    basis set group =>   1
Atom  18C    basis set group =>   1
Atom  19C    basis set group =>   1
Atom  20H    basis set group =>   2
Atom  21C    basis set group =>   1
Atom  22H    basis set group =>   2
Atom  23C    basis set group =>   1
Atom  24H    basis set group =>   2
Atom  25H    basis set group =>   2
Atom  26C    basis set group =>   1
Atom  27N    basis set group =>   4
Atom  28O    basis set group =>   3
Atom  29C    basis set group =>   1
Atom  30H    basis set group =>   2
Atom  31H    basis set group =>   2
Atom  32H    basis set group =>   2
Atom  33C    basis set group =>   1
Atom  34H    basis set group =>   2
Atom  35H    basis set group =>   2
Atom  36H    basis set group =>   2
Atom  37Br   basis set group =>   5
---------------------------------
AUXILIARY/J BASIS SET INFORMATION
---------------------------------
There are 5 groups of distinct atoms

 Group   1 Type C   : 14s12p11d3f contracted to 14s12p11d3f pattern {11111111111111/111111111111/11111111111/111}
 Group   2 Type H   : 11s2p contracted to 11s2p pattern {11111111111/11}
 Group   3 Type O   : 14s12p11d3f contracted to 14s12p11d3f pattern {11111111111111/111111111111/11111111111/111}
 Group   4 Type N   : 14s12p10d3f contracted to 14s12p10d3f pattern {11111111111111/111111111111/1111111111/111}
 Group   5 Type Br  : 22s20p18d14f8g contracted to 22s20p18d14f8g pattern {1111111111111111111111/11111111111111111111/111111111111111111/11111111111111/11111111}

Atom   0C    basis set group =>   1
Atom   1H    basis set group =>   2
Atom   2H    basis set group =>   2
Atom   3H    basis set group =>   2
Atom   4C    basis set group =>   1
Atom   5O    basis set group =>   3
Atom   6N    basis set group =>   4
Atom   7C    basis set group =>   1
Atom   8H    basis set group =>   2
Atom   9H    basis set group =>   2
Atom  10C    basis set group =>   1
Atom  11H    basis set group =>   2
Atom  12H    basis set group =>   2
Atom  13C    basis set group =>   1
Atom  14H    basis set group =>   2
Atom  15H    basis set group =>   2
Atom  16C    basis set group =>   1
Atom  17C    basis set group =>   1
Atom  18C    basis set group =>   1
Atom  19C    basis set group =>   1
Atom  20H    basis set group =>   2
Atom  21C    basis set group =>   1
Atom  22H    basis set group =>   2
Atom  23C    basis set group =>   1
Atom  24H    basis set group =>   2
Atom  25H    basis set group =>   2
Atom  26C    basis set group =>   1
Atom  27N    basis set group =>   4
Atom  28O    basis set group =>   3
Atom  29C    basis set group =>   1
Atom  30H    basis set group =>   2
Atom  31H    basis set group =>   2
Atom  32H    basis set group =>   2
Atom  33C    basis set group =>   1
Atom  34H    basis set group =>   2
Atom  35H    basis set group =>   2
Atom  36H    basis set group =>   2
Atom  37Br   basis set group =>   5
---------------------------------
AUXILIARY/C BASIS SET INFORMATION
---------------------------------
There are 5 groups of distinct atoms

 Group   1 Type C   : 14s12p11d3f contracted to 14s12p11d3f pattern {11111111111111/111111111111/11111111111/111}
 Group   2 Type H   : 11s2p contracted to 11s2p pattern {11111111111/11}
 Group   3 Type O   : 14s12p11d3f contracted to 14s12p11d3f pattern {11111111111111/111111111111/11111111111/111}
 Group   4 Type N   : 14s12p10d3f contracted to 14s12p10d3f pattern {11111111111111/111111111111/1111111111/111}
 Group   5 Type Br  : 22s20p18d14f8g contracted to 22s20p18d14f8g pattern {1111111111111111111111/11111111111111111111/111111111111111111/11111111111111/11111111}

Atom   0C    basis set group =>   1
Atom   1H    basis set group =>   2
Atom   2H    basis set group =>   2
Atom   3H    basis set group =>   2
Atom   4C    basis set group =>   1
Atom   5O    basis set group =>   3
Atom   6N    basis set group =>   4
Atom   7C    basis set group =>   1
Atom   8H    basis set group =>   2
Atom   9H    basis set group =>   2
Atom  10C    basis set group =>   1
Atom  11H    basis set group =>   2
Atom  12H    basis set group =>   2
Atom  13C    basis set group =>   1
Atom  14H    basis set group =>   2
Atom  15H    basis set group =>   2
Atom  16C    basis set group =>   1
Atom  17C    basis set group =>   1
Atom  18C    basis set group =>   1
Atom  19C    basis set group =>   1
Atom  20H    basis set group =>   2
Atom  21C    basis set group =>   1
Atom  22H    basis set group =>   2
Atom  23C    basis set group =>   1
Atom  24H    basis set group =>   2
Atom  25H    basis set group =>   2
Atom  26C    basis set group =>   1
Atom  27N    basis set group =>   4
Atom  28O    basis set group =>   3
Atom  29C    basis set group =>   1
Atom  30H    basis set group =>   2
Atom  31H    basis set group =>   2
Atom  32H    basis set group =>   2
Atom  33C    basis set group =>   1
Atom  34H    basis set group =>   2
Atom  35H    basis set group =>   2
Atom  36H    basis set group =>   2
Atom  37Br   basis set group =>   5
----------------------------------
AUXILIARY/JK BASIS SET INFORMATION
----------------------------------
There are 5 groups of distinct atoms

 Group   1 Type C   : 14s12p11d3f contracted to 14s12p11d3f pattern {11111111111111/111111111111/11111111111/111}
 Group   2 Type H   : 11s2p contracted to 11s2p pattern {11111111111/11}
 Group   3 Type O   : 14s12p11d3f contracted to 14s12p11d3f pattern {11111111111111/111111111111/11111111111/111}
 Group   4 Type N   : 14s12p10d3f contracted to 14s12p10d3f pattern {11111111111111/111111111111/1111111111/111}
 Group   5 Type Br  : 22s20p18d14f8g contracted to 22s20p18d14f8g pattern {1111111111111111111111/11111111111111111111/111111111111111111/11111111111111/11111111}

Atom   0C    basis set group =>   1
Atom   1H    basis set group =>   2
Atom   2H    basis set group =>   2
Atom   3H    basis set group =>   2
Atom   4C    basis set group =>   1
Atom   5O    basis set group =>   3
Atom   6N    basis set group =>   4
Atom   7C    basis set group =>   1
Atom   8H    basis set group =>   2
Atom   9H    basis set group =>   2
Atom  10C    basis set group =>   1
Atom  11H    basis set group =>   2
Atom  12H    basis set group =>   2
Atom  13C    basis set group =>   1
Atom  14H    basis set group =>   2
Atom  15H    basis set group =>   2
Atom  16C    basis set group =>   1
Atom  17C    basis set group =>   1
Atom  18C    basis set group =>   1
Atom  19C    basis set group =>   1
Atom  20H    basis set group =>   2
Atom  21C    basis set group =>   1
Atom  22H    basis set group =>   2
Atom  23C    basis set group =>   1
Atom  24H    basis set group =>   2
Atom  25H    basis set group =>   2
Atom  26C    basis set group =>   1
Atom  27N    basis set group =>   4
Atom  28O    basis set group =>   3
Atom  29C    basis set group =>   1
Atom  30H    basis set group =>   2
Atom  31H    basis set group =>   2
Atom  32H    basis set group =>   2
Atom  33C    basis set group =>   1
Atom  34H    basis set group =>   2
Atom  35H    basis set group =>   2
Atom  36H    basis set group =>   2
Atom  37Br   basis set group =>   5


           ************************************************************
           *        Program running with 4 parallel MPI-processes     *
           *              working on a common directory               *
           ************************************************************
------------------------------------------------------------------------------
                           ORCA GTO INTEGRAL CALCULATION
                           -- RI-GTO INTEGRALS CHOSEN --
------------------------------------------------------------------------------
------------------------------------------------------------------------------
                   ___                                                        
                  /   \      - P O W E R E D   B Y -                         
                 /     \                                                     
                 |  |  |   _    _      __       _____    __    __             
                 |  |  |  | |  | |    /  \     |  _  \  |  |  /  |          
                  \  \/   | |  | |   /    \    | | | |  |  | /  /          
                 / \  \   | |__| |  /  /\  \   | |_| |  |  |/  /          
                |  |  |   |  __  | /  /__\  \  |    /   |      \           
                |  |  |   | |  | | |   __   |  |    \   |  |\   \          
                \     /   | |  | | |  |  |  |  | |\  \  |  | \   \       
                 \___/    |_|  |_| |__|  |__|  |_| \__\ |__|  \__/        
                                                                              
                      - O R C A' S   B I G   F R I E N D -                    
                                      &                                       
                       - I N T E G R A L  F E E D E R -                       
                                                                              
 v1 FN, 2020, v2 2021                                                         
------------------------------------------------------------------------------


Reading SHARK input file NfeBr_gas.SHARKINP.tmp ... ok
----------------------
SHARK INTEGRAL PACKAGE
----------------------

Number of atoms                             ...     38
Number of basis functions                   ...    425
Number of shells                            ...    219
Maximum angular momentum                    ...      2
Integral batch strategy                     ... SHARK/LIBINT Hybrid
RI-J (if used) integral strategy            ... SPLIT-RIJ (Revised 2003 algorithm where possible)
Printlevel                                  ...      1
Contraction scheme used                     ... SEGMENTED contraction
Coulomb Range Separation                    ... NOT USED
Exchange Range Separation                   ... NOT USED
Finite Nucleus Model                        ... NOT USED
Auxiliary Coulomb fitting basis             ... AVAILABLE
   # of basis functions in Aux-J            ...   2923
   # of shells in Aux-J                     ...   1047
   Maximum angular momentum in Aux-J        ...      4
Auxiliary J/K fitting basis                 ... AVAILABLE
   # of basis functions in Aux-JK           ...   2923
   # of shells in Aux-JK                    ...   1047
   Maximum angular momentum in Aux-JK       ...      4
Auxiliary Correlation fitting basis         ... AVAILABLE
   # of basis functions in Aux-C            ...   2923
   # of shells in Aux-C                     ...   1047
   Maximum angular momentum in Aux-C        ...      4
Auxiliary 'external' fitting basis          ... NOT available
Integral threshold                          ...     2.500000e-11
Primitive cut-off                           ...     2.500000e-12
Primitive pair pre-selection threshold      ...     2.500000e-12

Calculating pre-screening integrals         ... done (  0.0 sec) Dimension = 219
Organizing shell pair data                  ... done (  0.1 sec)
Shell pair information
Total number of shell pairs                 ...     24090
Shell pairs after pre-screening             ...     16562
Total number of primitive shell pairs       ...     95298
Primitive shell pairs kept                  ...     40160
          la=0 lb=0:   6450 shell pairs
          la=1 lb=0:   5895 shell pairs
          la=1 lb=1:   1380 shell pairs
          la=2 lb=0:   1834 shell pairs
          la=2 lb=1:    858 shell pairs
          la=2 lb=2:    145 shell pairs

Calculating one electron integrals          ... done (  0.0 sec)
Calculating RI/J V-Matrix + Cholesky decomp.... done (  0.5 sec)
Calculating RI/JK V-Matrix + Cholesky decomp... done (  0.5 sec)
Calculating RI/C V-Matrix + Cholesky decomp.... done (  0.5 sec)
Calculating Nuclear repulsion               ... done (  0.0 sec) ENN=   1778.670967352738 Eh

SHARK setup successfully completed in   1.7 seconds

Maximum memory used throughout the entire GTOINT-calculation: 72.7 MB


           ************************************************************
           *        Program running with 4 parallel MPI-processes     *
           *              working on a common directory               *
           ************************************************************
-------------------------------------------------------------------------------
                                 ORCA SCF
-------------------------------------------------------------------------------

------------
SCF SETTINGS
------------
Hamiltonian:
 Density Functional     Method          .... DFT(GTOs)
 Exchange Functional    Exchange        .... B88
   X-Alpha parameter    XAlpha          ....  0.666667
   Becke's b parameter  XBeta           ....  0.004200
 Correlation Functional Correlation     .... LYP
 LDA part of GGA corr.  LDAOpt          .... VWN-5
 Gradients option       PostSCFGGA      .... off
 Hybrid DFT is turned on
   Fraction HF Exchange ScalHFX         ....  0.200000
   Scaling of DF-GGA-X  ScalDFX         ....  0.720000
   Scaling of DF-GGA-C  ScalDFC         ....  0.810000
   Scaling of DF-LDA-C  ScalLDAC        ....  1.000000
   Perturbative correction              ....  0.000000
   Density functional embedding theory  .... OFF
   NL short-range parameter             ....  4.800000
 RI-approximation to the Coulomb term is turned on
   Number of AuxJ basis functions       .... 2923
   RIJ-COSX (HFX calculated with COS-X)).... on


General Settings:
 Integral files         IntName         .... NfeBr_gas
 Hartree-Fock type      HFTyp           .... RHF
 Total Charge           Charge          ....    0
 Multiplicity           Mult            ....    1
 Number of Electrons    NEL             ....  168
 Basis Dimension        Dim             ....  425
 Nuclear Repulsion      ENuc            ....   1778.6709673527 Eh

Convergence Acceleration:
 DIIS                   CNVDIIS         .... on
   Start iteration      DIISMaxIt       ....    12
   Startup error        DIISStart       ....  0.200000
   # of expansion vecs  DIISMaxEq       ....     5
   Bias factor          DIISBfac        ....   1.050
   Max. coefficient     DIISMaxC        ....  10.000
 Trust-Rad. Augm. Hess. CNVTRAH         .... auto
   Auto Start mean grad. ratio tolernc. ....  1.125000
   Auto Start start iteration           ....    20
   Auto Start num. interpolation iter.  ....    10
   Max. Number of Micro iterations      ....    16
   Max. Number of Macro iterations      .... Maxiter - #DIIS iter
   Number of Davidson start vectors     ....     2
   Converg. threshold I  (grad. norm)   ....   1.000e-05
   Converg. threshold II (energy diff.) ....   1.000e-08
   Grad. Scal. Fac. for Micro threshold ....   0.100
   Minimum threshold for Micro iter.    ....   0.010
   NR start threshold (gradient norm)   ....   0.001
   Initial trust radius                 ....   0.400
   Minimum AH scaling param. (alpha)    ....   1.000
   Maximum AH scaling param. (alpha)    .... 1000.000
   Orbital update algorithm             .... Taylor
   White noise on init. David. guess    .... on
   Maximum white noise                  ....   0.010
   Quad. conv. algorithm                .... NR
 SOSCF                  CNVSOSCF        .... on
   Start iteration      SOSCFMaxIt      ....   150
   Startup grad/error   SOSCFStart      ....  0.003300
 Level Shifting         CNVShift        .... on
   Level shift para.    LevelShift      ....    0.2500
   Turn off err/grad.   ShiftErr        ....    0.0010
 Zerner damping         CNVZerner       .... off
 Static damping         CNVDamp         .... on
   Fraction old density DampFac         ....    0.7000
   Max. Damping (<1)    DampMax         ....    0.9800
   Min. Damping (>=0)   DampMin         ....    0.0000
   Turn off err/grad.   DampErr         ....    0.1000
 Fernandez-Rico         CNVRico         .... off

SCF Procedure:
 Maximum # iterations   MaxIter         ....   125
 SCF integral mode      SCFMode         .... Direct
   Integral package                     .... SHARK and LIBINT hybrid scheme
 Reset frequency        DirectResetFreq ....    20
 Integral Threshold     Thresh          ....  2.500e-11 Eh
 Primitive CutOff       TCut            ....  2.500e-12 Eh

Convergence Tolerance:
 Convergence Check Mode ConvCheckMode   .... Total+1el-Energy
 Convergence forced     ConvForced      .... 0
 Energy Change          TolE            ....  1.000e-08 Eh
 1-El. energy change                    ....  1.000e-05 Eh
 Orbital Gradient       TolG            ....  1.000e-05
 Orbital Rotation angle TolX            ....  1.000e-05
 DIIS Error             TolErr          ....  5.000e-07


Diagonalization of the overlap matrix:
Smallest eigenvalue                        ... 1.710e-04
Time for diagonalization                   ...    0.573 sec
Threshold for overlap eigenvalues          ... 1.000e-08
Number of eigenvalues below threshold      ... 0
Time for construction of square roots      ...    0.012 sec
Total time needed                          ...    0.587 sec

Time for model grid setup =    0.353 sec

------------------------------
INITIAL GUESS: MODEL POTENTIAL
------------------------------
Loading Hartree-Fock densities                     ... done
Calculating cut-offs                               ... done
Initializing the effective Hamiltonian             ... done
Setting up the integral package (SHARK)            ... done
Starting the Coulomb interaction                   ... done (   0.3 sec)
Reading the grid                                   ... done
Mapping shells                                     ... done
Starting the XC term evaluation                    ... done (   0.2 sec)
  promolecular density results
     # of electrons  =    167.993790996
     EX              =   -196.907908832
     EC              =     -6.196876384
     EX+EC           =   -203.104785216
Transforming the Hamiltonian                       ... done (   0.0 sec)
Diagonalizing the Hamiltonian                      ... done (   0.0 sec)
Back transforming the eigenvectors                 ... done (   0.0 sec)
Now organizing SCF variables                       ... done
                      ------------------
                      INITIAL GUESS DONE (   1.0 sec)
                      ------------------
-------------------
DFT GRID GENERATION
-------------------

General Integration Accuracy     IntAcc      ... 4.388
Radial Grid Type                 RadialGrid  ... OptM3 with GC (2021)
Angular Grid (max. ang.)         AngularGrid ... 4 (Lebedev-302)
Angular grid pruning method      GridPruning ... 4 (adaptive)
Weight generation scheme         WeightScheme... Becke
Basis function cutoff            BFCut       ... 1.0000e-11
Integration weight cutoff        WCut        ... 1.0000e-14
Angular grids for H and He will be reduced by one unit
Partially contracted basis set               ... off
Rotationally invariant grid construction     ... off

Total number of grid points                  ...   178947
Total number of batches                      ...     2815
Average number of points per batch           ...       63
Average number of grid points per atom       ...     4709
Time for grid setup =    1.431 sec

--------------------
COSX GRID GENERATION
--------------------

GRIDX 1
-------
General Integration Accuracy     IntAcc      ... 3.816
Radial Grid Type                 RadialGrid  ... OptM3 with GC (2021)
Angular Grid (max. ang.)         AngularGrid ... 1 (Lebedev-50)
Angular grid pruning method      GridPruning ... 4 (adaptive)
Weight generation scheme         WeightScheme... Becke
Basis function cutoff            BFCut       ... 1.0000e-11
Integration weight cutoff        WCut        ... 1.0000e-14
Angular grids for H and He will be reduced by one unit
Partially contracted basis set               ... on
Rotationally invariant grid construction     ... off

Total number of grid points                  ...    22541
Total number of batches                      ...      373
Average number of points per batch           ...       60
Average number of grid points per atom       ...      593
UseSFitting                                  ... on

GRIDX 2
-------
General Integration Accuracy     IntAcc      ... 4.020
Radial Grid Type                 RadialGrid  ... OptM3 with GC (2021)
Angular Grid (max. ang.)         AngularGrid ... 2 (Lebedev-110)
Angular grid pruning method      GridPruning ... 4 (adaptive)
Weight generation scheme         WeightScheme... Becke
Basis function cutoff            BFCut       ... 1.0000e-11
Integration weight cutoff        WCut        ... 1.0000e-14
Angular grids for H and He will be reduced by one unit
Partially contracted basis set               ... on
Rotationally invariant grid construction     ... off

Total number of grid points                  ...    48104
Total number of batches                      ...      769
Average number of points per batch           ...       62
Average number of grid points per atom       ...     1266
UseSFitting                                  ... on

GRIDX 3
-------
General Integration Accuracy     IntAcc      ... 4.338
Radial Grid Type                 RadialGrid  ... OptM3 with GC (2021)
Angular Grid (max. ang.)         AngularGrid ... 3 (Lebedev-194)
Angular grid pruning method      GridPruning ... 4 (adaptive)
Weight generation scheme         WeightScheme... Becke
Basis function cutoff            BFCut       ... 1.0000e-11
Integration weight cutoff        WCut        ... 1.0000e-14
Angular grids for H and He will be reduced by one unit
Partially contracted basis set               ... on
Rotationally invariant grid construction     ... off

Total number of grid points                  ...   105141
Total number of batches                      ...     1663
Average number of points per batch           ...       63
Average number of grid points per atom       ...     2767
UseSFitting                                  ... on

Time for X-Grid setup             =    1.675 sec

--------------
SCF ITERATIONS
--------------
ITER       Energy         Delta-E        Max-DP      RMS-DP      [F,P]     Damp
               ***  Starting incremental Fock matrix formation  ***
  0  -3378.0495760865   0.000000000000 0.09567483  0.00131407  0.3433351 0.7000
  1  -3378.3128485460  -0.263272459501 0.05680035  0.00084543  0.1269212 0.7000
                               ***Turning on DIIS***
  2  -3378.4116387383  -0.098790192338 0.06227442  0.00120677  0.0534732 0.0000
  3  -3378.5711256688  -0.159486930498 0.04017529  0.00063953  0.0594604 0.0000
  4  -3378.6054876311  -0.034361962335 0.01088198  0.00018624  0.0195509 0.0000
  5  -3378.6078614092  -0.002373778060 0.00471508  0.00006375  0.0084330 0.0000
                      *** Initiating the SOSCF procedure ***
                           *** Shutting down DIIS ***
                      *** Re-Reading the Fockian *** 
                      *** Removing any level shift *** 
ITER      Energy       Delta-E        Grad      Rot      Max-DP    RMS-DP
  6  -3378.60807374  -0.0002123298  0.000246  0.000246  0.001126  0.000026
               *** Restarting incremental Fock matrix formation ***
  7  -3378.60810884  -0.0000350982  0.000222  0.000699  0.001364  0.000016
  8  -3378.60810067   0.0000081680  0.000356  0.000539  0.000824  0.000009
  9  -3378.60811387  -0.0000132013  0.000048  0.000170  0.000198  0.000003
 10  -3378.60811349   0.0000003832  0.000082  0.000100  0.000130  0.000002
 11  -3378.60811398  -0.0000004922  0.000014  0.000032  0.000036  0.000001
 12  -3378.60811397   0.0000000117  0.000017  0.000028  0.000019  0.000000
 13  -3378.60811399  -0.0000000227  0.000004  0.000012  0.000008  0.000000
 14  -3378.60811397   0.0000000212  0.000005  0.000006  0.000006  0.000000
                  ***Gradient check signals convergence***
              ***Rediagonalizing the Fockian in SOSCF/NRSCF***

               *****************************************************
               *                     SUCCESS                       *
               *           SCF CONVERGED AFTER  15 CYCLES          *
               *****************************************************

