
                                 *****************
                                 * O   R   C   A *
                                 *****************

                                            #,                                       
                                            ###                                      
                                            ####                                     
                                            #####                                    
                                            ######                                   
                                           ########,                                 
                                     ,,################,,,,,                         
                               ,,#################################,,                 
                          ,,##########################################,,             
                       ,#########################################, ''#####,          
                    ,#############################################,,   '####,        
                  ,##################################################,,,,####,       
                ,###########''''           ''''###############################       
              ,#####''   ,,,,##########,,,,          '''####'''          '####       
            ,##' ,,,,###########################,,,                        '##       
           ' ,,###''''                  '''############,,,                           
         ,,##''                                '''############,,,,        ,,,,,,###''
      ,#''                                            '''#######################'''  
     '                                                          ''''####''''         
             ,#######,   #######,   ,#######,      ##                                
            ,#'     '#,  ##    ##  ,#'     '#,    #''#        ######   ,####,        
            ##       ##  ##   ,#'  ##            #'  '#       #        #'  '#        
            ##       ##  #######   ##           ,######,      #####,   #    #        
            '#,     ,#'  ##    ##  '#,     ,#' ,#      #,         ##   #,  ,#        
             '#######'   ##     ##  '#######'  #'      '#     #####' # '####'        



                  #######################################################
                  #                        -***-                        #
                  #          Department of theory and spectroscopy      #
                  #    Directorship and core code : Frank Neese         #
                  #        Max Planck Institute fuer Kohlenforschung    #
                  #                Kaiser Wilhelm Platz 1               #
                  #                 D-45470 Muelheim/Ruhr               #
                  #                      Germany                        #
                  #                                                     #
                  #                  All rights reserved                #
                  #                        -***-                        #
                  #######################################################


                         Program Version 5.0.4 -  RELEASE  -


 With contributions from (in alphabetic order):
   Daniel Aravena         : Magnetic Suceptibility
   Michael Atanasov       : Ab Initio Ligand Field Theory (pilot matlab implementation)
   Alexander A. Auer      : GIAO ZORA, VPT2 properties, NMR spectrum
   Ute Becker             : Parallelization
   Giovanni Bistoni       : ED, misc. LED, open-shell LED, HFLD
   Martin Brehm           : Molecular dynamics
   Dmytro Bykov           : SCF Hessian
   Vijay G. Chilkuri      : MRCI spin determinant printing, contributions to CSF-ICE
   Dipayan Datta          : RHF DLPNO-CCSD density
   Achintya Kumar Dutta   : EOM-CC, STEOM-CC
   Dmitry Ganyushin       : Spin-Orbit,Spin-Spin,Magnetic field MRCI
   Miquel Garcia          : C-PCM and meta-GGA Hessian, CC/C-PCM, Gaussian charge scheme
   Yang Guo               : DLPNO-NEVPT2, F12-NEVPT2, CIM, IAO-localization
   Andreas Hansen         : Spin unrestricted coupled pair/coupled cluster methods
   Benjamin Helmich-Paris : MC-RPA, TRAH-SCF, COSX integrals
   Lee Huntington         : MR-EOM, pCC
   Robert Izsak           : Overlap fitted RIJCOSX, COSX-SCS-MP3, EOM
   Marcus Kettner         : VPT2
   Christian Kollmar      : KDIIS, OOCD, Brueckner-CCSD(T), CCSD density, CASPT2, CASPT2-K
   Simone Kossmann        : Meta GGA functionals, TD-DFT gradient, OOMP2, MP2 Hessian
   Martin Krupicka        : Initial AUTO-CI
   Lucas Lang             : DCDCAS
   Marvin Lechner         : AUTO-CI (C++ implementation), FIC-MRCC
   Dagmar Lenk            : GEPOL surface, SMD
   Dimitrios Liakos       : Extrapolation schemes; Compound Job, initial MDCI parallelization
   Dimitrios Manganas     : Further ROCIS development; embedding schemes
   Dimitrios Pantazis     : SARC Basis sets
   Anastasios Papadopoulos: AUTO-CI, single reference methods and gradients
   Taras Petrenko         : DFT Hessian,TD-DFT gradient, ASA, ECA, R-Raman, ABS, FL, XAS/XES, NRVS
   Peter Pinski           : DLPNO-MP2, DLPNO-MP2 Gradient
   Christoph Reimann      : Effective Core Potentials
   Marius Retegan         : Local ZFS, SOC
   Christoph Riplinger    : Optimizer, TS searches, QM/MM, DLPNO-CCSD(T), (RO)-DLPNO pert. Triples
   Tobias Risthaus        : Range-separated hybrids, TD-DFT gradient, RPA, STAB
   Michael Roemelt        : Original ROCIS implementation
   Masaaki Saitow         : Open-shell DLPNO-CCSD energy and density
   Barbara Sandhoefer     : DKH picture change effects
   Avijit Sen             : IP-ROCIS
   Kantharuban Sivalingam : CASSCF convergence, NEVPT2, FIC-MRCI
   Bernardo de Souza      : ESD, SOC TD-DFT
   Georgi Stoychev        : AutoAux, RI-MP2 NMR, DLPNO-MP2 response
   Willem Van den Heuvel  : Paramagnetic NMR
   Boris Wezisla          : Elementary symmetry handling
   Frank Wennmohs         : Technical directorship


 We gratefully acknowledge several colleagues who have allowed us to
 interface, adapt or use parts of their codes:
   Stefan Grimme, W. Hujo, H. Kruse, P. Pracht,  : VdW corrections, initial TS optimization,
                  C. Bannwarth, S. Ehlert          DFT functionals, gCP, sTDA/sTD-DF
   Ed Valeev, F. Pavosevic, A. Kumar             : LibInt (2-el integral package), F12 methods
   Garnet Chan, S. Sharma, J. Yang, R. Olivares  : DMRG
   Ulf Ekstrom                                   : XCFun DFT Library
   Mihaly Kallay                                 : mrcc  (arbitrary order and MRCC methods)
   Jiri Pittner, Ondrej Demel                    : Mk-CCSD
   Frank Weinhold                                : gennbo (NPA and NBO analysis)
   Christopher J. Cramer and Donald G. Truhlar   : smd solvation model
   Lars Goerigk                                  : TD-DFT with DH, B97 family of functionals
   V. Asgeirsson, H. Jonsson                     : NEB implementation
   FAccTs GmbH                                   : IRC, NEB, NEB-TS, DLPNO-Multilevel, CI-OPT
                                                   MM, QMMM, 2- and 3-layer-ONIOM, Crystal-QMMM,
                                                   LR-CPCM, SF, NACMEs, symmetry and pop. for TD-DFT,
                                                   nearIR, NL-DFT gradient (VV10), updates on ESD,
                                                   ML-optimized integration grids
   S Lehtola, MJT Oliveira, MAL Marques          : LibXC Library
   Liviu Ungur et al                             : ANISO software


 Your calculation uses the libint2 library for the computation of 2-el integrals
 For citations please refer to: http://libint.valeyev.net

 Your ORCA version has been built with support for libXC version: 5.1.0
 For citations please refer to: https://tddft.org/programs/libxc/

 This ORCA versions uses:
   CBLAS   interface :  Fast vector & matrix operations
   LAPACKE interface :  Fast linear algebra routines
   SCALAPACK package :  Parallel linear algebra routines
   Shared memory     :  Shared parallel matrices
   BLAS/LAPACK       :  OpenBLAS 0.3.15  USE64BITINT DYNAMIC_ARCH NO_AFFINITY SkylakeX SINGLE_THREADED
        Core in use  :  SkylakeX
   Copyright (c) 2011-2014, The OpenBLAS Project




***************************************
The coordinates will be read from file: /users/fjb15167/WWenergy/structures/NfeBr.xyz
***************************************


Your calculation utilizes the atom-pairwise dispersion correction
based on tight binding partial charges (D4)
Cite in your paper:
E.Caldeweyher, C.Bannwarth, S.Grimme, J.Chem.Phys., (2017), 147, 034112.
E.Caldeweyher, S.Ehlert, A.Hansen, H.Neugebauer, S.Grimme, J.Chem.Phys., (2018), in progress.
   

================================================================================

----- Orbital basis set information -----
Your calculation utilizes the basis: 6-311G(d)
   H, Li - Ne  : R. Krishnan, J. S. Binkley, R. Seeger and J. A. Pople, J. Chem. Phys. 72, 650 (1980).
   Na - Ar     : A. D. McLean and G. S. Chandler J. Chem. Phys. 72, 5639, (1980).
   K  - Ca     : J.-P. Blaudeau, M. P. McGrath, L. A. Curtiss and L. Radom, J. Chem. Phys. 107, 5016 (1997).
   Ga - Kr     : L. A. Curtiss, M. P. McGrath, J.-P. Blandeau, N. E. Davis, R. C. Binning and L. Radom, J. Chem. Phys. 103, 6104 (1995).
   Pol./Diff.
   H, Li - Cl  : T. Clark, J. Chandrasekhar and P. v. R. Schleyer, J. Comp. Chem. 4, 294 (1983).
   H - Ne      : M. J. Frisch, J. A. Pople and J. S. Binkley, J. Chem. Phys. 80, 3265 (1984).

----- AuxJ basis set information -----
Your calculation utilizes the AutoAux generation procedure.
  G. L. Stoychev, A. A. Auer, F. Neese, J. Chem. Theory Comput. 13, 554 (2017)

----- AuxC basis set information -----
Your calculation utilizes the AutoAux generation procedure.
  G. L. Stoychev, A. A. Auer, F. Neese, J. Chem. Theory Comput. 13, 554 (2017)

----- AuxJK basis set information -----
Your calculation utilizes the AutoAux generation procedure.
  G. L. Stoychev, A. A. Auer, F. Neese, J. Chem. Theory Comput. 13, 554 (2017)

================================================================================
                                        WARNINGS
                       Please study these warnings very carefully!
================================================================================


WARNING: Geometry Optimization
  ===> : Switching off AutoStart
         For restart on a previous wavefunction, please use MOREAD

INFO   : the flag for use of the SHARK integral package has been found!

================================================================================
                                       INPUT FILE
================================================================================
NAME = NfeBr_gas.inp
|  1> ! OPT FREQ B3LYP 6-311G(d) D4 AUTOAUX
|  2> 
|  3> %PAL NPROCS 4 END
|  4> 
|  5> %maxcore 3375
|  6> 
|  7> *xyzfile 0 1 /users/fjb15167/WWenergy/structures/NfeBr.xyz
|  8> 
|  9>                          ****END OF INPUT****
================================================================================

                       *****************************
                       * Geometry Optimization Run *
                       *****************************

Geometry optimization settings:
Update method            Update   .... BFGS
Choice of coordinates    CoordSys .... Z-matrix Internals
Initial Hessian          InHess   .... Almoef's Model

Convergence Tolerances:
Energy Change            TolE     ....  5.0000e-06 Eh
Max. Gradient            TolMAXG  ....  3.0000e-04 Eh/bohr
RMS Gradient             TolRMSG  ....  1.0000e-04 Eh/bohr
Max. Displacement        TolMAXD  ....  4.0000e-03 bohr
RMS Displacement         TolRMSD  ....  2.0000e-03 bohr
Strict Convergence                ....  False
------------------------------------------------------------------------------
                        ORCA OPTIMIZATION COORDINATE SETUP
------------------------------------------------------------------------------

The optimization will be done in new redundant internal coordinates
Making redundant internal coordinates   ...  (new redundants) done
Evaluating the initial hessian          ...  (Almloef) done
Evaluating the coordinates              ...  done
Calculating the B-matrix                .... done
Calculating the G-matrix                .... done
Diagonalizing the G-matrix              .... done
Small eigenvalue found = 2.691e-03
Small eigenvalue found = 4.821e-03
Small eigenvalue found = 6.932e-03
Small eigenvalue found = 1.141e-02
Small eigenvalue found = 2.007e-02
Small eigenvalue found = 2.168e-02
Small eigenvalue found = 2.800e-02
The first mode is                       ....   79
The number of degrees of freedom        ....  108

    -----------------------------------------------------------------
                    Redundant Internal Coordinates


    -----------------------------------------------------------------
         Definition                    Initial Value    Approx d2E/dq
    -----------------------------------------------------------------
      1. B(H   1,C   0)                  1.0929         0.356236   
      2. B(H   2,C   0)                  1.0943         0.354463   
      3. B(H   3,C   0)                  1.0894         0.360887   
      4. B(C   4,C   0)                  1.5158         0.393545   
      5. B(O   5,C   4)                  1.2388         0.975396   
      6. B(N   6,C   4)                  1.3734         0.594794   
      7. B(C   7,N   6)                  1.4605         0.431970   
      8. B(H   8,C   7)                  1.0954         0.353079   
      9. B(H   9,C   7)                  1.0896         0.360642   
     10. B(C  10,N   6)                  1.4619         0.429661   
     11. B(H  11,C  10)                  1.0944         0.354375   
     12. B(H  12,C  10)                  1.0945         0.354192   
     13. B(C  13,C  10)                  1.5379         0.362912   
     14. B(H  14,C  13)                  1.0942         0.354553   
     15. B(H  15,C  13)                  1.0960         0.352208   
     16. B(C  16,C  13)                  1.5041         0.410878   
     17. B(C  17,C  16)                  1.4040         0.593464   
     18. B(C  18,C  16)                  1.3993         0.603914   
     19. B(C  19,C  17)                  1.3945         0.614460   
     20. B(H  20,C  17)                  1.0890         0.361457   
     21. B(C  21,C  18)                  1.3965         0.609963   
     22. B(H  22,C  18)                  1.0889         0.361585   
     23. B(C  23,C  21)                  1.3937         0.616341   
     24. B(C  23,C  19)                  1.3960         0.611180   
     25. B(H  24,C  19)                  1.0864         0.364875   
     26. B(H  25,C  21)                  1.0858         0.365748   
     27. B(C  26,C   7)                  1.5253         0.380059   
     28. B(N  27,C  26)                  1.3625         0.619140   
     29. B(O  28,C  26)                  1.2422         0.963236   
     30. B(C  29,N  27)                  1.4559         0.439208   
     31. B(H  30,C  29)                  1.0972         0.350721   
     32. B(H  31,C  29)                  1.0950         0.353496   
     33. B(H  32,C  29)                  1.0881         0.362637   
     34. B(C  33,N  27)                  1.4558         0.439480   
     35. B(H  34,C  33)                  1.0970         0.351003   
     36. B(H  35,C  33)                  1.0882         0.362485   
     37. B(H  36,C  33)                  1.0938         0.355152   
     38. B(Br 37,C  23)                  1.9079         0.313242   
     39. A(H   2,C   0,C   4)          110.8084         0.326260   
     40. A(H   1,C   0,H   3)          109.4527         0.290447   
     41. A(H   2,C   0,H   3)          108.9701         0.290219   
     42. A(H   1,C   0,H   2)          108.0242         0.289629   
     43. A(H   3,C   0,C   4)          107.1341         0.327227   
     44. A(H   1,C   0,C   4)          112.4035         0.326528   
     45. A(C   0,C   4,O   5)          121.0700         0.431118   
     46. A(C   0,C   4,N   6)          116.9358         0.394883   
     47. A(O   5,C   4,N   6)          121.9874         0.461552   
     48. A(C   7,N   6,C  10)          115.9766         0.376844   
     49. A(C   4,N   6,C  10)          124.8108         0.398455   
     50. A(C   4,N   6,C   7)          119.1338         0.398831   
     51. A(N   6,C   7,H   9)          107.9302         0.330264   
     52. A(H   8,C   7,H   9)          108.9831         0.290010   
     53. A(N   6,C   7,C  26)          111.0273         0.371284   
     54. A(H   8,C   7,C  26)          105.4203         0.324187   
     55. A(N   6,C   7,H   8)          109.5575         0.329109   
     56. A(H   9,C   7,C  26)          113.8495         0.325317   
     57. A(H  12,C  10,C  13)          108.8273         0.321908   
     58. A(H  11,C  10,C  13)          110.0092         0.321935   
     59. A(N   6,C  10,C  13)          113.5596         0.368012   
     60. A(H  11,C  10,H  12)          107.1128         0.289357   
     61. A(N   6,C  10,H  12)          106.8661         0.328989   
     62. A(N   6,C  10,H  11)          110.2095         0.329017   
     63. A(H  15,C  13,C  16)          110.4754         0.328240   
     64. A(H  14,C  13,C  16)          109.7973         0.328600   
     65. A(C  10,C  13,C  16)          110.4780         0.367494   
     66. A(H  14,C  13,H  15)          107.1137         0.289125   
     67. A(C  10,C  13,H  15)          109.9523         0.321612   
     68. A(C  10,C  13,H  14)          108.9514         0.321962   
     69. A(C  17,C  16,C  18)          118.8912         0.428640   
     70. A(C  13,C  16,C  17)          119.3554         0.400287   
     71. A(C  13,C  16,C  18)          121.6793         0.401519   
     72. A(C  16,C  17,C  19)          120.7859         0.429973   
     73. A(C  19,C  17,H  20)          119.9007         0.352598   
     74. A(C  16,C  17,H  20)          119.3124         0.350532   
     75. A(C  21,C  18,H  22)          119.1482         0.352181   
     76. A(C  16,C  18,H  22)          119.7498         0.351588   
     77. A(C  16,C  18,C  21)          121.0943         0.430754   
     78. A(C  23,C  19,H  24)          120.1891         0.352840   
     79. A(C  17,C  19,H  24)          120.7877         0.353160   
     80. A(C  17,C  19,C  23)          119.0230         0.432251   
     81. A(C  23,C  21,H  25)          120.2559         0.353486   
     82. A(C  18,C  21,H  25)          120.9547         0.352864   
     83. A(C  18,C  21,C  23)          118.7894         0.432333   
     84. A(C  19,C  23,C  21)          121.4104         0.432488   
     85. A(C  21,C  23,Br 37)          119.2406         0.409349   
     86. A(C  19,C  23,Br 37)          119.3484         0.408740   
     87. A(N  27,C  26,O  28)          122.7353         0.463884   
     88. A(C   7,C  26,O  28)          119.1178         0.427466   
     89. A(C   7,C  26,N  27)          118.1196         0.395247   
     90. A(C  29,N  27,C  33)          115.4010         0.379410   
     91. A(C  26,N  27,C  33)          118.3289         0.402879   
     92. A(C  26,N  27,C  29)          125.3210         0.402835   
     93. A(H  31,C  29,H  32)          108.9099         0.290315   
     94. A(H  30,C  29,H  32)          108.4492         0.289957   
     95. A(N  27,C  29,H  32)          111.9514         0.331476   
     96. A(H  30,C  29,H  31)          108.2290         0.288799   
     97. A(N  27,C  29,H  31)          109.1334         0.330079   
     98. A(N  27,C  29,H  30)          110.0876         0.329649   
     99. A(H  34,C  33,H  36)          108.6572         0.289046   
    100. A(N  27,C  33,H  36)          109.1897         0.330368   
    101. A(H  34,C  33,H  35)          109.3816         0.289974   
    102. A(N  27,C  33,H  35)          108.6519         0.331487   
    103. A(N  27,C  33,H  34)          110.8117         0.329726   
    104. A(H  35,C  33,H  36)          110.1436         0.290509   
    105. D(N   6,C   4,C   0,H   2)    -67.6275         0.011512   
    106. D(O   5,C   4,C   0,H   1)   -127.5771         0.011512   
    107. D(N   6,C   4,C   0,H   1)     53.3498         0.011512   
    108. D(O   5,C   4,C   0,H   2)    111.4457         0.011512   
    109. D(O   5,C   4,C   0,H   3)     -7.3097         0.011512   
    110. D(N   6,C   4,C   0,H   3)    173.6172         0.011512   
    111. D(C   7,N   6,C   4,O   5)     -5.4228         0.028472   
    112. D(C  10,N   6,C   4,C   0)     -2.9940         0.028472   
    113. D(C  10,N   6,C   4,O   5)    177.9420         0.028472   
    114. D(C   7,N   6,C   4,C   0)    173.6412         0.028472   
    115. D(C  26,C   7,N   6,C   4)    126.7246         0.015909   
    116. D(H   8,C   7,N   6,C   4)   -117.2436         0.015909   
    117. D(H   9,C   7,N   6,C  10)    178.2237         0.015909   
    118. D(H   8,C   7,N   6,C  10)     59.6835         0.015909   
    119. D(H   9,C   7,N   6,C   4)      1.2966         0.015909   
    120. D(C  26,C   7,N   6,C  10)    -56.3483         0.015909   
    121. D(C  13,C  10,N   6,C   7)     95.2003         0.015739   
    122. D(C  13,C  10,N   6,C   4)    -88.0691         0.015739   
    123. D(H  12,C  10,N   6,C   7)    -24.8055         0.015739   
    124. D(H  11,C  10,N   6,C   7)   -140.8620         0.015739   
    125. D(H  11,C  10,N   6,C   4)     35.8687         0.015739   
    126. D(H  12,C  10,N   6,C   4)    151.9252         0.015739   
    127. D(C  16,C  13,C  10,N   6)   -165.9890         0.010555   
    128. D(C  16,C  13,C  10,H  11)     69.9645         0.010555   
    129. D(H  15,C  13,C  10,H  12)   -169.2976         0.010555   
    130. D(H  15,C  13,C  10,H  11)    -52.2314         0.010555   
    131. D(H  15,C  13,C  10,N   6)     71.8151         0.010555   
    132. D(H  14,C  13,C  10,H  12)     73.5951         0.010555   
    133. D(H  14,C  13,C  10,H  11)   -169.3387         0.010555   
    134. D(C  16,C  13,C  10,H  12)    -47.1017         0.010555   
    135. D(H  14,C  13,C  10,N   6)    -45.2921         0.010555   
    136. D(C  18,C  16,C  13,H  15)     22.8222         0.012501   
    137. D(C  18,C  16,C  13,H  14)    140.7433         0.012501   
    138. D(C  18,C  16,C  13,C  10)    -99.0660         0.012501   
    139. D(C  17,C  16,C  13,H  15)   -160.3447         0.012501   
    140. D(C  17,C  16,C  13,H  14)    -42.4236         0.012501   
    141. D(C  17,C  16,C  13,C  10)     77.7671         0.012501   
    142. D(H  20,C  17,C  16,C  18)    179.5171         0.024252   
    143. D(H  20,C  17,C  16,C  13)      2.5951         0.024252   
    144. D(C  19,C  17,C  16,C  18)     -0.8418         0.024252   
    145. D(C  19,C  17,C  16,C  13)   -177.7638         0.024252   
    146. D(H  22,C  18,C  16,C  17)    179.8343         0.025160   
    147. D(H  22,C  18,C  16,C  13)     -3.3183         0.025160   
    148. D(C  21,C  18,C  16,C  17)      0.8543         0.025160   
    149. D(C  21,C  18,C  16,C  13)    177.7017         0.025160   
    150. D(H  24,C  19,C  17,H  20)      0.0364         0.026098   
    151. D(H  24,C  19,C  17,C  16)   -179.6026         0.026098   
    152. D(C  23,C  19,C  17,H  20)   -179.8249         0.026098   
    153. D(C  23,C  19,C  17,C  16)      0.5361         0.026098   
    154. D(H  25,C  21,C  18,H  22)      0.5160         0.025696   
    155. D(H  25,C  21,C  18,C  16)    179.5021         0.025696   
    156. D(C  23,C  21,C  18,H  22)   -179.5442         0.025696   
    157. D(C  23,C  21,C  18,C  16)     -0.5581         0.025696   
    158. D(Br 37,C  23,C  21,H  25)     -0.1143         0.026268   
    159. D(Br 37,C  23,C  21,C  18)    179.9455         0.026268   
    160. D(C  19,C  23,C  21,H  25)   -179.8182         0.026268   
    161. D(C  19,C  23,C  21,C  18)      0.2415         0.026268   
    162. D(Br 37,C  23,C  19,H  24)      0.2017         0.025804   
    163. D(Br 37,C  23,C  19,C  17)   -179.9362         0.025804   
    164. D(C  21,C  23,C  19,H  24)    179.9053         0.025804   
    165. D(C  21,C  23,C  19,C  17)     -0.2326         0.025804   
    166. D(N  27,C  26,C   7,H   8)    162.1720         0.010778   
    167. D(N  27,C  26,C   7,N   6)    -79.2693         0.010778   
    168. D(O  28,C  26,C   7,H   9)   -139.0723         0.010778   
    169. D(O  28,C  26,C   7,H   8)    -19.6739         0.010778   
    170. D(O  28,C  26,C   7,N   6)     98.8847         0.010778   
    171. D(N  27,C  26,C   7,H   9)     42.7737         0.010778   
    172. D(C  33,N  27,C  26,O  28)     -2.0972         0.031034   
    173. D(C  33,N  27,C  26,C   7)    175.9856         0.031034   
    174. D(C  29,N  27,C  26,O  28)   -170.4046         0.031034   
    175. D(C  29,N  27,C  26,C   7)      7.6782         0.031034   
    176. D(H  32,C  29,N  27,C  33)    178.0397         0.016449   
    177. D(H  32,C  29,N  27,C  26)    -13.3499         0.016449   
    178. D(H  31,C  29,N  27,C  33)     57.3977         0.016449   
    179. D(H  31,C  29,N  27,C  26)   -133.9919         0.016449   
    180. D(H  30,C  29,N  27,C  33)    -61.2504         0.016449   
    181. D(H  30,C  29,N  27,C  26)    107.3600         0.016449   
    182. D(H  36,C  33,N  27,C  29)    -52.1728         0.016469   
    183. D(H  36,C  33,N  27,C  26)    138.3748         0.016469   
    184. D(H  35,C  33,N  27,C  29)   -172.3268         0.016469   
    185. D(H  35,C  33,N  27,C  26)     18.2208         0.016469   
    186. D(H  34,C  33,N  27,C  29)     67.4744         0.016469   
    187. D(H  34,C  33,N  27,C  26)   -101.9781         0.016469   
    -----------------------------------------------------------------

Number of atoms                         .... 38
Number of degrees of freedom            .... 187

         *************************************************************
         *                GEOMETRY OPTIMIZATION CYCLE   1            *
         *************************************************************
---------------------------------
CARTESIAN COORDINATES (ANGSTROEM)
---------------------------------
  C      3.113000    3.180000    0.302000
  H      2.358000    2.998000    1.071000
  H      2.647000    3.762000   -0.499000
  H      3.933000    3.757000    0.728000
  C      3.706000    1.895000   -0.241000
  O      4.932000    1.721000   -0.275000
  N      2.824000    0.951000   -0.707000
  C      3.344000   -0.243000   -1.368000
  H      2.998000   -0.267000   -2.407000
  H      4.432000   -0.185000   -1.358000
  C      1.368000    1.073000   -0.658000
  H      1.070000    2.113000   -0.823000
  H      0.972000    0.488000   -1.494000
  C      0.751000    0.550000    0.650000
  H      1.206000   -0.414000    0.897000
  H      0.982000    1.236000    1.473000
  C     -0.737000    0.388000    0.502000
  C     -1.243000   -0.727000   -0.185000
  C     -1.632000    1.354000    0.975000
  C     -2.615000   -0.883000   -0.380000
  H     -0.552000   -1.479000   -0.563000
  C     -3.009000    1.214000    0.789000
  H     -1.255000    2.223000    1.512000
  C     -3.484000    0.094000    0.109000
  H     -3.007000   -1.749000   -0.906000
  H     -3.702000    1.961000    1.164000
  C      2.788000   -1.510000   -0.726000
  N      3.348000   -1.938000    0.440000
  O      1.828000   -2.088000   -1.262000
  C      4.335000   -1.204000    1.219000
  H      3.875000   -0.808000    2.133000
  H      5.142000   -1.885000    1.509000
  H      4.759000   -0.373000    0.659000
  C      2.764000   -3.095000    1.103000
  H      2.141000   -2.785000    1.951000
  H      2.152000   -3.636000    0.384000
  H      3.566000   -3.739000    1.475000
  Br    -5.363000   -0.111000   -0.151000

----------------------------
CARTESIAN COORDINATES (A.U.)
----------------------------
  NO LB      ZA    FRAG     MASS         X           Y           Z
   0 C     6.0000    0    12.011    5.882717    6.009329    0.570697
   1 H     1.0000    0     1.008    4.455974    5.665399    2.023897
   2 H     1.0000    0     1.008    5.002105    7.109150   -0.942973
   3 H     1.0000    0     1.008    7.432293    7.099701    1.375721
   4 C     6.0000    0    12.011    7.003325    3.581031   -0.455424
   5 O     8.0000    0    15.999    9.320129    3.252219   -0.519675
   6 N     7.0000    0    14.007    5.336587    1.797130   -1.336036
   7 C     6.0000    0    12.011    6.319244   -0.459203   -2.585145
   8 H     1.0000    0     1.008    5.665399   -0.504557   -4.548571
   9 H     1.0000    0     1.008    8.375266   -0.349599   -2.566248
  10 C     6.0000    0    12.011    2.585145    2.027676   -1.243440
  11 H     1.0000    0     1.008    2.022007    3.992991   -1.555245
  12 H     1.0000    0     1.008    1.836814    0.922186   -2.823251
  13 C     6.0000    0    12.011    1.419184    1.039349    1.228322
  14 H     1.0000    0     1.008    2.279010   -0.782347    1.695084
  15 H     1.0000    0     1.008    1.855711    2.335702    2.783567
  16 C     6.0000    0    12.011   -1.392728    0.733214    0.948643
  17 C     6.0000    0    12.011   -2.348930   -1.373831   -0.349599
  18 C     6.0000    0    12.011   -3.084033    2.558689    1.842483
  19 C     6.0000    0    12.011   -4.941634   -1.668628   -0.718096
  20 H     1.0000    0     1.008   -1.043129   -2.794905   -1.063916
  21 C     6.0000    0    12.011   -5.686186    2.294128    1.490994
  22 H     1.0000    0     1.008   -2.371606    4.200861    2.857266
  23 C     6.0000    0    12.011   -6.583806    0.177634    0.205980
  24 H     1.0000    0     1.008   -5.682406   -3.305131   -1.712092
  25 H     1.0000    0     1.008   -6.995766    3.705753    2.199641
  26 C     6.0000    0    12.011    5.268556   -2.853486   -1.371941
  27 N     7.0000    0    14.007    6.326803   -3.662289    0.831479
  28 O     8.0000    0    15.999    3.454419   -3.945748   -2.384834
  29 C     6.0000    0    12.011    8.191963   -2.275230    2.303576
  30 H     1.0000    0     1.008    7.322689   -1.526899    4.030786
  31 H     1.0000    0     1.008    9.716972   -3.562134    2.851597
  32 H     1.0000    0     1.008    8.993207   -0.704868    1.245330
  33 C     6.0000    0    12.011    5.223203   -5.848702    2.084368
  34 H     1.0000    0     1.008    4.045904   -5.262887    3.686856
  35 H     1.0000    0     1.008    4.066691   -6.871044    0.725655
  36 H     1.0000    0     1.008    6.738763   -7.065686    2.787346
  37 Br   35.0000    0    79.900  -10.134601   -0.209760   -0.285349

--------------------------------
INTERNAL COORDINATES (ANGSTROEM)
--------------------------------
 C      0   0   0     0.000000000000     0.00000000     0.00000000
 H      1   0   0     1.092936411691     0.00000000     0.00000000
 H      1   2   0     1.094294750056   108.02419775     0.00000000
 H      1   2   3     1.089405801343   109.45265545   118.52024246
 C      1   2   3     1.515824198250   112.40347563   237.43786826
 O      5   1   2     1.238752598383   121.07004512   232.42293999
 N      5   1   2     1.373395791460   116.93584778    53.34979849
 C      7   5   1     1.460464652089   119.13375764   173.64121198
 H      8   7   5     1.095359758253   109.55748733   242.75635820
 H      8   7   5     1.089590748859   107.93022362     1.29657983
 C      7   5   1     1.461923732621   124.81082092   357.00603334
 H     11   7   5     1.094362371429   110.20951267    35.86871493
 H     11   7   5     1.094503083595   106.86614245   151.92515781
 C     11   7   5     1.537882310192   113.55958721   271.93093446
 H     14  11   7     1.094225753672   108.95139457   314.70787119
 H     14  11   7     1.096031933841   109.95228531    71.81510137
 C     14  11   7     1.504091752520   110.47799087   194.01102817
 C     17  14  11     1.404004985746   119.35537807    77.76707876
 C     17  14  11     1.399253372338   121.67931565   260.93400469
 C     18  17  14     1.394541143172   120.78591046   182.23624462
 H     18  17  14     1.088976124623   119.31244163     2.59513766
 C     19  17  14     1.396540368196   121.09425032   177.70168845
 H     19  17  14     1.088879699508   119.74979684   356.68168596
 C     22  19  17     1.393709080117   118.78937270   359.44185367
 H     20  18  17     1.086414285620   120.78766232   180.39736638
 H     22  19  17     1.085763786466   120.95469784   179.50205367
 C      8   7   5     1.525316032827   111.02728837   126.72457197
 N     27   8   7     1.362475687856   118.11963785   280.73065820
 O     27   8   7     1.242167460530   119.11783728    98.88466875
 C     28  27   8     1.455941619709   125.32104110     7.67817802
 H     30  28  27     1.097183667396   110.08762005   107.35999687
 H     30  28  27     1.095038812098   109.13337150   226.00807317
 H     30  28  27     1.088088691238   111.95135143   346.65006211
 C     28  27   8     1.455772647085   118.32892263   175.98559846
 H     34  28  27     1.096965359526   110.81167834   258.02193576
 H     34  28  27     1.088203106042   108.65191480    18.22076762
 H     34  28  27     1.093765971312   109.18971239   138.37476357
 Br    24  22  19     1.907948112502   119.24062182   179.94548285

---------------------------
INTERNAL COORDINATES (A.U.)
---------------------------
 C      0   0   0     0.000000000000     0.00000000     0.00000000
 H      1   0   0     2.065350499887     0.00000000     0.00000000
 H      1   2   0     2.067917387394   108.02419775     0.00000000
 H      1   2   3     2.058678613243   109.45265545   118.52024246
 C      1   2   3     2.864492601863   112.40347563   237.43786826
 O      5   1   2     2.340903158627   121.07004512   232.42293999
 N      5   1   2     2.595341919339   116.93584778    53.34979849
 C      7   5   1     2.759878220720   119.13375764   173.64121198
 H      8   7   5     2.069929961216   109.55748733   242.75635820
 H      8   7   5     2.059028113398   107.93022362     1.29657983
 C      7   5   1     2.762635483333   124.81082092   357.00603334
 H     11   7   5     2.068045173270   110.20951267    35.86871493
 H     11   7   5     2.068311080728   106.86614245   151.92515781
 C     11   7   5     2.906176392464   113.55958721   271.93093446
 H     14  11   7     2.067787003124   108.95139457   314.70787119
 H     14  11   7     2.071200188992   109.95228531    71.81510137
 C     14  11   7     2.842321492553   110.47799087   194.01102817
 C     17  14  11     2.653184913720   119.35537807    77.76707876
 C     17  14  11     2.644205665685   121.67931565   260.93400469
 C     18  17  14     2.635300843081   120.78591046   182.23624462
 H     18  17  14     2.057866641917   119.31244163     2.59513766
 C     19  17  14     2.639078830855   121.09425032   177.70168845
 H     19  17  14     2.057684424856   119.74979684   356.68168596
 C     22  19  17     2.633728471780   118.78937270   359.44185367
 H     20  18  17     2.053025467802   120.78766232   180.39736638
 H     22  19  17     2.051796202549   120.95469784   179.50205367
 C      8   7   5     2.882429569723   111.02728837   126.72457197
 N     27   8   7     2.574705914175   118.11963785   280.73065820
 O     27   8   7     2.347356312870   119.11783728    98.88466875
 C     28  27   8     2.751330928227   125.32104110     7.67817802
 H     30  28  27     2.073376649989   110.08762005   107.35999687
 H     30  28  27     2.069323460879   109.13337150   226.00807317
 H     30  28  27     2.056189635857   111.95135143   346.65006211
 C     28  27   8     2.751011616244   118.32892263   175.98559846
 H     34  28  27     2.072964107903   110.81167834   258.02193576
 H     34  28  27     2.056405848502   108.65191480    18.22076762
 H     34  28  27     2.066918140382   109.18971239   138.37476357
 Br    24  22  19     3.605499410361   119.24062182   179.94548285

---------------------
BASIS SET INFORMATION
---------------------
There are 5 groups of distinct atoms

 Group   1 Type C   : 11s5p1d contracted to 4s3p1d pattern {6311/311/1}
 Group   2 Type H   : 5s contracted to 3s pattern {311}
 Group   3 Type O   : 11s5p1d contracted to 4s3p1d pattern {6311/311/1}
 Group   4 Type N   : 11s5p1d contracted to 4s3p1d pattern {6311/311/1}
 Group   5 Type Br  : 15s13p6d contracted to 8s7p3d pattern {63111111/3331111/411}

Atom   0C    basis set group =>   1
Atom   1H    basis set group =>   2
Atom   2H    basis set group =>   2
Atom   3H    basis set group =>   2
Atom   4C    basis set group =>   1
Atom   5O    basis set group =>   3
Atom   6N    basis set group =>   4
Atom   7C    basis set group =>   1
Atom   8H    basis set group =>   2
Atom   9H    basis set group =>   2
Atom  10C    basis set group =>   1
Atom  11H    basis set group =>   2
Atom  12H    basis set group =>   2
Atom  13C    basis set group =>   1
Atom  14H    basis set group =>   2
Atom  15H    basis set group =>   2
Atom  16C    basis set group =>   1
Atom  17C    basis set group =>   1
Atom  18C    basis set group =>   1
Atom  19C    basis set group =>   1
Atom  20H    basis set group =>   2
Atom  21C    basis set group =>   1
Atom  22H    basis set group =>   2
Atom  23C    basis set group =>   1
Atom  24H    basis set group =>   2
Atom  25H    basis set group =>   2
Atom  26C    basis set group =>   1
Atom  27N    basis set group =>   4
Atom  28O    basis set group =>   3
Atom  29C    basis set group =>   1
Atom  30H    basis set group =>   2
Atom  31H    basis set group =>   2
Atom  32H    basis set group =>   2
Atom  33C    basis set group =>   1
Atom  34H    basis set group =>   2
Atom  35H    basis set group =>   2
Atom  36H    basis set group =>   2
Atom  37Br   basis set group =>   5
---------------------------------
AUXILIARY/J BASIS SET INFORMATION
---------------------------------
There are 5 groups of distinct atoms

 Group   1 Type C   : 14s12p11d3f contracted to 14s12p11d3f pattern {11111111111111/111111111111/11111111111/111}
 Group   2 Type H   : 11s2p contracted to 11s2p pattern {11111111111/11}
 Group   3 Type O   : 14s12p11d3f contracted to 14s12p11d3f pattern {11111111111111/111111111111/11111111111/111}
 Group   4 Type N   : 14s12p10d3f contracted to 14s12p10d3f pattern {11111111111111/111111111111/1111111111/111}
 Group   5 Type Br  : 22s20p18d14f8g contracted to 22s20p18d14f8g pattern {1111111111111111111111/11111111111111111111/111111111111111111/11111111111111/11111111}

Atom   0C    basis set group =>   1
Atom   1H    basis set group =>   2
Atom   2H    basis set group =>   2
Atom   3H    basis set group =>   2
Atom   4C    basis set group =>   1
Atom   5O    basis set group =>   3
Atom   6N    basis set group =>   4
Atom   7C    basis set group =>   1
Atom   8H    basis set group =>   2
Atom   9H    basis set group =>   2
Atom  10C    basis set group =>   1
Atom  11H    basis set group =>   2
Atom  12H    basis set group =>   2
Atom  13C    basis set group =>   1
Atom  14H    basis set group =>   2
Atom  15H    basis set group =>   2
Atom  16C    basis set group =>   1
Atom  17C    basis set group =>   1
Atom  18C    basis set group =>   1
Atom  19C    basis set group =>   1
Atom  20H    basis set group =>   2
Atom  21C    basis set group =>   1
Atom  22H    basis set group =>   2
Atom  23C    basis set group =>   1
Atom  24H    basis set group =>   2
Atom  25H    basis set group =>   2
Atom  26C    basis set group =>   1
Atom  27N    basis set group =>   4
Atom  28O    basis set group =>   3
Atom  29C    basis set group =>   1
Atom  30H    basis set group =>   2
Atom  31H    basis set group =>   2
Atom  32H    basis set group =>   2
Atom  33C    basis set group =>   1
Atom  34H    basis set group =>   2
Atom  35H    basis set group =>   2
Atom  36H    basis set group =>   2
Atom  37Br   basis set group =>   5
---------------------------------
AUXILIARY/C BASIS SET INFORMATION
---------------------------------
There are 5 groups of distinct atoms

 Group   1 Type C   : 14s12p11d3f contracted to 14s12p11d3f pattern {11111111111111/111111111111/11111111111/111}
 Group   2 Type H   : 11s2p contracted to 11s2p pattern {11111111111/11}
 Group   3 Type O   : 14s12p11d3f contracted to 14s12p11d3f pattern {11111111111111/111111111111/11111111111/111}
 Group   4 Type N   : 14s12p10d3f contracted to 14s12p10d3f pattern {11111111111111/111111111111/1111111111/111}
 Group   5 Type Br  : 22s20p18d14f8g contracted to 22s20p18d14f8g pattern {1111111111111111111111/11111111111111111111/111111111111111111/11111111111111/11111111}

Atom   0C    basis set group =>   1
Atom   1H    basis set group =>   2
Atom   2H    basis set group =>   2
Atom   3H    basis set group =>   2
Atom   4C    basis set group =>   1
Atom   5O    basis set group =>   3
Atom   6N    basis set group =>   4
Atom   7C    basis set group =>   1
Atom   8H    basis set group =>   2
Atom   9H    basis set group =>   2
Atom  10C    basis set group =>   1
Atom  11H    basis set group =>   2
Atom  12H    basis set group =>   2
Atom  13C    basis set group =>   1
Atom  14H    basis set group =>   2
Atom  15H    basis set group =>   2
Atom  16C    basis set group =>   1
Atom  17C    basis set group =>   1
Atom  18C    basis set group =>   1
Atom  19C    basis set group =>   1
Atom  20H    basis set group =>   2
Atom  21C    basis set group =>   1
Atom  22H    basis set group =>   2
Atom  23C    basis set group =>   1
Atom  24H    basis set group =>   2
Atom  25H    basis set group =>   2
Atom  26C    basis set group =>   1
Atom  27N    basis set group =>   4
Atom  28O    basis set group =>   3
Atom  29C    basis set group =>   1
Atom  30H    basis set group =>   2
Atom  31H    basis set group =>   2
Atom  32H    basis set group =>   2
Atom  33C    basis set group =>   1
Atom  34H    basis set group =>   2
Atom  35H    basis set group =>   2
Atom  36H    basis set group =>   2
Atom  37Br   basis set group =>   5
----------------------------------
AUXILIARY/JK BASIS SET INFORMATION
----------------------------------
There are 5 groups of distinct atoms

 Group   1 Type C   : 14s12p11d3f contracted to 14s12p11d3f pattern {11111111111111/111111111111/11111111111/111}
 Group   2 Type H   : 11s2p contracted to 11s2p pattern {11111111111/11}
 Group   3 Type O   : 14s12p11d3f contracted to 14s12p11d3f pattern {11111111111111/111111111111/11111111111/111}
 Group   4 Type N   : 14s12p10d3f contracted to 14s12p10d3f pattern {11111111111111/111111111111/1111111111/111}
 Group   5 Type Br  : 22s20p18d14f8g contracted to 22s20p18d14f8g pattern {1111111111111111111111/11111111111111111111/111111111111111111/11111111111111/11111111}

Atom   0C    basis set group =>   1
Atom   1H    basis set group =>   2
Atom   2H    basis set group =>   2
Atom   3H    basis set group =>   2
Atom   4C    basis set group =>   1
Atom   5O    basis set group =>   3
Atom   6N    basis set group =>   4
Atom   7C    basis set group =>   1
Atom   8H    basis set group =>   2
Atom   9H    basis set group =>   2
Atom  10C    basis set group =>   1
Atom  11H    basis set group =>   2
Atom  12H    basis set group =>   2
Atom  13C    basis set group =>   1
Atom  14H    basis set group =>   2
Atom  15H    basis set group =>   2
Atom  16C    basis set group =>   1
Atom  17C    basis set group =>   1
Atom  18C    basis set group =>   1
Atom  19C    basis set group =>   1
Atom  20H    basis set group =>   2
Atom  21C    basis set group =>   1
Atom  22H    basis set group =>   2
Atom  23C    basis set group =>   1
Atom  24H    basis set group =>   2
Atom  25H    basis set group =>   2
Atom  26C    basis set group =>   1
Atom  27N    basis set group =>   4
Atom  28O    basis set group =>   3
Atom  29C    basis set group =>   1
Atom  30H    basis set group =>   2
Atom  31H    basis set group =>   2
Atom  32H    basis set group =>   2
Atom  33C    basis set group =>   1
Atom  34H    basis set group =>   2
Atom  35H    basis set group =>   2
Atom  36H    basis set group =>   2
Atom  37Br   basis set group =>   5


           ************************************************************
           *        Program running with 4 parallel MPI-processes     *
           *              working on a common directory               *
           ************************************************************
------------------------------------------------------------------------------
                           ORCA GTO INTEGRAL CALCULATION
                           -- RI-GTO INTEGRALS CHOSEN --
------------------------------------------------------------------------------
------------------------------------------------------------------------------
                   ___                                                        
                  /   \      - P O W E R E D   B Y -                         
                 /     \                                                     
                 |  |  |   _    _      __       _____    __    __             
                 |  |  |  | |  | |    /  \     |  _  \  |  |  /  |          
                  \  \/   | |  | |   /    \    | | | |  |  | /  /          
                 / \  \   | |__| |  /  /\  \   | |_| |  |  |/  /          
                |  |  |   |  __  | /  /__\  \  |    /   |      \           
                |  |  |   | |  | | |   __   |  |    \   |  |\   \          
                \     /   | |  | | |  |  |  |  | |\  \  |  | \   \       
                 \___/    |_|  |_| |__|  |__|  |_| \__\ |__|  \__/        
                                                                              
                      - O R C A' S   B I G   F R I E N D -                    
                                      &                                       
                       - I N T E G R A L  F E E D E R -                       
                                                                              
 v1 FN, 2020, v2 2021                                                         
------------------------------------------------------------------------------


Reading SHARK input file NfeBr_gas.SHARKINP.tmp ... ok
----------------------
SHARK INTEGRAL PACKAGE
----------------------

Number of atoms                             ...     38
Number of basis functions                   ...    425
Number of shells                            ...    219
Maximum angular momentum                    ...      2
Integral batch strategy                     ... SHARK/LIBINT Hybrid
RI-J (if used) integral strategy            ... SPLIT-RIJ (Revised 2003 algorithm where possible)
Printlevel                                  ...      1
Contraction scheme used                     ... SEGMENTED contraction
Coulomb Range Separation                    ... NOT USED
Exchange Range Separation                   ... NOT USED
Finite Nucleus Model                        ... NOT USED
Auxiliary Coulomb fitting basis             ... AVAILABLE
   # of basis functions in Aux-J            ...   2923
   # of shells in Aux-J                     ...   1047
   Maximum angular momentum in Aux-J        ...      4
Auxiliary J/K fitting basis                 ... AVAILABLE
   # of basis functions in Aux-JK           ...   2923
   # of shells in Aux-JK                    ...   1047
   Maximum angular momentum in Aux-JK       ...      4
Auxiliary Correlation fitting basis         ... AVAILABLE
   # of basis functions in Aux-C            ...   2923
   # of shells in Aux-C                     ...   1047
   Maximum angular momentum in Aux-C        ...      4
Auxiliary 'external' fitting basis          ... NOT available
Integral threshold                          ...     2.500000e-11
Primitive cut-off                           ...     2.500000e-12
Primitive pair pre-selection threshold      ...     2.500000e-12

Calculating pre-screening integrals         ... done (  0.1 sec) Dimension = 219
Organizing shell pair data                  ... done (  0.1 sec)
Shell pair information
Total number of shell pairs                 ...     24090
Shell pairs after pre-screening             ...     16562
Total number of primitive shell pairs       ...     95298
Primitive shell pairs kept                  ...     40160
          la=0 lb=0:   6450 shell pairs
          la=1 lb=0:   5895 shell pairs
          la=1 lb=1:   1380 shell pairs
          la=2 lb=0:   1834 shell pairs
          la=2 lb=1:    858 shell pairs
          la=2 lb=2:    145 shell pairs

Calculating one electron integrals          ... done (  0.0 sec)
Calculating RI/J V-Matrix + Cholesky decomp.... done (  0.7 sec)
Calculating RI/JK V-Matrix + Cholesky decomp... done (  0.6 sec)
Calculating RI/C V-Matrix + Cholesky decomp.... done (  0.7 sec)
Calculating Nuclear repulsion               ... done (  0.0 sec) ENN=   1778.670967352738 Eh

SHARK setup successfully completed in   2.6 seconds

Maximum memory used throughout the entire GTOINT-calculation: 72.7 MB


           ************************************************************
           *        Program running with 4 parallel MPI-processes     *
           *              working on a common directory               *
           ************************************************************
-------------------------------------------------------------------------------
                                 ORCA SCF
-------------------------------------------------------------------------------

------------
SCF SETTINGS
------------
Hamiltonian:
 Density Functional     Method          .... DFT(GTOs)
 Exchange Functional    Exchange        .... B88
   X-Alpha parameter    XAlpha          ....  0.666667
   Becke's b parameter  XBeta           ....  0.004200
 Correlation Functional Correlation     .... LYP
 LDA part of GGA corr.  LDAOpt          .... VWN-5
 Gradients option       PostSCFGGA      .... off
 Hybrid DFT is turned on
   Fraction HF Exchange ScalHFX         ....  0.200000
   Scaling of DF-GGA-X  ScalDFX         ....  0.720000
   Scaling of DF-GGA-C  ScalDFC         ....  0.810000
   Scaling of DF-LDA-C  ScalLDAC        ....  1.000000
   Perturbative correction              ....  0.000000
   Density functional embedding theory  .... OFF
   NL short-range parameter             ....  4.800000
 RI-approximation to the Coulomb term is turned on
   Number of AuxJ basis functions       .... 2923
   RIJ-COSX (HFX calculated with COS-X)).... on


General Settings:
 Integral files         IntName         .... NfeBr_gas
 Hartree-Fock type      HFTyp           .... RHF
 Total Charge           Charge          ....    0
 Multiplicity           Mult            ....    1
 Number of Electrons    NEL             ....  168
 Basis Dimension        Dim             ....  425
 Nuclear Repulsion      ENuc            ....   1778.6709673527 Eh

Convergence Acceleration:
 DIIS                   CNVDIIS         .... on
   Start iteration      DIISMaxIt       ....    12
   Startup error        DIISStart       ....  0.200000
   # of expansion vecs  DIISMaxEq       ....     5
   Bias factor          DIISBfac        ....   1.050
   Max. coefficient     DIISMaxC        ....  10.000
 Trust-Rad. Augm. Hess. CNVTRAH         .... auto
   Auto Start mean grad. ratio tolernc. ....  1.125000
   Auto Start start iteration           ....    20
   Auto Start num. interpolation iter.  ....    10
   Max. Number of Micro iterations      ....    16
   Max. Number of Macro iterations      .... Maxiter - #DIIS iter
   Number of Davidson start vectors     ....     2
   Converg. threshold I  (grad. norm)   ....   1.000e-05
   Converg. threshold II (energy diff.) ....   1.000e-08
   Grad. Scal. Fac. for Micro threshold ....   0.100
   Minimum threshold for Micro iter.    ....   0.010
   NR start threshold (gradient norm)   ....   0.001
   Initial trust radius                 ....   0.400
   Minimum AH scaling param. (alpha)    ....   1.000
   Maximum AH scaling param. (alpha)    .... 1000.000
   Orbital update algorithm             .... Taylor
   White noise on init. David. guess    .... on
   Maximum white noise                  ....   0.010
   Quad. conv. algorithm                .... NR
 SOSCF                  CNVSOSCF        .... on
   Start iteration      SOSCFMaxIt      ....   150
   Startup grad/error   SOSCFStart      ....  0.003300
 Level Shifting         CNVShift        .... on
   Level shift para.    LevelShift      ....    0.2500
   Turn off err/grad.   ShiftErr        ....    0.0010
 Zerner damping         CNVZerner       .... off
 Static damping         CNVDamp         .... on
   Fraction old density DampFac         ....    0.7000
   Max. Damping (<1)    DampMax         ....    0.9800
   Min. Damping (>=0)   DampMin         ....    0.0000
   Turn off err/grad.   DampErr         ....    0.1000
 Fernandez-Rico         CNVRico         .... off

SCF Procedure:
 Maximum # iterations   MaxIter         ....   125
 SCF integral mode      SCFMode         .... Direct
   Integral package                     .... SHARK and LIBINT hybrid scheme
 Reset frequency        DirectResetFreq ....    20
 Integral Threshold     Thresh          ....  2.500e-11 Eh
 Primitive CutOff       TCut            ....  2.500e-12 Eh

Convergence Tolerance:
 Convergence Check Mode ConvCheckMode   .... Total+1el-Energy
 Convergence forced     ConvForced      .... 0
 Energy Change          TolE            ....  1.000e-08 Eh
 1-El. energy change                    ....  1.000e-05 Eh
 Orbital Gradient       TolG            ....  1.000e-05
 Orbital Rotation angle TolX            ....  1.000e-05
 DIIS Error             TolErr          ....  5.000e-07


Diagonalization of the overlap matrix:
Smallest eigenvalue                        ... 1.710e-04
Time for diagonalization                   ...    0.030 sec
Threshold for overlap eigenvalues          ... 1.000e-08
Number of eigenvalues below threshold      ... 0
Time for construction of square roots      ...    0.020 sec
Total time needed                          ...    0.051 sec

Time for model grid setup =    0.468 sec

------------------------------
INITIAL GUESS: MODEL POTENTIAL
------------------------------
Loading Hartree-Fock densities                     ... done
Calculating cut-offs                               ... done
Initializing the effective Hamiltonian             ... done
Setting up the integral package (SHARK)            ... done
Starting the Coulomb interaction                   ... done (   0.6 sec)
Reading the grid                                   ... done
Mapping shells                                     ... done
Starting the XC term evaluation                    ... done (   0.3 sec)
  promolecular density results
     # of electrons  =    167.993790996
     EX              =   -196.907908832
     EC              =     -6.196876384
     EX+EC           =   -203.104785216
Transforming the Hamiltonian                       ... done (   0.0 sec)
Diagonalizing the Hamiltonian                      ... done (   0.0 sec)
Back transforming the eigenvectors                 ... done (   0.0 sec)
Now organizing SCF variables                       ... done
                      ------------------
                      INITIAL GUESS DONE (   1.5 sec)
                      ------------------
-------------------
DFT GRID GENERATION
-------------------

General Integration Accuracy     IntAcc      ... 4.388
Radial Grid Type                 RadialGrid  ... OptM3 with GC (2021)
Angular Grid (max. ang.)         AngularGrid ... 4 (Lebedev-302)
Angular grid pruning method      GridPruning ... 4 (adaptive)
Weight generation scheme         WeightScheme... Becke
Basis function cutoff            BFCut       ... 1.0000e-11
Integration weight cutoff        WCut        ... 1.0000e-14
Angular grids for H and He will be reduced by one unit
Partially contracted basis set               ... off
Rotationally invariant grid construction     ... off

Total number of grid points                  ...   178947
Total number of batches                      ...     2815
Average number of points per batch           ...       63
Average number of grid points per atom       ...     4709
Time for grid setup =    1.909 sec

--------------------
COSX GRID GENERATION
--------------------

GRIDX 1
-------
General Integration Accuracy     IntAcc      ... 3.816
Radial Grid Type                 RadialGrid  ... OptM3 with GC (2021)
Angular Grid (max. ang.)         AngularGrid ... 1 (Lebedev-50)
Angular grid pruning method      GridPruning ... 4 (adaptive)
Weight generation scheme         WeightScheme... Becke
Basis function cutoff            BFCut       ... 1.0000e-11
Integration weight cutoff        WCut        ... 1.0000e-14
Angular grids for H and He will be reduced by one unit
Partially contracted basis set               ... on
Rotationally invariant grid construction     ... off

Total number of grid points                  ...    22541
Total number of batches                      ...      373
Average number of points per batch           ...       60
Average number of grid points per atom       ...      593
UseSFitting                                  ... on

GRIDX 2
-------
General Integration Accuracy     IntAcc      ... 4.020
Radial Grid Type                 RadialGrid  ... OptM3 with GC (2021)
Angular Grid (max. ang.)         AngularGrid ... 2 (Lebedev-110)
Angular grid pruning method      GridPruning ... 4 (adaptive)
Weight generation scheme         WeightScheme... Becke
Basis function cutoff            BFCut       ... 1.0000e-11
Integration weight cutoff        WCut        ... 1.0000e-14
Angular grids for H and He will be reduced by one unit
Partially contracted basis set               ... on
Rotationally invariant grid construction     ... off

Total number of grid points                  ...    48104
Total number of batches                      ...      769
Average number of points per batch           ...       62
Average number of grid points per atom       ...     1266
UseSFitting                                  ... on

GRIDX 3
-------
General Integration Accuracy     IntAcc      ... 4.338
Radial Grid Type                 RadialGrid  ... OptM3 with GC (2021)
Angular Grid (max. ang.)         AngularGrid ... 3 (Lebedev-194)
Angular grid pruning method      GridPruning ... 4 (adaptive)
Weight generation scheme         WeightScheme... Becke
Basis function cutoff            BFCut       ... 1.0000e-11
Integration weight cutoff        WCut        ... 1.0000e-14
Angular grids for H and He will be reduced by one unit
Partially contracted basis set               ... on
Rotationally invariant grid construction     ... off

Total number of grid points                  ...   105141
Total number of batches                      ...     1663
Average number of points per batch           ...       63
Average number of grid points per atom       ...     2767
UseSFitting                                  ... on

Time for X-Grid setup             =    2.132 sec

--------------
SCF ITERATIONS
--------------
ITER       Energy         Delta-E        Max-DP      RMS-DP      [F,P]     Damp
               ***  Starting incremental Fock matrix formation  ***
  0  -3378.0495760865   0.000000000000 0.09567483  0.00131407  0.3433351 0.7000
  1  -3378.3128485460  -0.263272459501 0.05680035  0.00084543  0.1269212 0.7000
                               ***Turning on DIIS***
  2  -3378.4116387383  -0.098790192338 0.06227442  0.00120677  0.0534732 0.0000
  3  -3378.5711256688  -0.159486930498 0.04017529  0.00063953  0.0594604 0.0000
  4  -3378.6054876311  -0.034361962335 0.01088198  0.00018624  0.0195509 0.0000
  5  -3378.6078614092  -0.002373778060 0.00471508  0.00006375  0.0084330 0.0000
                      *** Initiating the SOSCF procedure ***
                           *** Shutting down DIIS ***
                      *** Re-Reading the Fockian *** 
                      *** Removing any level shift *** 
ITER      Energy       Delta-E        Grad      Rot      Max-DP    RMS-DP
  6  -3378.60807374  -0.0002123298  0.000246  0.000246  0.001126  0.000026
               *** Restarting incremental Fock matrix formation ***
  7  -3378.60810884  -0.0000350982  0.000222  0.000699  0.001364  0.000016
  8  -3378.60810067   0.0000081680  0.000356  0.000539  0.000824  0.000009
  9  -3378.60811387  -0.0000132013  0.000048  0.000170  0.000198  0.000003
 10  -3378.60811349   0.0000003832  0.000082  0.000100  0.000130  0.000002
 11  -3378.60811398  -0.0000004922  0.000014  0.000032  0.000036  0.000001
 12  -3378.60811397   0.0000000117  0.000017  0.000028  0.000019  0.000000
 13  -3378.60811399  -0.0000000227  0.000004  0.000012  0.000008  0.000000
 14  -3378.60811397   0.0000000212  0.000005  0.000006  0.000006  0.000000
                  ***Gradient check signals convergence***
              ***Rediagonalizing the Fockian in SOSCF/NRSCF***

               *****************************************************
               *                     SUCCESS                       *
               *           SCF CONVERGED AFTER  15 CYCLES          *
               *****************************************************

Old exchange energy                            =    -39.734599990 Eh
New exchange energy                            =    -39.734603009 Eh
Exchange energy change after final integration =     -0.000003019 Eh
Total energy after final integration           =  -3378.608117014 Eh
Final COS-X integration done in                =    22.774 sec

----------------
TOTAL SCF ENERGY
----------------

Total Energy       :        -3378.60811701 Eh          -91936.60083 eV

Components:
Nuclear Repulsion  :         1778.67096735 Eh           48400.09764 eV
Electronic Energy  :        -5157.27908437 Eh         -140336.69847 eV
One Electron Energy:        -8212.24263206 Eh         -223466.48283 eV
Two Electron Energy:         3054.96354769 Eh           83129.78437 eV
Max COSX asymmetry :            0.00000282 Eh               0.00008 eV

Virial components:
Potential Energy   :        -6751.59301936 Eh         -183720.18621 eV
Kinetic Energy     :         3372.98490234 Eh           91783.58538 eV
Virial Ratio       :            2.00166713


DFT components:
N(Alpha)           :       83.999832817137 electrons
N(Beta)            :       83.999832817137 electrons
N(Total)           :      167.999665634273 electrons
E(X)               :     -158.032790991928 Eh       
E(C)               :       -7.278712539417 Eh       
E(XC)              :     -165.311503531344 Eh       
DFET-embed. en.    :        0.000000000000 Eh       

---------------
SCF CONVERGENCE
---------------

  Last Energy change         ...   -2.5649e-08  Tolerance :   1.0000e-08
  Last MAX-Density change    ...    2.8866e-15  Tolerance :   1.0000e-07
  Last RMS-Density change    ...    2.9315e-17  Tolerance :   5.0000e-09
  Last Orbital Gradient      ...    6.9313e-07  Tolerance :   1.0000e-05
  Last Orbital Rotation      ...    3.0498e-06  Tolerance :   1.0000e-05

             **** THE GBW FILE WAS UPDATED (NfeBr_gas.gbw) ****
             **** DENSITY NfeBr_gas.scfp WAS UPDATED ****
             **** ENERGY FILE WAS UPDATED (NfeBr_gas.en.tmp) ****
             **** THE GBW FILE WAS UPDATED (NfeBr_gas.gbw) ****
             **** DENSITY NfeBr_gas.scfp WAS UPDATED ****
----------------
ORBITAL ENERGIES
----------------

  NO   OCC          E(Eh)            E(eV) 
   0   2.0000    -482.824249    -13138.3157 
   1   2.0000     -62.477348     -1700.0951 
   2   2.0000     -56.297627     -1531.9363 
   3   2.0000     -56.293824     -1531.8328 
   4   2.0000     -56.293702     -1531.8295 
   5   2.0000     -19.087230      -519.3899 
   6   2.0000     -19.086449      -519.3687 
   7   2.0000     -14.353327      -390.5739 
   8   2.0000     -14.353052      -390.5664 
   9   2.0000     -10.279448      -279.7180 
  10   2.0000     -10.275339      -279.6062 
  11   2.0000     -10.229944      -278.3709 
  12   2.0000     -10.219084      -278.0754 
  13   2.0000     -10.213817      -277.9321 
  14   2.0000     -10.206005      -277.7195 
  15   2.0000     -10.201792      -277.6049 
  16   2.0000     -10.190732      -277.3039 
  17   2.0000     -10.188131      -277.2331 
  18   2.0000     -10.186386      -277.1856 
  19   2.0000     -10.186071      -277.1771 
  20   2.0000     -10.186042      -277.1763 
  21   2.0000     -10.182107      -277.0692 
  22   2.0000     -10.179959      -277.0108 
  23   2.0000      -8.687135      -236.3890 
  24   2.0000      -6.518481      -177.3769 
  25   2.0000      -6.505703      -177.0292 
  26   2.0000      -6.505455      -177.0224 
  27   2.0000      -2.629474       -71.5516 
  28   2.0000      -2.625800       -71.4516 
  29   2.0000      -2.625635       -71.4472 
  30   2.0000      -2.615472       -71.1706 
  31   2.0000      -2.615463       -71.1704 
  32   2.0000      -1.043234       -28.3878 
  33   2.0000      -1.035422       -28.1753 
  34   2.0000      -0.948681       -25.8149 
  35   2.0000      -0.943076       -25.6624 
  36   2.0000      -0.879675       -23.9372 
  37   2.0000      -0.822590       -22.3838 
  38   2.0000      -0.783091       -21.3090 
  39   2.0000      -0.771595       -20.9962 
  40   2.0000      -0.760352       -20.6902 
  41   2.0000      -0.737944       -20.0805 
  42   2.0000      -0.726492       -19.7689 
  43   2.0000      -0.716231       -19.4896 
  44   2.0000      -0.686103       -18.6698 
  45   2.0000      -0.655797       -17.8451 
  46   2.0000      -0.624759       -17.0006 
  47   2.0000      -0.588807       -16.0223 
  48   2.0000      -0.567733       -15.4488 
  49   2.0000      -0.554047       -15.0764 
  50   2.0000      -0.529007       -14.3950 
  51   2.0000      -0.512849       -13.9553 
  52   2.0000      -0.499832       -13.6011 
  53   2.0000      -0.495852       -13.4928 
  54   2.0000      -0.484096       -13.1729 
  55   2.0000      -0.477900       -13.0043 
  56   2.0000      -0.472309       -12.8522 
  57   2.0000      -0.466638       -12.6979 
  58   2.0000      -0.460489       -12.5306 
  59   2.0000      -0.440512       -11.9870 
  60   2.0000      -0.432968       -11.7817 
  61   2.0000      -0.430877       -11.7248 
  62   2.0000      -0.419375       -11.4118 
  63   2.0000      -0.415824       -11.3151 
  64   2.0000      -0.413686       -11.2570 
  65   2.0000      -0.411790       -11.2054 
  66   2.0000      -0.409139       -11.1332 
  67   2.0000      -0.405881       -11.0446 
  68   2.0000      -0.394678       -10.7397 
  69   2.0000      -0.389069       -10.5871 
  70   2.0000      -0.382097       -10.3974 
  71   2.0000      -0.379160       -10.3175 
  72   2.0000      -0.371050       -10.0968 
  73   2.0000      -0.361825        -9.8458 
  74   2.0000      -0.353760        -9.6263 
  75   2.0000      -0.348031        -9.4704 
  76   2.0000      -0.311121        -8.4660 
  77   2.0000      -0.288818        -7.8591 
  78   2.0000      -0.270963        -7.3733 
  79   2.0000      -0.266391        -7.2489 
  80   2.0000      -0.262703        -7.1485 
  81   2.0000      -0.252732        -6.8772 
  82   2.0000      -0.251836        -6.8528 
  83   2.0000      -0.238497        -6.4898 
  84   0.0000      -0.022807        -0.6206 
  85   0.0000      -0.020192        -0.5495 
  86   0.0000      -0.003425        -0.0932 
  87   0.0000      -0.001869        -0.0508 
  88   0.0000       0.011404         0.3103 
  89   0.0000       0.027561         0.7500 
  90   0.0000       0.037215         1.0127 
  91   0.0000       0.058780         1.5995 
  92   0.0000       0.068379         1.8607 
  93   0.0000       0.078206         2.1281 
  94   0.0000       0.082346         2.2407 
  95   0.0000       0.088261         2.4017 
  96   0.0000       0.092403         2.5144 
  97   0.0000       0.098818         2.6890 
  98   0.0000       0.102446         2.7877 
  99   0.0000       0.110271         3.0006 
 100   0.0000       0.111442         3.0325 
 101   0.0000       0.124745         3.3945 
 102   0.0000       0.130210         3.5432 
 103   0.0000       0.132656         3.6098 
 104   0.0000       0.137849         3.7511 
 105   0.0000       0.140211         3.8153 
 106   0.0000       0.151113         4.1120 
 107   0.0000       0.159579         4.3424 
 108   0.0000       0.167780         4.5655 
 109   0.0000       0.172077         4.6825 
 110   0.0000       0.177209         4.8221 
 111   0.0000       0.189872         5.1667 
 112   0.0000       0.194289         5.2869 
 113   0.0000       0.200671         5.4605 
 114   0.0000       0.221311         6.0222 
 115   0.0000       0.230533         6.2731 
 116   0.0000       0.233752         6.3607 
 117   0.0000       0.239219         6.5095 
 118   0.0000       0.248006         6.7486 
 119   0.0000       0.263147         7.1606 
 120   0.0000       0.273588         7.4447 
 121   0.0000       0.277831         7.5602 
 122   0.0000       0.280694         7.6381 
 123   0.0000       0.286714         7.8019 
 124   0.0000       0.295903         8.0519 
 125   0.0000       0.297953         8.1077 
 126   0.0000       0.306589         8.3427 
 127   0.0000       0.312549         8.5049 
 128   0.0000       0.324498         8.8300 
 129   0.0000       0.330217         8.9857 
 130   0.0000       0.333566         9.0768 
 131   0.0000       0.343627         9.3506 
 132   0.0000       0.349501         9.5104 
 133   0.0000       0.360038         9.7971 
 134   0.0000       0.373617        10.1666 
 135   0.0000       0.380751        10.3608 
 136   0.0000       0.388835        10.5807 
 137   0.0000       0.390931        10.6378 
 138   0.0000       0.395573        10.7641 
 139   0.0000       0.410505        11.1704 
 140   0.0000       0.412765        11.2319 
 141   0.0000       0.421093        11.4585 
 142   0.0000       0.423764        11.5312 
 143   0.0000       0.429644        11.6912 
 144   0.0000       0.431879        11.7520 
 145   0.0000       0.437207        11.8970 
 146   0.0000       0.439969        11.9722 
 147   0.0000       0.445074        12.1111 
 148   0.0000       0.465738        12.6734 
 149   0.0000       0.475961        12.9516 
 150   0.0000       0.480986        13.0883 
 151   0.0000       0.484786        13.1917 
 152   0.0000       0.492711        13.4073 
 153   0.0000       0.499444        13.5906 
 154   0.0000       0.510993        13.9048 
 155   0.0000       0.519513        14.1367 
 156   0.0000       0.523812        14.2537 
 157   0.0000       0.531236        14.4557 
 158   0.0000       0.543085        14.7781 
 159   0.0000       0.547111        14.8877 
 160   0.0000       0.557112        15.1598 
 161   0.0000       0.560712        15.2577 
 162   0.0000       0.565819        15.3967 
 163   0.0000       0.569608        15.4998 
 164   0.0000       0.573415        15.6034 
 165   0.0000       0.576008        15.6740 
 166   0.0000       0.579470        15.7682 
 167   0.0000       0.587620        15.9899 
 168   0.0000       0.593688        16.1551 
 169   0.0000       0.597180        16.2501 
 170   0.0000       0.602575        16.3969 
 171   0.0000       0.604832        16.4583 
 172   0.0000       0.609937        16.5972 
 173   0.0000       0.610796        16.6206 
 174   0.0000       0.616205        16.7678 
 175   0.0000       0.622886        16.9496 
 176   0.0000       0.627215        17.0674 
 177   0.0000       0.633828        17.2473 
 178   0.0000       0.645255        17.5583 
 179   0.0000       0.647758        17.6264 
 180   0.0000       0.649421        17.6716 
 181   0.0000       0.660970        17.9859 
 182   0.0000       0.667509        18.1638 
 183   0.0000       0.674204        18.3460 
 184   0.0000       0.680517        18.5178 
 185   0.0000       0.685719        18.6594 
 186   0.0000       0.694186        18.8898 
 187   0.0000       0.707322        19.2472 
 188   0.0000       0.732857        19.9420 
 189   0.0000       0.738424        20.0935 
 190   0.0000       0.752766        20.4838 
 191   0.0000       0.757456        20.6114 
 192   0.0000       0.771142        20.9838 
 193   0.0000       0.776952        21.1419 
 194   0.0000       0.794067        21.6076 
 195   0.0000       0.798969        21.7410 
 196   0.0000       0.810153        22.0454 
 197   0.0000       0.824085        22.4245 
 198   0.0000       0.834820        22.7166 
 199   0.0000       0.837585        22.7919 
 200   0.0000       0.845481        23.0067 
 201   0.0000       0.873682        23.7741 
 202   0.0000       0.886284        24.1170 
 203   0.0000       0.892967        24.2989 
 204   0.0000       0.920578        25.0502 
 205   0.0000       0.933069        25.3901 
 206   0.0000       0.935852        25.4658 
 207   0.0000       0.945860        25.7382 
 208   0.0000       0.956825        26.0365 
 209   0.0000       0.973114        26.4798 
 210   0.0000       0.987787        26.8790 
 211   0.0000       0.992027        26.9944 
 212   0.0000       1.009198        27.4617 
 213   0.0000       1.016635        27.6640 
 214   0.0000       1.038666        28.2635 
 215   0.0000       1.052149        28.6304 
 216   0.0000       1.068169        29.0664 
 217   0.0000       1.075433        29.2640 
 218   0.0000       1.078243        29.3405 
 219   0.0000       1.101437        29.9716 
 220   0.0000       1.107777        30.1441 
 221   0.0000       1.132197        30.8087 
 222   0.0000       1.141361        31.0580 
 223   0.0000       1.154913        31.4268 
 224   0.0000       1.168147        31.7869 
 225   0.0000       1.191618        32.4256 
 226   0.0000       1.196232        32.5511 
 227   0.0000       1.208870        32.8950 
 228   0.0000       1.218377        33.1537 
 229   0.0000       1.235560        33.6213 
 230   0.0000       1.264899        34.4197 
 231   0.0000       1.272373        34.6230 
 232   0.0000       1.280556        34.8457 
 233   0.0000       1.284015        34.9398 
 234   0.0000       1.308381        35.6029 
 235   0.0000       1.327230        36.1158 
 236   0.0000       1.385703        37.7069 
 237   0.0000       1.409383        38.3513 
 238   0.0000       1.429083        38.8873 
 239   0.0000       1.436482        39.0887 
 240   0.0000       1.450517        39.4706 
 241   0.0000       1.464711        39.8568 
 242   0.0000       1.479923        40.2707 
 243   0.0000       1.481729        40.3199 
 244   0.0000       1.507648        41.0252 
 245   0.0000       1.511801        41.1382 
 246   0.0000       1.528236        41.5854 
 247   0.0000       1.531071        41.6626 
 248   0.0000       1.538357        41.8608 
 249   0.0000       1.547966        42.1223 
 250   0.0000       1.552703        42.2512 
 251   0.0000       1.563146        42.5354 
 252   0.0000       1.570510        42.7357 
 253   0.0000       1.581185        43.0262 
 254   0.0000       1.588769        43.2326 
 255   0.0000       1.599614        43.5277 
 256   0.0000       1.614370        43.9292 
 257   0.0000       1.627250        44.2797 
 258   0.0000       1.639597        44.6157 
 259   0.0000       1.661507        45.2119 
 260   0.0000       1.662471        45.2381 
 261   0.0000       1.673937        45.5501 
 262   0.0000       1.694841        46.1190 
 263   0.0000       1.699912        46.2570 
 264   0.0000       1.715461        46.6801 
 265   0.0000       1.722266        46.8652 
 266   0.0000       1.728021        47.0218 
 267   0.0000       1.748336        47.5746 
 268   0.0000       1.760740        47.9122 
 269   0.0000       1.768913        48.1346 
 270   0.0000       1.778739        48.4020 
 271   0.0000       1.786514        48.6135 
 272   0.0000       1.798730        48.9459 
 273   0.0000       1.812795        49.3287 
 274   0.0000       1.830339        49.8061 
 275   0.0000       1.847452        50.2717 
 276   0.0000       1.862144        50.6715 
 277   0.0000       1.890817        51.4518 
 278   0.0000       1.904774        51.8315 
 279   0.0000       1.907528        51.9065 
 280   0.0000       1.920726        52.2656 
 281   0.0000       1.930739        52.5381 
 282   0.0000       1.935549        52.6690 
 283   0.0000       1.942630        52.8617 
 284   0.0000       1.951377        53.0997 
 285   0.0000       1.971530        53.6481 
 286   0.0000       1.986217        54.0477 
 287   0.0000       2.009910        54.6924 
 288   0.0000       2.067502        56.2596 
 289   0.0000       2.088092        56.8199 
 290   0.0000       2.134647        58.0867 
 291   0.0000       2.138864        58.2015 
 292   0.0000       2.167053        58.9685 
 293   0.0000       2.192752        59.6678 
 294   0.0000       2.231045        60.7098 
 295   0.0000       2.257074        61.4181 
 296   0.0000       2.272370        61.8343 
 297   0.0000       2.275445        61.9180 
 298   0.0000       2.285411        62.1892 
 299   0.0000       2.299342        62.5683 
 300   0.0000       2.313862        62.9634 
 301   0.0000       2.320893        63.1547 
 302   0.0000       2.329320        63.3840 
 303   0.0000       2.331329        63.4387 
 304   0.0000       2.346663        63.8559 
 305   0.0000       2.362474        64.2862 
 306   0.0000       2.383728        64.8645 
 307   0.0000       2.391582        65.0782 
 308   0.0000       2.409155        65.5565 
 309   0.0000       2.415753        65.7360 
 310   0.0000       2.443850        66.5005 
 311   0.0000       2.450122        66.6712 
 312   0.0000       2.454217        66.7826 
 313   0.0000       2.485346        67.6297 
 314   0.0000       2.493553        67.8530 
 315   0.0000       2.507460        68.2315 
 316   0.0000       2.532762        68.9200 
 317   0.0000       2.535048        68.9822 
 318   0.0000       2.551698        69.4352 
 319   0.0000       2.576137        70.1003 
 320   0.0000       2.581440        70.2445 
 321   0.0000       2.619992        71.2936 
 322   0.0000       2.641507        71.8791 
 323   0.0000       2.667616        72.5895 
 324   0.0000       2.689455        73.1838 
 325   0.0000       2.716142        73.9100 
 326   0.0000       2.724367        74.1338 
 327   0.0000       2.743507        74.6546 
 328   0.0000       2.766680        75.2852 
 329   0.0000       2.787842        75.8611 
 330   0.0000       2.805896        76.3523 
 331   0.0000       2.839134        77.2568 
 332   0.0000       2.840919        77.3053 
 333   0.0000       2.853652        77.6518 
 334   0.0000       2.873437        78.1902 
 335   0.0000       2.893513        78.7365 
 336   0.0000       2.916142        79.3522 
 337   0.0000       2.923911        79.5637 
 338   0.0000       2.936632        79.9098 
 339   0.0000       2.979420        81.0742 
 340   0.0000       3.006289        81.8053 
 341   0.0000       3.021279        82.2132 
 342   0.0000       3.023973        82.2865 
 343   0.0000       3.038841        82.6911 
 344   0.0000       3.083977        83.9193 
 345   0.0000       3.106100        84.5213 
 346   0.0000       3.124494        85.0218 
 347   0.0000       3.143681        85.5439 
 348   0.0000       3.154870        85.8484 
 349   0.0000       3.184564        86.6564 
 350   0.0000       3.197225        87.0009 
 351   0.0000       3.207313        87.2754 
 352   0.0000       3.247591        88.3715 
 353   0.0000       3.264812        88.8401 
 354   0.0000       3.278038        89.2000 
 355   0.0000       3.296323        89.6975 
 356   0.0000       3.306756        89.9814 
 357   0.0000       3.325546        90.4927 
 358   0.0000       3.342472        90.9533 
 359   0.0000       3.353867        91.2634 
 360   0.0000       3.366608        91.6101 
 361   0.0000       3.369765        91.6960 
 362   0.0000       3.395686        92.4013 
 363   0.0000       3.400717        92.5382 
 364   0.0000       3.430970        93.3614 
 365   0.0000       3.442698        93.6806 
 366   0.0000       3.500741        95.2600 
 367   0.0000       3.535725        96.2120 
[...]
    107       0.000672  -0.040127  -0.557409  -0.070220  -0.000327  -0.000545
    108      -0.000028  -0.010096  -0.140322  -0.016620  -0.000152   0.000156
    109       0.000003   0.009223   0.126645   0.013740   0.000120  -0.000157
    110      -0.000017  -0.001810  -0.024343  -0.002866  -0.000024   0.000062
    111      -0.000002  -0.000014   0.000001   0.000001   0.000028  -0.000094
    112       0.000007  -0.000006   0.000000   0.000000   0.000003  -0.000012
    113       0.000005  -0.000004   0.000000  -0.000000   0.000004  -0.000013


-----------
IR SPECTRUM
-----------

 Mode   freq       eps      Int      T**2         TX        TY        TZ
       cm**-1   L/(mol*cm) km/mol    a.u.
----------------------------------------------------------------------------
  6:     21.81   0.000039    0.20  0.000554  ( 0.004183 -0.019422 -0.012607)
  7:     32.43   0.000503    2.54  0.004841  ( 0.064667 -0.010425 -0.023460)
  8:     39.01   0.000223    1.13  0.001784  ( 0.005428 -0.022199 -0.035527)
  9:     43.91   0.000212    1.07  0.001505  ( 0.025972 -0.004358 -0.028488)
 10:     66.95   0.000473    2.39  0.002206  (-0.015050  0.034683  0.027860)
 11:     76.10   0.000136    0.69  0.000557  ( 0.009861 -0.019241 -0.009485)
 12:    101.03   0.000706    3.57  0.002180  ( 0.028973 -0.023450 -0.028116)
 13:    105.87   0.000573    2.89  0.001688  (-0.021046  0.032357 -0.014065)
 14:    120.35   0.001621    8.19  0.004202  (-0.004475 -0.052845  0.037271)
 15:    129.17   0.000320    1.62  0.000773  ( 0.013902 -0.023921  0.002784)
 16:    143.81   0.000083    0.42  0.000180  (-0.004719  0.009118 -0.008660)
 17:    150.56   0.000346    1.75  0.000716  (-0.002371  0.026418 -0.003575)
 18:    161.56   0.000089    0.45  0.000173  ( 0.000324 -0.011264 -0.006774)
 19:    210.85   0.000285    1.44  0.000422  ( 0.013760 -0.011187 -0.010347)
 20:    223.90   0.000071    0.36  0.000099  (-0.005603  0.003206  0.007548)
 21:    247.89   0.000317    1.60  0.000399  (-0.005603  0.015123  0.011779)
 22:    280.46   0.001673    8.46  0.001862  (-0.028109  0.032396  0.004725)
 23:    285.93   0.000186    0.94  0.000203  ( 0.006133 -0.011007 -0.006631)
 24:    332.46   0.000124    0.63  0.000117  (-0.000427  0.001569 -0.010678)
 25:    363.73   0.001248    6.31  0.001071  (-0.010280  0.021657 -0.022279)
 26:    365.48   0.000782    3.95  0.000668  ( 0.022557  0.008734  0.009106)
 27:    383.37   0.000539    2.72  0.000439  (-0.015682 -0.001945 -0.013753)
 28:    394.07   0.002077   10.50  0.001645  ( 0.026827  0.024066 -0.018607)
 29:    418.22   0.000013    0.06  0.000010  ( 0.002886  0.000213  0.001092)
 30:    432.03   0.000214    1.08  0.000154  ( 0.011862  0.000959 -0.003560)
 31:    469.27   0.001698    8.58  0.001129  (-0.032064 -0.002438  0.009762)
 32:    487.26   0.002719   13.74  0.001742  (-0.018171  0.034544  0.014769)
 33:    519.63   0.004447   22.47  0.002670  ( 0.001013  0.017518 -0.048606)
 34:    581.15   0.002161   10.92  0.001160  ( 0.006117  0.028083 -0.018281)
 35:    596.43   0.001225    6.19  0.000641  (-0.013707 -0.018976  0.009655)
 36:    611.65   0.001661    8.39  0.000847  ( 0.009592  0.010412 -0.025437)
 37:    647.43   0.000631    3.19  0.000304  ( 0.014361  0.005353  0.008323)
 38:    654.17   0.003425   17.31  0.001634  ( 0.035791  0.009609  0.016136)
 39:    698.34   0.000309    1.56  0.000138  (-0.009916  0.005669 -0.002792)
 40:    725.97   0.000499    2.52  0.000214  (-0.006502 -0.010556  0.007783)
 41:    761.65   0.001964    9.93  0.000805  (-0.002856 -0.024079  0.014724)
 42:    781.68   0.001409    7.12  0.000563  ( 0.019027 -0.010089 -0.009941)
 43:    817.10   0.006204   31.35  0.002369  (-0.024874  0.020450 -0.036504)
 44:    822.44   0.001459    7.37  0.000553  ( 0.020556  0.004945 -0.010315)
 45:    845.47   0.000348    1.76  0.000128  (-0.000050 -0.003333  0.010827)
 46:    866.53   0.003170   16.02  0.001142  ( 0.006615  0.020631 -0.025927)
 47:    946.41   0.000049    0.25  0.000016  (-0.001328  0.001751 -0.003353)
 48:    956.46   0.000351    1.77  0.000114  ( 0.004258 -0.007983  0.005704)
 49:    983.63   0.000021    0.11  0.000007  (-0.000485 -0.002559  0.000094)
 50:    996.32   0.003503   17.70  0.001097  (-0.028334  0.003935 -0.016696)
 51:   1006.18   0.005227   26.41  0.001621  ( 0.017423  0.028976 -0.021861)
 52:   1023.42   0.003698   18.69  0.001128  ( 0.012593  0.027886  0.013839)
 53:   1026.79   0.005714   28.88  0.001737  ( 0.032438  0.017407 -0.019532)
 54:   1030.19   0.007816   39.50  0.002368  ( 0.045218  0.008211  0.015984)
 55:   1059.96   0.000766    3.87  0.000226  (-0.000279  0.006282 -0.013639)
 56:   1088.12   0.006640   33.56  0.001904  ( 0.041424  0.009806  0.009602)
 57:   1088.51   0.000262    1.32  0.000075  ( 0.003769  0.005677  0.005359)
 58:   1093.11   0.001725    8.72  0.000493  ( 0.003663 -0.011236  0.018787)
 59:   1136.60   0.000082    0.41  0.000023  (-0.001478 -0.003598 -0.002719)
 60:   1139.65   0.002129   10.76  0.000583  (-0.015603  0.001699 -0.018344)
 61:   1164.90   0.010367   52.39  0.002777  ( 0.039904 -0.024296  0.024385)
 62:   1183.89   0.000558    2.82  0.000147  ( 0.009111 -0.007999  0.000379)
 63:   1213.99   0.002342   11.83  0.000602  (-0.002007 -0.010472 -0.022096)
 64:   1215.85   0.003412   17.24  0.000876  (-0.006327 -0.013078 -0.025781)
 65:   1228.93   0.002833   14.32  0.000719  (-0.023833 -0.012277 -0.000805)
 66:   1246.81   0.007483   37.82  0.001873  ( 0.031644  0.029146  0.004698)
 67:   1280.51   0.005976   30.20  0.001456  ( 0.007843  0.023622 -0.028928)
 68:   1294.40   0.021436  108.33  0.005168  (-0.022468 -0.066274 -0.016457)
 69:   1321.53   0.000144    0.73  0.000034  (-0.005426 -0.002113  0.000301)
 70:   1329.50   0.000243    1.23  0.000057  ( 0.006367  0.004004  0.000651)
 71:   1334.19   0.001291    6.52  0.000302  ( 0.005603  0.016434  0.000628)
 72:   1355.38   0.000968    4.89  0.000223  ( 0.009906  0.010988  0.002012)
 73:   1371.86   0.000129    0.65  0.000029  ( 0.000818 -0.004453  0.002987)
 74:   1400.50   0.005371   27.14  0.001197  ( 0.032055 -0.004355 -0.012257)
 75:   1410.15   0.007569   38.25  0.001675  ( 0.029494  0.026317  0.010607)
 76:   1440.54   0.014398   72.76  0.003119  (-0.017930  0.037950 -0.036841)
 77:   1445.19   0.002646   13.37  0.000571  (-0.006015 -0.020528 -0.010671)
 78:   1450.45   0.010768   54.41  0.002317  (-0.004496 -0.045053  0.016329)
 79:   1464.32   0.024226  122.43  0.005163  (-0.054956 -0.043042 -0.017030)
 80:   1483.94   0.005559   28.09  0.001169  (-0.033756 -0.005308 -0.001207)
 81:   1491.46   0.001321    6.68  0.000276  ( 0.008882  0.004259 -0.013395)
 82:   1504.79   0.001384    6.99  0.000287  (-0.001713 -0.000559 -0.016845)
 83:   1508.16   0.002828   14.29  0.000585  ( 0.001439  0.023524  0.005455)
 84:   1510.63   0.000889    4.49  0.000184  ( 0.005244  0.006686 -0.010561)
 85:   1515.27   0.000758    3.83  0.000156  (-0.003108  0.011660  0.003245)
 86:   1525.34   0.004348   21.97  0.000890  (-0.004937  0.016633  0.024261)
 87:   1528.02   0.017690   89.40  0.003613  ( 0.058366  0.008353  0.011682)
 88:   1528.60   0.005510   27.85  0.001125  ( 0.027895 -0.015869 -0.009747)
 89:   1536.13   0.000861    4.35  0.000175  (-0.003937  0.000320 -0.012619)
 90:   1560.48   0.010019   50.63  0.002004  (-0.002668  0.025132 -0.036944)
 91:   1617.01   0.000056    0.28  0.000011  (-0.001138  0.003075 -0.000274)
 92:   1641.61   0.000697    3.52  0.000133  ( 0.010768  0.002251  0.003397)
 93:   1714.67   0.061992  313.28  0.011282  ( 0.078504  0.013474  0.070270)
 94:   1723.60   0.088251  445.99  0.015978  ( 0.125262  0.009498  0.014050)
 95:   3009.05   0.005087   25.71  0.000528  (-0.018466 -0.007658 -0.011310)
 96:   3016.85   0.017323   87.54  0.001792  ( 0.008162 -0.017220  0.037799)
 97:   3044.86   0.001522    7.69  0.000156  (-0.011586  0.003726 -0.002803)
 98:   3050.63   0.003952   19.97  0.000404  (-0.011114 -0.009180 -0.014016)
 99:   3053.92   0.011378   57.50  0.001163  ( 0.025601 -0.021238 -0.007498)
100:   3063.48   0.007442   37.61  0.000758  ( 0.019414 -0.018805 -0.005246)
101:   3068.18   0.002942   14.87  0.000299  (-0.007586  0.010578  0.011394)
102:   3071.65   0.006250   31.58  0.000635  ( 0.011818 -0.005494  0.021566)
103:   3098.92   0.001102    5.57  0.000111  ( 0.007294 -0.004796  0.005895)
104:   3104.51   0.002829   14.30  0.000284  ( 0.005015  0.005046 -0.015290)
105:   3118.74   0.004719   23.85  0.000472  (-0.000082  0.021457  0.003426)
106:   3151.78   0.000679    3.43  0.000067  ( 0.002771 -0.007312  0.002465)
107:   3154.87   0.002481   12.54  0.000245  ( 0.014224  0.005888  0.002901)
108:   3158.33   0.003159   15.96  0.000312  ( 0.008747  0.012789  0.008489)
109:   3169.46   0.000073    0.37  0.000007  (-0.002271  0.001330  0.000490)
110:   3171.42   0.000501    2.53  0.000049  ( 0.003438  0.006092  0.000625)
111:   3177.09   0.001278    6.46  0.000126  ( 0.003697 -0.010508  0.001215)
112:   3199.93   0.001510    7.63  0.000147  (-0.001946  0.010290  0.006135)
113:   3201.18   0.000276    1.39  0.000027  ( 0.005072  0.000989  0.000416)

* The epsilon (eps) is given for a Dirac delta lineshape.
** The dipole moment derivative (T) already includes vibrational overlap.

The first frequency considered to be a vibration is 6
The total number of vibrations considered is 108


--------------------------
THERMOCHEMISTRY AT 298.15K
--------------------------

Temperature         ... 298.15 K
Pressure            ... 1.00 atm
Total Mass          ... 327.22 AMU

Throughout the following assumptions are being made:
  (1) The electronic state is orbitally nondegenerate
  (2) There are no thermally accessible electronically excited states
  (3) Hindered rotations indicated by low frequency modes are not
      treated as such but are treated as vibrations and this may
      cause some error
  (4) All equations used are the standard statistical mechanics
      equations for an ideal gas
  (5) All vibrations are strictly harmonic

freq.      21.81  E(vib)   ...       0.56 
freq.      32.43  E(vib)   ...       0.55 
freq.      39.01  E(vib)   ...       0.54 
freq.      43.91  E(vib)   ...       0.53 
freq.      66.95  E(vib)   ...       0.50 
freq.      76.10  E(vib)   ...       0.49 
freq.     101.03  E(vib)   ...       0.46 
freq.     105.87  E(vib)   ...       0.45 
freq.     120.35  E(vib)   ...       0.44 
freq.     129.17  E(vib)   ...       0.43 
freq.     143.81  E(vib)   ...       0.41 
freq.     150.56  E(vib)   ...       0.40 
freq.     161.56  E(vib)   ...       0.39 
freq.     210.85  E(vib)   ...       0.34 
freq.     223.90  E(vib)   ...       0.33 
freq.     247.89  E(vib)   ...       0.31 
freq.     280.46  E(vib)   ...       0.28 
freq.     285.93  E(vib)   ...       0.27 
freq.     332.46  E(vib)   ...       0.24 
freq.     363.73  E(vib)   ...       0.22 
freq.     365.48  E(vib)   ...       0.22 
freq.     383.37  E(vib)   ...       0.20 
freq.     394.07  E(vib)   ...       0.20 
freq.     418.22  E(vib)   ...       0.18 
freq.     432.03  E(vib)   ...       0.18 
freq.     469.27  E(vib)   ...       0.16 
freq.     487.26  E(vib)   ...       0.15 
freq.     519.63  E(vib)   ...       0.13 
freq.     581.15  E(vib)   ...       0.11 
freq.     596.43  E(vib)   ...       0.10 
freq.     611.65  E(vib)   ...       0.10 
freq.     647.43  E(vib)   ...       0.09 
freq.     654.17  E(vib)   ...       0.08 
freq.     698.34  E(vib)   ...       0.07 
freq.     725.97  E(vib)   ...       0.06 
freq.     761.65  E(vib)   ...       0.06 
freq.     781.68  E(vib)   ...       0.05 
freq.     817.10  E(vib)   ...       0.05 
freq.     822.44  E(vib)   ...       0.05 
freq.     845.47  E(vib)   ...       0.04 
freq.     866.53  E(vib)   ...       0.04 
freq.     946.41  E(vib)   ...       0.03 
freq.     956.46  E(vib)   ...       0.03 
freq.     983.63  E(vib)   ...       0.02 
freq.     996.32  E(vib)   ...       0.02 
freq.    1006.18  E(vib)   ...       0.02 
freq.    1023.42  E(vib)   ...       0.02 
freq.    1026.79  E(vib)   ...       0.02 
freq.    1030.19  E(vib)   ...       0.02 
freq.    1059.96  E(vib)   ...       0.02 
freq.    1088.12  E(vib)   ...       0.02 
freq.    1088.51  E(vib)   ...       0.02 
freq.    1093.11  E(vib)   ...       0.02 
freq.    1136.60  E(vib)   ...       0.01 
freq.    1139.65  E(vib)   ...       0.01 
freq.    1164.90  E(vib)   ...       0.01 
freq.    1183.89  E(vib)   ...       0.01 
freq.    1213.99  E(vib)   ...       0.01 
freq.    1215.85  E(vib)   ...       0.01 
freq.    1228.93  E(vib)   ...       0.01 
freq.    1246.81  E(vib)   ...       0.01 
freq.    1280.51  E(vib)   ...       0.01 
freq.    1294.40  E(vib)   ...       0.01 
freq.    1321.53  E(vib)   ...       0.01 
freq.    1329.50  E(vib)   ...       0.01 
freq.    1334.19  E(vib)   ...       0.01 
freq.    1355.38  E(vib)   ...       0.01 
freq.    1371.86  E(vib)   ...       0.01 
freq.    1400.50  E(vib)   ...       0.00 
freq.    1410.15  E(vib)   ...       0.00 
freq.    1440.54  E(vib)   ...       0.00 
freq.    1445.19  E(vib)   ...       0.00 
freq.    1450.45  E(vib)   ...       0.00 
freq.    1464.32  E(vib)   ...       0.00 
freq.    1483.94  E(vib)   ...       0.00 
freq.    1491.46  E(vib)   ...       0.00 
freq.    1504.79  E(vib)   ...       0.00 
freq.    1508.16  E(vib)   ...       0.00 
freq.    1510.63  E(vib)   ...       0.00 
freq.    1515.27  E(vib)   ...       0.00 
freq.    1525.34  E(vib)   ...       0.00 
freq.    1528.02  E(vib)   ...       0.00 
freq.    1528.60  E(vib)   ...       0.00 
freq.    1536.13  E(vib)   ...       0.00 
freq.    1560.48  E(vib)   ...       0.00 
freq.    1617.01  E(vib)   ...       0.00 
freq.    1641.61  E(vib)   ...       0.00 
freq.    1714.67  E(vib)   ...       0.00 
freq.    1723.60  E(vib)   ...       0.00 
freq.    3009.05  E(vib)   ...       0.00 
freq.    3016.85  E(vib)   ...       0.00 
freq.    3044.86  E(vib)   ...       0.00 
freq.    3050.63  E(vib)   ...       0.00 
freq.    3053.92  E(vib)   ...       0.00 
freq.    3063.48  E(vib)   ...       0.00 
freq.    3068.18  E(vib)   ...       0.00 
freq.    3071.65  E(vib)   ...       0.00 
freq.    3098.92  E(vib)   ...       0.00 
freq.    3104.51  E(vib)   ...       0.00 
freq.    3118.74  E(vib)   ...       0.00 
freq.    3151.78  E(vib)   ...       0.00 
freq.    3154.87  E(vib)   ...       0.00 
freq.    3158.33  E(vib)   ...       0.00 
freq.    3169.46  E(vib)   ...       0.00 
freq.    3171.42  E(vib)   ...       0.00 
freq.    3177.09  E(vib)   ...       0.00 
freq.    3199.93  E(vib)   ...       0.00 
freq.    3201.18  E(vib)   ...       0.00 

------------
INNER ENERGY
------------

The inner energy is: U= E(el) + E(ZPE) + E(vib) + E(rot) + E(trans)
    E(el)   - is the total energy from the electronic structure calculation
              = E(kin-el) + E(nuc-el) + E(el-el) + E(nuc-nuc)
    E(ZPE)  - the the zero temperature vibrational energy from the frequency calculation
    E(vib)  - the the finite temperature correction to E(ZPE) due to population
              of excited vibrational states
    E(rot)  - is the rotational thermal energy
    E(trans)- is the translational thermal energy

Summary of contributions to the inner energy U:
Electronic energy                ...  -3378.68544760 Eh
Zero point energy                ...      0.31488825 Eh     197.59 kcal/mol
Thermal vibrational correction   ...      0.01736087 Eh      10.89 kcal/mol
Thermal rotational correction    ...      0.00141627 Eh       0.89 kcal/mol
Thermal translational correction ...      0.00141627 Eh       0.89 kcal/mol
-----------------------------------------------------------------------
Total thermal energy                  -3378.35036593 Eh


Summary of corrections to the electronic energy:
(perhaps to be used in another calculation)
Total thermal correction                  0.02019341 Eh      12.67 kcal/mol
Non-thermal (ZPE) correction              0.31488825 Eh     197.59 kcal/mol
-----------------------------------------------------------------------
Total correction                          0.33508166 Eh     210.27 kcal/mol


--------
ENTHALPY
--------

The enthalpy is H = U + kB*T
                kB is Boltzmann's constant
Total free energy                 ...  -3378.35036593 Eh 
Thermal Enthalpy correction       ...      0.00094421 Eh       0.59 kcal/mol
-----------------------------------------------------------------------
Total Enthalpy                    ...  -3378.34942172 Eh


Note: Only C1 symmetry has been detected, increase convergence thresholds 
      if your molecule has a higher symmetry. Symmetry factor of 1.0 is   
      used for the rotational entropy correction. 
 

Note: Rotational entropy computed according to Herzberg 
Infrared and Raman Spectra, Chapter V,1, Van Nostrand Reinhold, 1945 
Point Group:  C1, Symmetry Number:   1  
Rotational constants in cm-1:     0.019766     0.003648     0.003279 

Vibrational entropy computed according to the QRRHO of S. Grimme
Chem.Eur.J. 2012 18 9955


-------
ENTROPY
-------

The entropy contributions are T*S = T*(S(el)+S(vib)+S(rot)+S(trans))
     S(el)   - electronic entropy
     S(vib)  - vibrational entropy
     S(rot)  - rotational entropy
     S(trans)- translational entropy
The entropies will be listed as multiplied by the temperature to get
units of energy

Electronic entropy                ...      0.00000000 Eh      0.00 kcal/mol
Vibrational entropy               ...      0.03149904 Eh     19.77 kcal/mol
Rotational entropy                ...      0.01671375 Eh     10.49 kcal/mol
Translational entropy             ...      0.02055017 Eh     12.90 kcal/mol
-----------------------------------------------------------------------
Final entropy term                ...      0.06876296 Eh     43.15 kcal/mol

In case the symmetry of your molecule has not been determined correctly
or in case you have a reason to use a different symmetry number we print 
out the resulting rotational entropy values for sn=1,12 :
 --------------------------------------------------------
|  sn= 1 | S(rot)=       0.01671375 Eh     10.49 kcal/mol|
|  sn= 2 | S(rot)=       0.01605929 Eh     10.08 kcal/mol|
|  sn= 3 | S(rot)=       0.01567646 Eh      9.84 kcal/mol|
|  sn= 4 | S(rot)=       0.01540483 Eh      9.67 kcal/mol|
|  sn= 5 | S(rot)=       0.01519415 Eh      9.53 kcal/mol|
|  sn= 6 | S(rot)=       0.01502200 Eh      9.43 kcal/mol|
|  sn= 7 | S(rot)=       0.01487645 Eh      9.34 kcal/mol|
|  sn= 8 | S(rot)=       0.01475038 Eh      9.26 kcal/mol|
|  sn= 9 | S(rot)=       0.01463917 Eh      9.19 kcal/mol|
|  sn=10 | S(rot)=       0.01453969 Eh      9.12 kcal/mol|
|  sn=11 | S(rot)=       0.01444970 Eh      9.07 kcal/mol|
|  sn=12 | S(rot)=       0.01436754 Eh      9.02 kcal/mol|
 --------------------------------------------------------


-------------------
GIBBS FREE ENERGY
-------------------

The Gibbs free energy is G = H - T*S

Total enthalpy                    ...  -3378.34942172 Eh 
Total entropy correction          ...     -0.06876296 Eh    -43.15 kcal/mol
-----------------------------------------------------------------------
Final Gibbs free energy         ...  -3378.41818468 Eh

For completeness - the Gibbs free energy minus the electronic energy
G-E(el)                           ...      0.26726292 Eh    167.71 kcal/mol


Timings for individual modules:

Sum of individual times         ...     3823.576 sec (=  63.726 min)
GTO integral calculation        ...       32.697 sec (=   0.545 min)   0.9 %
SCF iterations                  ...     1657.091 sec (=  27.618 min)  43.3 %
SCF Gradient evaluation         ...      527.117 sec (=   8.785 min)  13.8 %
Geometry relaxation             ...        1.167 sec (=   0.019 min)   0.0 %
Analytical frequency calculation...     1605.502 sec (=  26.758 min)  42.0 %
                             ****ORCA TERMINATED NORMALLY****
TOTAL RUN TIME: 0 days 1 hours 3 minutes 49 seconds 906 msec
