
                                 *****************
                                 * O   R   C   A *
                                 *****************

                                            #,                                       
                                            ###                                      
                                            ####                                     
                                            #####                                    
                                            ######                                   
                                           ########,                                 
                                     ,,################,,,,,                         
                               ,,#################################,,                 
                          ,,##########################################,,             
                       ,#########################################, ''#####,          
                    ,#############################################,,   '####,        
                  ,##################################################,,,,####,       
                ,###########''''           ''''###############################       
              ,#####''   ,,,,##########,,,,          '''####'''          '####       
            ,##' ,,,,###########################,,,                        '##       
           ' ,,###''''                  '''############,,,                           
         ,,##''                                '''############,,,,        ,,,,,,###''
      ,#''                                            '''#######################'''  
     '                                                          ''''####''''         
             ,#######,   #######,   ,#######,      ##                                
            ,#'     '#,  ##    ##  ,#'     '#,    #''#        ######   ,####,        
            ##       ##  ##   ,#'  ##            #'  '#       #        #'  '#        
            ##       ##  #######   ##           ,######,      #####,   #    #        
            '#,     ,#'  ##    ##  '#,     ,#' ,#      #,         ##   #,  ,#        
             '#######'   ##     ##  '#######'  #'      '#     #####' # '####'        



                  #######################################################
                  #                        -***-                        #
                  #          Department of theory and spectroscopy      #
                  #    Directorship and core code : Frank Neese         #
                  #        Max Planck Institute fuer Kohlenforschung    #
                  #                Kaiser Wilhelm Platz 1               #
                  #                 D-45470 Muelheim/Ruhr               #
                  #                      Germany                        #
                  #                                                     #
                  #                  All rights reserved                #
                  #                        -***-                        #
                  #######################################################


                         Program Version 5.0.4 -  RELEASE  -


 With contributions from (in alphabetic order):
   Daniel Aravena         : Magnetic Suceptibility
   Michael Atanasov       : Ab Initio Ligand Field Theory (pilot matlab implementation)
   Alexander A. Auer      : GIAO ZORA, VPT2 properties, NMR spectrum
   Ute Becker             : Parallelization
   Giovanni Bistoni       : ED, misc. LED, open-shell LED, HFLD
   Martin Brehm           : Molecular dynamics
   Dmytro Bykov           : SCF Hessian
   Vijay G. Chilkuri      : MRCI spin determinant printing, contributions to CSF-ICE
   Dipayan Datta          : RHF DLPNO-CCSD density
   Achintya Kumar Dutta   : EOM-CC, STEOM-CC
   Dmitry Ganyushin       : Spin-Orbit,Spin-Spin,Magnetic field MRCI
   Miquel Garcia          : C-PCM and meta-GGA Hessian, CC/C-PCM, Gaussian charge scheme
   Yang Guo               : DLPNO-NEVPT2, F12-NEVPT2, CIM, IAO-localization
   Andreas Hansen         : Spin unrestricted coupled pair/coupled cluster methods
   Benjamin Helmich-Paris : MC-RPA, TRAH-SCF, COSX integrals
   Lee Huntington         : MR-EOM, pCC
   Robert Izsak           : Overlap fitted RIJCOSX, COSX-SCS-MP3, EOM
   Marcus Kettner         : VPT2
   Christian Kollmar      : KDIIS, OOCD, Brueckner-CCSD(T), CCSD density, CASPT2, CASPT2-K
   Simone Kossmann        : Meta GGA functionals, TD-DFT gradient, OOMP2, MP2 Hessian
   Martin Krupicka        : Initial AUTO-CI
   Lucas Lang             : DCDCAS
   Marvin Lechner         : AUTO-CI (C++ implementation), FIC-MRCC
   Dagmar Lenk            : GEPOL surface, SMD
   Dimitrios Liakos       : Extrapolation schemes; Compound Job, initial MDCI parallelization
   Dimitrios Manganas     : Further ROCIS development; embedding schemes
   Dimitrios Pantazis     : SARC Basis sets
   Anastasios Papadopoulos: AUTO-CI, single reference methods and gradients
   Taras Petrenko         : DFT Hessian,TD-DFT gradient, ASA, ECA, R-Raman, ABS, FL, XAS/XES, NRVS
   Peter Pinski           : DLPNO-MP2, DLPNO-MP2 Gradient
   Christoph Reimann      : Effective Core Potentials
   Marius Retegan         : Local ZFS, SOC
   Christoph Riplinger    : Optimizer, TS searches, QM/MM, DLPNO-CCSD(T), (RO)-DLPNO pert. Triples
   Tobias Risthaus        : Range-separated hybrids, TD-DFT gradient, RPA, STAB
   Michael Roemelt        : Original ROCIS implementation
   Masaaki Saitow         : Open-shell DLPNO-CCSD energy and density
   Barbara Sandhoefer     : DKH picture change effects
   Avijit Sen             : IP-ROCIS
   Kantharuban Sivalingam : CASSCF convergence, NEVPT2, FIC-MRCI
   Bernardo de Souza      : ESD, SOC TD-DFT
   Georgi Stoychev        : AutoAux, RI-MP2 NMR, DLPNO-MP2 response
   Willem Van den Heuvel  : Paramagnetic NMR
   Boris Wezisla          : Elementary symmetry handling
   Frank Wennmohs         : Technical directorship


 We gratefully acknowledge several colleagues who have allowed us to
 interface, adapt or use parts of their codes:
   Stefan Grimme, W. Hujo, H. Kruse, P. Pracht,  : VdW corrections, initial TS optimization,
                  C. Bannwarth, S. Ehlert          DFT functionals, gCP, sTDA/sTD-DF
   Ed Valeev, F. Pavosevic, A. Kumar             : LibInt (2-el integral package), F12 methods
   Garnet Chan, S. Sharma, J. Yang, R. Olivares  : DMRG
   Ulf Ekstrom                                   : XCFun DFT Library
   Mihaly Kallay                                 : mrcc  (arbitrary order and MRCC methods)
   Jiri Pittner, Ondrej Demel                    : Mk-CCSD
   Frank Weinhold                                : gennbo (NPA and NBO analysis)
   Christopher J. Cramer and Donald G. Truhlar   : smd solvation model
   Lars Goerigk                                  : TD-DFT with DH, B97 family of functionals
   V. Asgeirsson, H. Jonsson                     : NEB implementation
   FAccTs GmbH                                   : IRC, NEB, NEB-TS, DLPNO-Multilevel, CI-OPT
                                                   MM, QMMM, 2- and 3-layer-ONIOM, Crystal-QMMM,
                                                   LR-CPCM, SF, NACMEs, symmetry and pop. for TD-DFT,
                                                   nearIR, NL-DFT gradient (VV10), updates on ESD,
                                                   ML-optimized integration grids
   S Lehtola, MJT Oliveira, MAL Marques          : LibXC Library
   Liviu Ungur et al                             : ANISO software


 Your calculation uses the libint2 library for the computation of 2-el integrals
 For citations please refer to: http://libint.valeyev.net

 Your ORCA version has been built with support for libXC version: 5.1.0
 For citations please refer to: https://tddft.org/programs/libxc/

 This ORCA versions uses:
   CBLAS   interface :  Fast vector & matrix operations
   LAPACKE interface :  Fast linear algebra routines
   SCALAPACK package :  Parallel linear algebra routines
   Shared memory     :  Shared parallel matrices
   BLAS/LAPACK       :  OpenBLAS 0.3.15  USE64BITINT DYNAMIC_ARCH NO_AFFINITY SkylakeX SINGLE_THREADED
        Core in use  :  SkylakeX
   Copyright (c) 2011-2014, The OpenBLAS Project




***************************************
The coordinates will be read from file: /users/fjb15167/WWenergy/structures/Nt.xyz
***************************************


Your calculation utilizes the atom-pairwise dispersion correction
based on tight binding partial charges (D4)
Cite in your paper:
E.Caldeweyher, C.Bannwarth, S.Grimme, J.Chem.Phys., (2017), 147, 034112.
E.Caldeweyher, S.Ehlert, A.Hansen, H.Neugebauer, S.Grimme, J.Chem.Phys., (2018), in progress.
   

================================================================================

----- Orbital basis set information -----
Your calculation utilizes the basis: 6-31G(d)
   H-He, Li-Ne : W. J. Hehre, R. Ditchfield and J.A. Pople, J. Chem. Phys. 56, 2257 (1972).
                 Note: He and Ne are unpublished basis sets taken from the Gaussian program.
                 Note: Li and B from J. D. Dill and J. A. Pople, J. Chem. Phys. 62, 2921 (1975).
   Na - Ar     : M. M. Francl, W. J. Pietro, W. J. Hehre, J. S. Binkley, M. S. Gordon, 
                 D. J. DeFrees and J. A. Pople, J. Chem. Phys. 77, 3654 (1982).
   K - Zn      : V. A. Rassolov, J. A. Pople, M. A. Ratner, and T. L. Windus, J. Chem. Phys. 109, 1223 (1998).

----- AuxJ basis set information -----
Your calculation utilizes the AutoAux generation procedure.
  G. L. Stoychev, A. A. Auer, F. Neese, J. Chem. Theory Comput. 13, 554 (2017)

----- AuxC basis set information -----
Your calculation utilizes the AutoAux generation procedure.
  G. L. Stoychev, A. A. Auer, F. Neese, J. Chem. Theory Comput. 13, 554 (2017)

----- AuxJK basis set information -----
Your calculation utilizes the AutoAux generation procedure.
  G. L. Stoychev, A. A. Auer, F. Neese, J. Chem. Theory Comput. 13, 554 (2017)

================================================================================
                                        WARNINGS
                       Please study these warnings very carefully!
================================================================================


WARNING: Geometry Optimization
  ===> : Switching off AutoStart
         For restart on a previous wavefunction, please use MOREAD

INFO   : the flag for use of the SHARK integral package has been found!

================================================================================
                                       INPUT FILE
================================================================================
NAME = Nt_water.inp
|  1> ! OPT FREQ B3LYP 6-31G(d) D4 AUTOAUX CPCM(water)
|  2> 
|  3> %PAL NPROCS 4 END
|  4> 
|  5> %maxcore 3375
|  6> 
|  7> *xyzfile 0 1 /users/fjb15167/WWenergy/structures/Nt.xyz
|  8> 
|  9>                          ****END OF INPUT****
================================================================================

                       *****************************
                       * Geometry Optimization Run *
                       *****************************

Geometry optimization settings:
Update method            Update   .... BFGS
Choice of coordinates    CoordSys .... Z-matrix Internals
Initial Hessian          InHess   .... Almoef's Model

Convergence Tolerances:
Energy Change            TolE     ....  5.0000e-06 Eh
Max. Gradient            TolMAXG  ....  3.0000e-04 Eh/bohr
RMS Gradient             TolRMSG  ....  1.0000e-04 Eh/bohr
Max. Displacement        TolMAXD  ....  4.0000e-03 bohr
RMS Displacement         TolRMSD  ....  2.0000e-03 bohr
Strict Convergence                ....  False
------------------------------------------------------------------------------
                        ORCA OPTIMIZATION COORDINATE SETUP
------------------------------------------------------------------------------

The optimization will be done in new redundant internal coordinates
Making redundant internal coordinates   ...  (new redundants) done
Evaluating the initial hessian          ...  (Almloef) done
Evaluating the coordinates              ...  done
Calculating the B-matrix                .... done
Calculating the G-matrix                .... done
Diagonalizing the G-matrix              .... done
Small eigenvalue found = 7.750e-03
Small eigenvalue found = 1.223e-02
Small eigenvalue found = 1.751e-02
Small eigenvalue found = 2.373e-02
Small eigenvalue found = 2.757e-02
The first mode is                       ....   52
The number of degrees of freedom        ....   81

    -----------------------------------------------------------------
                    Redundant Internal Coordinates


    -----------------------------------------------------------------
         Definition                    Initial Value    Approx d2E/dq
    -----------------------------------------------------------------
      1. B(H   1,C   0)                  1.0883         0.362413   
      2. B(H   2,C   0)                  1.0914         0.358200   
      3. B(H   3,C   0)                  1.0937         0.355254   
      4. B(C   4,C   0)                  1.5110         0.400620   
      5. B(O   5,C   4)                  1.2363         0.984146   
      6. B(N   6,C   4)                  1.3827         0.574861   
      7. B(C   7,N   6)                  1.4485         0.451388   
      8. B(H   8,C   7)                  1.0960         0.352268   
      9. B(H   9,C   7)                  1.0901         0.359939   
     10. B(C  10,N   6)                  1.4499         0.449096   
     11. B(H  11,C  10)                  1.0979         0.349844   
     12. B(C  12,C  10)                  1.5236         0.382456   
     13. B(H  13,C  12)                  1.0904         0.359566   
     14. B(H  14,C  12)                  1.0890         0.361425   
     15. B(C  15,C   7)                  1.5327         0.369950   
     16. B(N  16,C  15)                  1.3669         0.609199   
     17. B(O  17,C  15)                  1.2364         0.983959   
     18. B(C  18,N  16)                  1.4552         0.440454   
     19. B(H  19,C  18)                  1.0934         0.355600   
     20. B(H  20,C  18)                  1.0900         0.360084   
     21. B(H  21,C  18)                  1.0970         0.350908   
     22. B(C  22,N  16)                  1.4563         0.438652   
     23. B(H  23,C  22)                  1.0962         0.352019   
     24. B(H  24,C  22)                  1.0884         0.362180   
     25. B(H  25,C  22)                  1.0936         0.355381   
     26. B(O  26,C  10)                  1.4329         0.477938   
     27. B(H  27,O  26)                  0.9735         0.494830   
     28. B(H  28,C  12)                  1.0964         0.351757   
     29. A(H   3,C   0,C   4)          109.6315         0.327339   
     30. A(H   1,C   0,C   4)          112.5007         0.328418   
     31. A(H   2,C   0,H   3)          107.6690         0.289981   
     32. A(H   2,C   0,C   4)          106.7008         0.327785   
     33. A(H   1,C   0,H   3)          109.9803         0.290513   
     34. A(H   1,C   0,H   2)          110.1987         0.290890   
     35. A(C   0,C   4,O   5)          120.7592         0.433196   
     36. A(O   5,C   4,N   6)          120.0810         0.459436   
     37. A(C   0,C   4,N   6)          119.1328         0.393759   
     38. A(C   4,N   6,C  10)          126.5402         0.399167   
     39. A(C   7,N   6,C  10)          118.2126         0.382648   
     40. A(C   4,N   6,C   7)          114.4465         0.399525   
     41. A(H   8,C   7,H   9)          108.3830         0.289817   
     42. A(N   6,C   7,H   9)          107.7190         0.332570   
     43. A(H   9,C   7,C  15)          110.6830         0.323776   
     44. A(N   6,C   7,C  15)          111.1170         0.372374   
     45. A(N   6,C   7,H   8)          108.9885         0.331385   
     46. A(H   8,C   7,C  15)          109.8737         0.322634   
     47. A(H  11,C  10,O  26)          109.2597         0.334157   
     48. A(C  12,C  10,O  26)          112.3166         0.378231   
     49. A(H  11,C  10,C  12)          107.4664         0.324031   
     50. A(N   6,C  10,C  12)          115.3715         0.374185   
     51. A(N   6,C  10,O  26)          107.4327         0.386472   
     52. A(N   6,C  10,H  11)          104.6130         0.330728   
     53. A(H  14,C  12,H  28)          108.2113         0.289938   
     54. A(H  13,C  12,H  28)          108.9474         0.289704   
     55. A(C  10,C  12,H  28)          109.3111         0.324322   
     56. A(H  13,C  12,H  14)          109.9105         0.290939   
     57. A(C  10,C  12,H  14)          111.6493         0.325770   
     58. A(C  10,C  12,H  13)          108.7709         0.325494   
     59. A(N  16,C  15,O  17)          122.8250         0.464317   
     60. A(C   7,C  15,O  17)          120.6063         0.427032   
     61. A(C   7,C  15,N  16)          116.5140         0.392271   
     62. A(C  15,N  16,C  18)          123.2249         0.401888   
     63. A(C  18,N  16,C  22)          116.0807         0.379472   
     64. A(C  15,N  16,C  22)          118.3989         0.401598   
     65. A(H  19,C  18,H  20)          107.5533         0.290264   
     66. A(N  16,C  18,H  20)          111.1381         0.331244   
     67. A(N  16,C  18,H  19)          108.1013         0.330557   
     68. A(H  20,C  18,H  21)          109.2173         0.289660   
     69. A(H  19,C  18,H  21)          108.5976         0.289091   
     70. A(N  16,C  18,H  21)          112.0914         0.329832   
     71. A(H  24,C  22,H  25)          109.9345         0.290500   
     72. A(H  23,C  22,H  25)          109.0001         0.289207   
     73. A(N  16,C  22,H  25)          109.6033         0.330300   
     74. A(H  23,C  22,H  24)          109.2267         0.290067   
     75. A(N  16,C  22,H  24)          108.1727         0.331337   
     76. A(N  16,C  22,H  23)          110.8923         0.329781   
     77. A(C  10,O  26,H  27)          106.9960         0.351081   
     78. D(O   5,C   4,C   0,H   2)     31.7783         0.011909   
     79. D(O   5,C   4,C   0,H   1)    152.7400         0.011909   
     80. D(N   6,C   4,C   0,H   1)    -25.3705         0.011909   
     81. D(N   6,C   4,C   0,H   2)   -146.3322         0.011909   
     82. D(O   5,C   4,C   0,H   3)    -84.5468         0.011909   
     83. D(N   6,C   4,C   0,H   3)     97.3427         0.011909   
     84. D(C   7,N   6,C   4,C   0)    176.8767         0.026475   
     85. D(C  10,N   6,C   4,C   0)    -13.6324         0.026475   
     86. D(C   7,N   6,C   4,O   5)     -1.2469         0.026475   
     87. D(C  10,N   6,C   4,O   5)    168.2440         0.026475   
     88. D(C  15,C   7,N   6,C   4)     83.4428         0.017383   
     89. D(H   9,C   7,N   6,C   4)    -37.9482         0.017383   
     90. D(H   8,C   7,N   6,C  10)     34.2327         0.017383   
     91. D(H   9,C   7,N   6,C  10)    151.6243         0.017383   
     92. D(H   8,C   7,N   6,C   4)   -155.3398         0.017383   
     93. D(C  15,C   7,N   6,C  10)    -86.9847         0.017383   
     94. D(O  26,C  10,N   6,C   7)   -117.7961         0.017205   
     95. D(O  26,C  10,N   6,C   4)     73.0647         0.017205   
     96. D(C  12,C  10,N   6,C   7)    116.0893         0.017205   
     97. D(C  12,C  10,N   6,C   4)    -53.0499         0.017205   
     98. D(H  11,C  10,N   6,C   7)     -1.7461         0.017205   
     99. D(H  11,C  10,N   6,C   4)   -170.8852         0.017205   
    100. D(H  28,C  12,C  10,H  11)    -54.7800         0.011650   
    101. D(H  28,C  12,C  10,N   6)   -171.0073         0.011650   
    102. D(H  14,C  12,C  10,O  26)    -54.2792         0.011650   
    103. D(H  14,C  12,C  10,H  11)   -174.4744         0.011650   
    104. D(H  14,C  12,C  10,N   6)     69.2984         0.011650   
    105. D(H  13,C  12,C  10,O  26)   -175.7376         0.011650   
    106. D(H  13,C  12,C  10,H  11)     64.0673         0.011650   
    107. D(H  28,C  12,C  10,O  26)     65.4152         0.011650   
    108. D(H  13,C  12,C  10,N   6)    -52.1600         0.011650   
    109. D(O  17,C  15,C   7,H   9)    135.4131         0.010249   
    110. D(O  17,C  15,C   7,H   8)   -104.9232         0.010249   
    111. D(O  17,C  15,C   7,N   6)     15.7736         0.010249   
    112. D(N  16,C  15,C   7,H   9)    -47.2029         0.010249   
    113. D(N  16,C  15,C   7,H   8)     72.4607         0.010249   
    114. D(N  16,C  15,C   7,N   6)   -166.8424         0.010249   
    115. D(C  22,N  16,C  15,O  17)     -8.8929         0.029971   
    116. D(C  22,N  16,C  15,C   7)    173.7865         0.029971   
    117. D(C  18,N  16,C  15,O  17)   -170.9924         0.029971   
    118. D(C  18,N  16,C  15,C   7)     11.6871         0.029971   
    119. D(H  21,C  18,N  16,C  15)     80.9272         0.016543   
    120. D(H  20,C  18,N  16,C  22)    155.9137         0.016543   
    121. D(H  20,C  18,N  16,C  15)    -41.6057         0.016543   
    122. D(H  19,C  18,N  16,C  22)     38.1020         0.016543   
    123. D(H  21,C  18,N  16,C  22)    -81.5534         0.016543   
    124. D(H  19,C  18,N  16,C  15)   -159.4174         0.016543   
    125. D(H  25,C  22,N  16,C  18)    -58.8018         0.016407   
    126. D(H  25,C  22,N  16,C  15)    137.8329         0.016407   
    127. D(H  24,C  22,N  16,C  18)   -178.6584         0.016407   
    128. D(H  24,C  22,N  16,C  15)     17.9763         0.016407   
    129. D(H  23,C  22,N  16,C  18)     61.5872         0.016407   
    130. D(H  23,C  22,N  16,C  15)   -101.7781         0.016407   
    131. D(H  27,O  26,C  10,C  12)    -41.9179         0.018016   
    132. D(H  27,O  26,C  10,H  11)     77.2324         0.018016   
    133. D(H  27,O  26,C  10,N   6)   -169.8238         0.018016   
    -----------------------------------------------------------------

Number of atoms                         .... 29
Number of degrees of freedom            .... 133

         *************************************************************
         *                GEOMETRY OPTIMIZATION CYCLE   1            *
         *************************************************************
---------------------------------
CARTESIAN COORDINATES (ANGSTROEM)
---------------------------------
  C      2.670000    1.500000   -0.811000
  H      3.410000    0.952000   -0.231000
  H      2.876000    2.571000   -0.769000
  H      2.716000    1.194000   -1.860000
  C      1.266000    1.307000   -0.287000
  O      0.403000    2.176000   -0.456000
  N      0.964000    0.159000    0.422000
  C     -0.389000    0.111000    0.937000
  H     -0.416000   -0.555000    1.807000
  H     -0.655000    1.116000    1.265000
  C      1.772000   -1.042000    0.505000
  H      1.129000   -1.774000    1.011000
  C      2.186000   -1.644000   -0.832000
  H      1.296000   -1.776000   -1.448000
  H      2.906000   -1.013000   -1.351000
  C     -1.369000   -0.387000   -0.131000
  N     -2.699000   -0.216000    0.134000
  O     -0.956000   -0.956000   -1.148000
  C     -3.195000    0.612000    1.223000
  H     -4.218000    0.299000    1.449000
  H     -2.601000    0.471000    2.126000
  H     -3.205000    1.677000    0.960000
  C     -3.661000   -0.547000   -0.908000
  H     -4.024000    0.359000   -1.407000
  H     -3.165000   -1.184000   -1.638000
  H     -4.511000   -1.076000   -0.468000
  O      2.898000   -0.745000    1.340000
  H      3.516000   -1.493000    1.261000
  H      2.649000   -2.623000   -0.661000

----------------------------
CARTESIAN COORDINATES (A.U.)
----------------------------
  NO LB      ZA    FRAG     MASS         X           Y           Z
   0 C     6.0000    0    12.011    5.045569    2.834589   -1.532568
   1 H     1.0000    0     1.008    6.443966    1.799019   -0.436527
   2 H     1.0000    0     1.008    5.434852    4.858486   -1.453199
   3 H     1.0000    0     1.008    5.132496    2.256333   -3.514891
   4 C     6.0000    0    12.011    2.392393    2.469872   -0.542351
   5 O     8.0000    0    15.999    0.761560    4.112044   -0.861715
   6 N     7.0000    0    14.007    1.821696    0.300466    0.797464
   7 C     6.0000    0    12.011   -0.735103    0.209760    1.770673
   8 H     1.0000    0     1.008   -0.786126   -1.048798    3.414735
   9 H     1.0000    0     1.008   -1.237771    2.108934    2.390504
  10 C     6.0000    0    12.011    3.348595   -1.969095    0.954312
  11 H     1.0000    0     1.008    2.133501   -3.352374    1.910513
  12 C     6.0000    0    12.011    4.130941   -3.106710   -1.572252
  13 H     1.0000    0     1.008    2.449085   -3.356154   -2.736323
  14 H     1.0000    0     1.008    5.491544   -1.914293   -2.553020
  15 C     6.0000    0    12.011   -2.587035   -0.731324   -0.247554
  16 N     7.0000    0    14.007   -5.100371   -0.408181    0.253223
  17 O     8.0000    0    15.999   -1.806578   -1.806578   -2.169406
  18 C     6.0000    0    12.011   -6.037675    1.156512    2.311135
  19 H     1.0000    0     1.008   -7.970865    0.565028    2.738213
  20 H     1.0000    0     1.008   -4.915178    0.890061    4.017558
  21 H     1.0000    0     1.008   -6.056572    3.169071    1.814137
  22 C     6.0000    0    12.011   -6.918287   -1.033680   -1.715871
  23 H     1.0000    0     1.008   -7.604258    0.678412   -2.658845
  24 H     1.0000    0     1.008   -5.980983   -2.237436   -3.095371
  25 H     1.0000    0     1.008   -8.524555   -2.033345   -0.884392
  26 O     8.0000    0    15.999    5.476426   -1.407846    2.532233
  27 H     1.0000    0     1.008    6.644277   -2.821361    2.382945
  28 H     1.0000    0     1.008    5.005885   -4.956752   -1.249109

--------------------------------
INTERNAL COORDINATES (ANGSTROEM)
--------------------------------
 C      0   0   0     0.000000000000     0.00000000     0.00000000
 H      1   0   0     1.088257322512     0.00000000     0.00000000
 H      1   2   0     1.091439874661   110.19866586     0.00000000
 H      1   2   3     1.093687798231   109.98027420   118.54715066
 C      1   2   3     1.510973527233   112.50071339   241.06407238
 O      5   1   2     1.236321560113   120.75922201   152.74000593
 N      5   1   2     1.382674582105   119.13275954   334.62950036
 C      7   5   1     1.448495081110   114.44651803   176.87668186
 H      8   7   5     1.095985857573   108.98853953   204.66018424
 H      8   7   5     1.090121552855   107.71900483   322.05177906
 C      7   5   1     1.449880684746   126.54018410   346.36763133
 H     11   7   5     1.097865656627   104.61296306   189.11476060
 C     11   7   5     1.523603951163   115.37147597   306.95014147
 H     13  11   7     1.090403595005   108.77093293   307.83999981
 H     13  11   7     1.089000459137   111.64928425    69.29837385
 C      8   7   5     1.532653907443   111.11704406    83.44276663
 N     16   8   7     1.366881852978   116.51396233   193.15762100
 O     16   8   7     1.236373325497   120.60628549    15.77364699
 C     17  16   8     1.455170436753   123.22494540    11.68706681
 H     19  17  16     1.093423065423   108.10134400   200.58263000
 H     19  17  16     1.090011926540   111.13814004   318.39429378
 H     19  17  16     1.097038741340   112.09135156    80.92720111
 C     17  16   8     1.456286029597   118.39886351   173.78651300
 H     23  17  16     1.096177905269   110.89230879   258.22189524
 H     23  17  16     1.088432358946   108.17270654    17.97630131
 H     23  17  16     1.093590874139   109.60325248   137.83287427
 O     11   7   5     1.432937542254   107.43272695    73.06467797
 H     27  11   7     0.973482922295   106.99596044   190.17617553
 H     13  11   7     1.096380864481   109.31109053   188.99270113

---------------------------
INTERNAL COORDINATES (A.U.)
---------------------------
 C      0   0   0     0.000000000000     0.00000000     0.00000000
 H      1   0   0     2.056508302781     0.00000000     0.00000000
 H      1   2   0     2.062522454751   110.19866586     0.00000000
 H      1   2   3     2.066770414668   109.98027420   118.54715066
 C      1   2   3     2.855326162076   112.50071339   241.06407238
 O      5   1   2     2.336309162076   120.75922201   152.74000593
 N      5   1   2     2.612876292513   119.13275954   334.62950036
 C      7   5   1     2.737259009630   114.44651803   176.87668186
 H      8   7   5     2.071113117464   108.98853953   204.66018424
 H      8   7   5     2.060031187582   107.71900483   322.05177906
 C      7   5   1     2.739877421032   126.54018410   346.36763133
 H     11   7   5     2.074665422862   104.61296306   189.11476060
 C     11   7   5     2.879194204259   115.37147597   306.95014147
 H     13  11   7     2.060564170003   108.77093293   307.83999981
 H     13  11   7     2.057912627483   111.64928425    69.29837385
 C      8   7   5     2.896296143151   111.11704406    83.44276663
 N     16   8   7     2.583032359555   116.51396233   193.15762100
 O     16   8   7     2.336406984474   120.60628549    15.77364699
 C     17  16   8     2.749873603642   123.22494540    11.68706681
 H     19  17  16     2.066270142163   108.10134400   200.58263000
 H     19  17  16     2.059824023869   111.13814004   318.39429378
 H     19  17  16     2.073102779434   112.09135156    80.92720111
 C     17  16   8     2.751981768594   118.39886351   173.78651300
 H     23  17  16     2.071476035014   110.89230879   258.22189524
 H     23  17  16     2.056839073705   108.17270654    17.97630131
 H     23  17  16     2.066587254678   109.60325248   137.83287427
 O     11   7   5     2.707859521874   107.43272695    73.06467797
 H     27  11   7     1.839616119187   106.99596044   190.17617553
 H     13  11   7     2.071859572341   109.31109053   188.99270113

---------------------
BASIS SET INFORMATION
---------------------
There are 4 groups of distinct atoms

 Group   1 Type C   : 10s4p1d contracted to 3s2p1d pattern {631/31/1}
 Group   2 Type H   : 4s contracted to 2s pattern {31}
 Group   3 Type O   : 10s4p1d contracted to 3s2p1d pattern {631/31/1}
 Group   4 Type N   : 10s4p1d contracted to 3s2p1d pattern {631/31/1}

Atom   0C    basis set group =>   1
Atom   1H    basis set group =>   2
Atom   2H    basis set group =>   2
Atom   3H    basis set group =>   2
Atom   4C    basis set group =>   1
Atom   5O    basis set group =>   3
Atom   6N    basis set group =>   4
Atom   7C    basis set group =>   1
Atom   8H    basis set group =>   2
Atom   9H    basis set group =>   2
Atom  10C    basis set group =>   1
Atom  11H    basis set group =>   2
Atom  12C    basis set group =>   1
Atom  13H    basis set group =>   2
Atom  14H    basis set group =>   2
Atom  15C    basis set group =>   1
Atom  16N    basis set group =>   4
Atom  17O    basis set group =>   3
Atom  18C    basis set group =>   1
Atom  19H    basis set group =>   2
Atom  20H    basis set group =>   2
Atom  21H    basis set group =>   2
Atom  22C    basis set group =>   1
Atom  23H    basis set group =>   2
Atom  24H    basis set group =>   2
Atom  25H    basis set group =>   2
Atom  26O    basis set group =>   3
Atom  27H    basis set group =>   2
Atom  28H    basis set group =>   2
---------------------------------
AUXILIARY/J BASIS SET INFORMATION
---------------------------------
There are 4 groups of distinct atoms

 Group   1 Type C   : 13s11p10d2f contracted to 13s11p10d2f pattern {1111111111111/11111111111/1111111111/11}
 Group   2 Type H   : 9s2p contracted to 9s2p pattern {111111111/11}
 Group   3 Type O   : 14s11p10d2f contracted to 14s11p10d2f pattern {11111111111111/11111111111/1111111111/11}
 Group   4 Type N   : 14s11p10d2f contracted to 14s11p10d2f pattern {11111111111111/11111111111/1111111111/11}

Atom   0C    basis set group =>   1
Atom   1H    basis set group =>   2
Atom   2H    basis set group =>   2
Atom   3H    basis set group =>   2
Atom   4C    basis set group =>   1
Atom   5O    basis set group =>   3
Atom   6N    basis set group =>   4
Atom   7C    basis set group =>   1
Atom   8H    basis set group =>   2
Atom   9H    basis set group =>   2
Atom  10C    basis set group =>   1
Atom  11H    basis set group =>   2
Atom  12C    basis set group =>   1
Atom  13H    basis set group =>   2
Atom  14H    basis set group =>   2
Atom  15C    basis set group =>   1
Atom  16N    basis set group =>   4
Atom  17O    basis set group =>   3
Atom  18C    basis set group =>   1
Atom  19H    basis set group =>   2
Atom  20H    basis set group =>   2
Atom  21H    basis set group =>   2
Atom  22C    basis set group =>   1
Atom  23H    basis set group =>   2
Atom  24H    basis set group =>   2
Atom  25H    basis set group =>   2
Atom  26O    basis set group =>   3
Atom  27H    basis set group =>   2
Atom  28H    basis set group =>   2
---------------------------------
AUXILIARY/C BASIS SET INFORMATION
---------------------------------
There are 4 groups of distinct atoms

 Group   1 Type C   : 13s11p10d2f contracted to 13s11p10d2f pattern {1111111111111/11111111111/1111111111/11}
 Group   2 Type H   : 9s2p contracted to 9s2p pattern {111111111/11}
 Group   3 Type O   : 14s11p10d2f contracted to 14s11p10d2f pattern {11111111111111/11111111111/1111111111/11}
 Group   4 Type N   : 14s11p10d2f contracted to 14s11p10d2f pattern {11111111111111/11111111111/1111111111/11}

Atom   0C    basis set group =>   1
Atom   1H    basis set group =>   2
Atom   2H    basis set group =>   2
Atom   3H    basis set group =>   2
Atom   4C    basis set group =>   1
Atom   5O    basis set group =>   3
Atom   6N    basis set group =>   4
Atom   7C    basis set group =>   1
Atom   8H    basis set group =>   2
Atom   9H    basis set group =>   2
Atom  10C    basis set group =>   1
Atom  11H    basis set group =>   2
Atom  12C    basis set group =>   1
Atom  13H    basis set group =>   2
Atom  14H    basis set group =>   2
Atom  15C    basis set group =>   1
Atom  16N    basis set group =>   4
Atom  17O    basis set group =>   3
Atom  18C    basis set group =>   1
Atom  19H    basis set group =>   2
Atom  20H    basis set group =>   2
Atom  21H    basis set group =>   2
Atom  22C    basis set group =>   1
Atom  23H    basis set group =>   2
Atom  24H    basis set group =>   2
Atom  25H    basis set group =>   2
Atom  26O    basis set group =>   3
Atom  27H    basis set group =>   2
Atom  28H    basis set group =>   2
----------------------------------
AUXILIARY/JK BASIS SET INFORMATION
----------------------------------
There are 4 groups of distinct atoms

 Group   1 Type C   : 13s11p10d2f contracted to 13s11p10d2f pattern {1111111111111/11111111111/1111111111/11}
 Group   2 Type H   : 9s2p contracted to 9s2p pattern {111111111/11}
 Group   3 Type O   : 14s11p10d2f contracted to 14s11p10d2f pattern {11111111111111/11111111111/1111111111/11}
 Group   4 Type N   : 14s11p10d2f contracted to 14s11p10d2f pattern {11111111111111/11111111111/1111111111/11}

Atom   0C    basis set group =>   1
Atom   1H    basis set group =>   2
Atom   2H    basis set group =>   2
Atom   3H    basis set group =>   2
Atom   4C    basis set group =>   1
Atom   5O    basis set group =>   3
Atom   6N    basis set group =>   4
Atom   7C    basis set group =>   1
Atom   8H    basis set group =>   2
Atom   9H    basis set group =>   2
Atom  10C    basis set group =>   1
Atom  11H    basis set group =>   2
Atom  12C    basis set group =>   1
Atom  13H    basis set group =>   2
Atom  14H    basis set group =>   2
Atom  15C    basis set group =>   1
Atom  16N    basis set group =>   4
Atom  17O    basis set group =>   3
Atom  18C    basis set group =>   1
Atom  19H    basis set group =>   2
Atom  20H    basis set group =>   2
Atom  21H    basis set group =>   2
Atom  22C    basis set group =>   1
Atom  23H    basis set group =>   2
Atom  24H    basis set group =>   2
Atom  25H    basis set group =>   2
Atom  26O    basis set group =>   3
Atom  27H    basis set group =>   2
Atom  28H    basis set group =>   2


           ************************************************************
           *        Program running with 4 parallel MPI-processes     *
           *              working on a common directory               *
           ************************************************************
------------------------------------------------------------------------------
                           ORCA GTO INTEGRAL CALCULATION
                           -- RI-GTO INTEGRALS CHOSEN --
------------------------------------------------------------------------------
------------------------------------------------------------------------------
                   ___                                                        
                  /   \      - P O W E R E D   B Y -                         
                 /     \                                                     
                 |  |  |   _    _      __       _____    __    __             
                 |  |  |  | |  | |    /  \     |  _  \  |  |  /  |          
                  \  \/   | |  | |   /    \    | | | |  |  | /  /          
                 / \  \   | |__| |  /  /\  \   | |_| |  |  |/  /          
                |  |  |   |  __  | /  /__\  \  |    /   |      \           
                |  |  |   | |  | | |   __   |  |    \   |  |\   \          
                \     /   | |  | | |  |  |  |  | |\  \  |  | \   \       
                 \___/    |_|  |_| |__|  |__|  |_| \__\ |__|  \__/        
                                                                              
                      - O R C A' S   B I G   F R I E N D -                    
                                      &                                       
                       - I N T E G R A L  F E E D E R -                       
                                                                              
 v1 FN, 2020, v2 2021                                                         
------------------------------------------------------------------------------


Reading SHARK input file Nt_water.SHARKINP.tmp ... ok
----------------------
SHARK INTEGRAL PACKAGE
----------------------

Number of atoms                             ...     29
Number of basis functions                   ...    214
Number of shells                            ...    110
Maximum angular momentum                    ...      2
Integral batch strategy                     ... SHARK/LIBINT Hybrid
RI-J (if used) integral strategy            ... SPLIT-RIJ (Revised 2003 algorithm where possible)
Printlevel                                  ...      1
Contraction scheme used                     ... SEGMENTED contraction
Coulomb Range Separation                    ... NOT USED
Exchange Range Separation                   ... NOT USED
Finite Nucleus Model                        ... NOT USED
Auxiliary Coulomb fitting basis             ... AVAILABLE
   # of basis functions in Aux-J            ...   1675
   # of shells in Aux-J                     ...    649
   Maximum angular momentum in Aux-J        ...      3
Auxiliary J/K fitting basis                 ... AVAILABLE
   # of basis functions in Aux-JK           ...   1675
   # of shells in Aux-JK                    ...    649
   Maximum angular momentum in Aux-JK       ...      3
Auxiliary Correlation fitting basis         ... AVAILABLE
   # of basis functions in Aux-C            ...   1675
   # of shells in Aux-C                     ...    649
   Maximum angular momentum in Aux-C        ...      3
Auxiliary 'external' fitting basis          ... NOT available
Integral threshold                          ...     2.500000e-11
Primitive cut-off                           ...     2.500000e-12
Primitive pair pre-selection threshold      ...     2.500000e-12

Calculating pre-screening integrals         ... done (  0.0 sec) Dimension = 110
Organizing shell pair data                  ... done (  0.0 sec)
Shell pair information
Total number of shell pairs                 ...      6105
Shell pairs after pre-screening             ...      5287
Total number of primitive shell pairs       ...     33991
Primitive shell pairs kept                  ...     17604
          la=0 lb=0:   2123 shell pairs
          la=1 lb=0:   1683 shell pairs
          la=1 lb=1:    337 shell pairs
          la=2 lb=0:    758 shell pairs
          la=2 lb=1:    309 shell pairs
          la=2 lb=2:     77 shell pairs

Calculating one electron integrals          ... done (  0.0 sec)
Calculating RI/J V-Matrix + Cholesky decomp.... done (  0.2 sec)
Calculating RI/JK V-Matrix + Cholesky decomp... done (  0.2 sec)
Calculating RI/C V-Matrix + Cholesky decomp.... done (  0.2 sec)
Calculating Nuclear repulsion               ... done (  0.0 sec) ENN=    887.265069263206 Eh

SHARK setup successfully completed in   0.8 seconds

Maximum memory used throughout the entire GTOINT-calculation: 25.8 MB


           ************************************************************
           *        Program running with 4 parallel MPI-processes     *
           *              working on a common directory               *
           ************************************************************
-------------------------------------------------------------------------------
                                 ORCA SCF
-------------------------------------------------------------------------------

------------
SCF SETTINGS
------------
Hamiltonian:
 Density Functional     Method          .... DFT(GTOs)
 Exchange Functional    Exchange        .... B88
   X-Alpha parameter    XAlpha          ....  0.666667
   Becke's b parameter  XBeta           ....  0.004200
 Correlation Functional Correlation     .... LYP
 LDA part of GGA corr.  LDAOpt          .... VWN-5
 Gradients option       PostSCFGGA      .... off
 Hybrid DFT is turned on
   Fraction HF Exchange ScalHFX         ....  0.200000
   Scaling of DF-GGA-X  ScalDFX         ....  0.720000
   Scaling of DF-GGA-C  ScalDFC         ....  0.810000
   Scaling of DF-LDA-C  ScalLDAC        ....  1.000000
   Perturbative correction              ....  0.000000
   Density functional embedding theory  .... OFF
   NL short-range parameter             ....  4.800000
 RI-approximation to the Coulomb term is turned on
   Number of AuxJ basis functions       .... 1675
   RIJ-COSX (HFX calculated with COS-X)).... on


General Settings:
 Integral files         IntName         .... Nt_water
 Hartree-Fock type      HFTyp           .... RHF
 Total Charge           Charge          ....    0
 Multiplicity           Mult            ....    1
 Number of Electrons    NEL             ....  102
 Basis Dimension        Dim             ....  214
 Nuclear Repulsion      ENuc            ....    887.2650692632 Eh

Convergence Acceleration:
 DIIS                   CNVDIIS         .... on
   Start iteration      DIISMaxIt       ....    12
   Startup error        DIISStart       ....  0.200000
   # of expansion vecs  DIISMaxEq       ....     5
   Bias factor          DIISBfac        ....   1.050
   Max. coefficient     DIISMaxC        ....  10.000
 Trust-Rad. Augm. Hess. CNVTRAH         .... auto
   Auto Start mean grad. ratio tolernc. ....  1.125000
   Auto Start start iteration           ....    20
   Auto Start num. interpolation iter.  ....    10
   Max. Number of Micro iterations      ....    16
   Max. Number of Macro iterations      .... Maxiter - #DIIS iter
   Number of Davidson start vectors     ....     2
   Converg. threshold I  (grad. norm)   ....   1.000e-05
   Converg. threshold II (energy diff.) ....   1.000e-08
   Grad. Scal. Fac. for Micro threshold ....   0.100
   Minimum threshold for Micro iter.    ....   0.010
   NR start threshold (gradient norm)   ....   0.001
   Initial trust radius                 ....   0.400
   Minimum AH scaling param. (alpha)    ....   1.000
   Maximum AH scaling param. (alpha)    .... 1000.000
   Orbital update algorithm             .... Taylor
   White noise on init. David. guess    .... on
   Maximum white noise                  ....   0.010
   Quad. conv. algorithm                .... NR
 SOSCF                  CNVSOSCF        .... on
   Start iteration      SOSCFMaxIt      ....   150
   Startup grad/error   SOSCFStart      ....  0.003300
 Level Shifting         CNVShift        .... on
   Level shift para.    LevelShift      ....    0.2500
   Turn off err/grad.   ShiftErr        ....    0.0010
 Zerner damping         CNVZerner       .... off
 Static damping         CNVDamp         .... on
   Fraction old density DampFac         ....    0.7000
   Max. Damping (<1)    DampMax         ....    0.9800
   Min. Damping (>=0)   DampMin         ....    0.0000
   Turn off err/grad.   DampErr         ....    0.1000
 Fernandez-Rico         CNVRico         .... off

SCF Procedure:
 Maximum # iterations   MaxIter         ....   125
 SCF integral mode      SCFMode         .... Direct
   Integral package                     .... SHARK and LIBINT hybrid scheme
 Reset frequency        DirectResetFreq ....    20
 Integral Threshold     Thresh          ....  2.500e-11 Eh
 Primitive CutOff       TCut            ....  2.500e-12 Eh

Convergence Tolerance:
 Convergence Check Mode ConvCheckMode   .... Total+1el-Energy
 Convergence forced     ConvForced      .... 0
 Energy Change          TolE            ....  1.000e-08 Eh
 1-El. energy change                    ....  1.000e-05 Eh
 Orbital Gradient       TolG            ....  1.000e-05
 Orbital Rotation angle TolX            ....  1.000e-05
 DIIS Error             TolErr          ....  5.000e-07


Diagonalization of the overlap matrix:
Smallest eigenvalue                        ... 2.848e-03
Time for diagonalization                   ...    0.008 sec
Threshold for overlap eigenvalues          ... 1.000e-08
Number of eigenvalues below threshold      ... 0
Time for construction of square roots      ...    0.004 sec
Total time needed                          ...    0.013 sec

Time for model grid setup =    0.286 sec

------------------------------
INITIAL GUESS: MODEL POTENTIAL
------------------------------
Loading Hartree-Fock densities                     ... done
Calculating cut-offs                               ... done
Initializing the effective Hamiltonian             ... done
Setting up the integral package (SHARK)            ... done
Starting the Coulomb interaction                   ... done (   0.7 sec)
Reading the grid                                   ... done
Mapping shells                                     ... done
Starting the XC term evaluation                    ... done (   0.1 sec)
  promolecular density results
     # of electrons  =    101.995633137
     EX              =    -83.655203836
     EC              =     -3.461994333
     EX+EC           =    -87.117198169
Transforming the Hamiltonian                       ... done (   0.0 sec)
Diagonalizing the Hamiltonian                      ... done (   0.0 sec)
Back transforming the eigenvectors                 ... done (   0.0 sec)
Now organizing SCF variables                       ... done
                      ------------------
                      INITIAL GUESS DONE (   1.2 sec)
                      ------------------
-------------------
DFT GRID GENERATION
-------------------

General Integration Accuracy     IntAcc      ... 4.388
Radial Grid Type                 RadialGrid  ... OptM3 with GC (2021)
Angular Grid (max. ang.)         AngularGrid ... 4 (Lebedev-302)
Angular grid pruning method      GridPruning ... 4 (adaptive)
Weight generation scheme         WeightScheme... Becke
Basis function cutoff            BFCut       ... 1.0000e-11
Integration weight cutoff        WCut        ... 1.0000e-14
Angular grids for H and He will be reduced by one unit
Partially contracted basis set               ... off
Rotationally invariant grid construction     ... off

Total number of grid points                  ...   129087
Total number of batches                      ...     2033
Average number of points per batch           ...       63
Average number of grid points per atom       ...     4451
Time for grid setup =    0.969 sec

--------------------
COSX GRID GENERATION
--------------------

GRIDX 1
-------
General Integration Accuracy     IntAcc      ... 3.816
Radial Grid Type                 RadialGrid  ... OptM3 with GC (2021)
Angular Grid (max. ang.)         AngularGrid ... 1 (Lebedev-50)
Angular grid pruning method      GridPruning ... 4 (adaptive)
Weight generation scheme         WeightScheme... Becke
Basis function cutoff            BFCut       ... 1.0000e-11
Integration weight cutoff        WCut        ... 1.0000e-14
Angular grids for H and He will be reduced by one unit
Partially contracted basis set               ... on
Rotationally invariant grid construction     ... off

Total number of grid points                  ...    16500
Total number of batches                      ...      277
Average number of points per batch           ...       59
Average number of grid points per atom       ...      569
UseSFitting                                  ... on

GRIDX 2
-------
General Integration Accuracy     IntAcc      ... 4.020
Radial Grid Type                 RadialGrid  ... OptM3 with GC (2021)
Angular Grid (max. ang.)         AngularGrid ... 2 (Lebedev-110)
Angular grid pruning method      GridPruning ... 4 (adaptive)
Weight generation scheme         WeightScheme... Becke
Basis function cutoff            BFCut       ... 1.0000e-11
Integration weight cutoff        WCut        ... 1.0000e-14
Angular grids for H and He will be reduced by one unit
Partially contracted basis set               ... on
Rotationally invariant grid construction     ... off

Total number of grid points                  ...    34969
Total number of batches                      ...      560
Average number of points per batch           ...       62
Average number of grid points per atom       ...     1206
UseSFitting                                  ... on

GRIDX 3
-------
General Integration Accuracy     IntAcc      ... 4.338
Radial Grid Type                 RadialGrid  ... OptM3 with GC (2021)
Angular Grid (max. ang.)         AngularGrid ... 3 (Lebedev-194)
Angular grid pruning method      GridPruning ... 4 (adaptive)
Weight generation scheme         WeightScheme... Becke
Basis function cutoff            BFCut       ... 1.0000e-11
Integration weight cutoff        WCut        ... 1.0000e-14
Angular grids for H and He will be reduced by one unit
Partially contracted basis set               ... on
Rotationally invariant grid construction     ... off

Total number of grid points                  ...    76321
Total number of batches                      ...     1207
Average number of points per batch           ...       63
Average number of grid points per atom       ...     2632
UseSFitting                                  ... on

Time for X-Grid setup             =    1.000 sec


--------------------
CPCM SOLVATION MODEL
--------------------
CPCM parameters:
  Epsilon                                         ...      80.4000
  Refrac                                          ...       1.3300
  Rsolv                                           ...       1.3000
  Surface type                                    ... GAUSSIAN VDW
  Epsilon function type                           ...         CPCM
Radii:
 Radius for C  used is    3.8550 Bohr (=   2.0400 Ang.)
 Radius for H  used is    2.4944 Bohr (=   1.3200 Ang.)
 Radius for O  used is    3.4469 Bohr (=   1.8240 Ang.)
 Radius for N  used is    3.5149 Bohr (=   1.8600 Ang.)
Calculating surface                               ...        done! (  0.0s)
GEPOL surface points                              ...         1514
GEPOL Volume                                      ...    1583.4365
GEPOL Surface-area                                ...     853.4285
Calculating surface distance matrix               ...        done! (  0.0s)
Performing Cholesky decomposition & store         ...        done! (  0.1s)
Overall time for CPCM initialization              ...                 0.1s
--------------
SCF ITERATIONS
--------------
ITER       Energy         Delta-E        Max-DP      RMS-DP      [F,P]     Damp
               ***  Starting incremental Fock matrix formation  ***
  0   -648.8726406310   0.000000000000 0.09630999  0.00235672  0.2743701 0.7000
  1   -649.0751027627  -0.202462131722 0.05567333  0.00153321  0.1123033 0.7000
                               ***Turning on DIIS***
  2   -649.1509297477  -0.075826984967 0.06430912  0.00229712  0.0386742 0.0000
  3   -649.2745106412  -0.123580893440 0.03687140  0.00104425  0.0545636 0.0000
  4   -649.2991875775  -0.024676936398 0.00923257  0.00032955  0.0127097 0.0000
  5   -649.3009009299  -0.001713352376 0.00309632  0.00009873  0.0047911 0.0000
                      *** Initiating the SOSCF procedure ***
                           *** Shutting down DIIS ***
                      *** Re-Reading the Fockian *** 
                      *** Removing any level shift *** 
ITER      Energy       Delta-E        Grad      Rot      Max-DP    RMS-DP
  6   -649.30098485  -0.0000839220  0.000192  0.000192  0.001311  0.000044
               *** Restarting incremental Fock matrix formation ***
  7   -649.30097610   0.0000087524  0.000250  0.000957  0.001485  0.000026
  8   -649.30097197   0.0000041292  0.000476  0.000676  0.000998  0.000017
  9   -649.30097860  -0.0000066273  0.000045  0.000119  0.000255  0.000005
 10   -649.30097841   0.0000001855  0.000088  0.000080  0.000177  0.000003
 11   -649.30097866  -0.0000002528  0.000003  0.000005  0.000015  0.000000
 12   -649.30097866   0.0000000028  0.000003  0.000003  0.000009  0.000000
                  ***Gradient check signals convergence***
              ***Rediagonalizing the Fockian in SOSCF/NRSCF***

               *****************************************************
               *                     SUCCESS                       *
               *           SCF CONVERGED AFTER  13 CYCLES          *
               *****************************************************

Old exchange energy                            =    -17.038308805 Eh
New exchange energy                            =    -17.038293421 Eh
Exchange energy change after final integration =      0.000015385 Eh
Total energy after final integration           =   -649.300963280 Eh
Final COS-X integration done in                =     7.362 sec

----------------
TOTAL SCF ENERGY
----------------

Total Energy       :         -649.30096328 Eh          -17668.37745 eV

Components:
Nuclear Repulsion  :          887.26506926 Eh           24143.70998 eV
Electronic Energy  :        -1536.56603254 Eh          -41812.08743 eV
One Electron Energy:        -2647.02967582 Eh          -72029.33938 eV
Two Electron Energy:         1110.46364328 Eh           30217.25195 eV
Max COSX asymmetry :            0.00000251 Eh               0.00007 eV
CPCM Dielectric    :           -0.02557704 Eh              -0.69599 eV

Virial components:
Potential Energy   :        -1294.82239723 Eh          -35233.90869 eV
Kinetic Energy     :          645.52143395 Eh           17565.53123 eV
Virial Ratio       :            2.00585500


DFT components:
N(Alpha)           :       50.999848967286 electrons
N(Beta)            :       50.999848967286 electrons
N(Total)           :      101.999697934572 electrons
E(X)               :      -67.678513224329 Eh       
E(C)               :       -4.079949942541 Eh       
E(XC)              :      -71.758463166870 Eh       
DFET-embed. en.    :        0.000000000000 Eh       
CPCM Solvation Model Properties:
Surface-charge          :           -0.01895538
Charge-correction       :           -0.00020926 Eh              -0.00569 eV
Free-energy (cav+disp)  :  This term is not implemented in the current solvation scheme

---------------
SCF CONVERGENCE
---------------

  Last Energy change         ...   -2.8830e-09  Tolerance :   1.0000e-08
  Last MAX-Density change    ...    3.1086e-15  Tolerance :   1.0000e-07
  Last RMS-Density change    ...    4.4314e-17  Tolerance :   5.0000e-09
  Last Orbital Gradient      ...    5.6989e-07  Tolerance :   1.0000e-05
  Last Orbital Rotation      ...    1.3943e-06  Tolerance :   1.0000e-05

             **** THE GBW FILE WAS UPDATED (Nt_water.gbw) ****
             **** DENSITY Nt_water.scfp WAS UPDATED ****
             **** ENERGY FILE WAS UPDATED (Nt_water.en.tmp) ****
             **** THE GBW FILE WAS UPDATED (Nt_water.gbw) ****
             **** DENSITY Nt_water.scfp WAS UPDATED ****
----------------
ORBITAL ENERGIES
----------------

  NO   OCC          E(Eh)            E(eV) 
   0   2.0000     -19.138445      -520.7836 
   1   2.0000     -19.109392      -519.9930 
   2   2.0000     -19.109170      -519.9870 
   3   2.0000     -14.356175      -390.6514 
   4   2.0000     -14.353076      -390.5671 
   5   2.0000     -10.282296      -279.7955 
   6   2.0000     -10.279005      -279.7060 
   7   2.0000     -10.263497      -279.2839 
   8   2.0000     -10.211317      -277.8641 
   9   2.0000     -10.201710      -277.6026 
  10   2.0000     -10.194042      -277.3940 
  11   2.0000     -10.166784      -276.6522 
  12   2.0000     -10.158778      -276.4344 
  13   2.0000      -1.038986       -28.2723 
  14   2.0000      -1.025748       -27.9120 
  15   2.0000      -1.017882       -27.6980 
  16   2.0000      -0.928567       -25.2676 
  17   2.0000      -0.921015       -25.0621 
  18   2.0000      -0.760119       -20.6839 
  19   2.0000      -0.738910       -20.1068 
  20   2.0000      -0.720397       -19.6030 
  21   2.0000      -0.704683       -19.1754 
  22   2.0000      -0.666561       -18.1381 
  23   2.0000      -0.644250       -17.5309 
  24   2.0000      -0.551689       -15.0122 
  25   2.0000      -0.520235       -14.1563 
  26   2.0000      -0.510987       -13.9047 
  27   2.0000      -0.504141       -13.7184 
  28   2.0000      -0.490758       -13.3542 
  29   2.0000      -0.471332       -12.8256 
  30   2.0000      -0.464332       -12.6351 
  31   2.0000      -0.455018       -12.3817 
  32   2.0000      -0.437735       -11.9114 
  33   2.0000      -0.424884       -11.5617 
  34   2.0000      -0.419521       -11.4157 
  35   2.0000      -0.409438       -11.1414 
  36   2.0000      -0.401187       -10.9169 
  37   2.0000      -0.397282       -10.8106 
  38   2.0000      -0.394062       -10.7230 
  39   2.0000      -0.389736       -10.6052 
  40   2.0000      -0.374845       -10.2001 
  41   2.0000      -0.372665       -10.1407 
  42   2.0000      -0.370607       -10.0847 
  43   2.0000      -0.354801        -9.6546 
  44   2.0000      -0.342854        -9.3295 
  45   2.0000      -0.336933        -9.1684 
  46   2.0000      -0.273789        -7.4502 
  47   2.0000      -0.258835        -7.0433 
  48   2.0000      -0.251838        -6.8528 
  49   2.0000      -0.241608        -6.5745 
  50   2.0000      -0.235648        -6.4123 
  51   0.0000       0.019288         0.5248 
  52   0.0000       0.025035         0.6812 
  53   0.0000       0.089255         2.4287 
  54   0.0000       0.103082         2.8050 
  55   0.0000       0.119136         3.2418 
  56   0.0000       0.129226         3.5164 
  57   0.0000       0.135727         3.6933 
  58   0.0000       0.152431         4.1478 
  59   0.0000       0.153642         4.1808 
  60   0.0000       0.162259         4.4153 
  61   0.0000       0.171172         4.6578 
  62   0.0000       0.177074         4.8184 
  63   0.0000       0.178073         4.8456 
  64   0.0000       0.181433         4.9370 
  65   0.0000       0.188817         5.1380 
  66   0.0000       0.191378         5.2076 
  67   0.0000       0.195065         5.3080 
  68   0.0000       0.205953         5.6043 
  69   0.0000       0.216376         5.8879 
  70   0.0000       0.224441         6.1074 
  71   0.0000       0.229684         6.2500 
  72   0.0000       0.233676         6.3586 
  73   0.0000       0.248234         6.7548 
  74   0.0000       0.270234         7.3534 
  75   0.0000       0.278631         7.5819 
  76   0.0000       0.298222         8.1150 
  77   0.0000       0.334538         9.1032 
  78   0.0000       0.360775         9.8172 
  79   0.0000       0.397876        10.8268 
  80   0.0000       0.407633        11.0923 
  81   0.0000       0.481704        13.1078 
  82   0.0000       0.504749        13.7349 
  83   0.0000       0.509076        13.8527 
  84   0.0000       0.519216        14.1286 
  85   0.0000       0.535149        14.5622 
  86   0.0000       0.541431        14.7331 
  87   0.0000       0.548744        14.9321 
  88   0.0000       0.573021        15.5927 
  89   0.0000       0.576630        15.6909 
  90   0.0000       0.590170        16.0593 
  91   0.0000       0.600458        16.3393 
  92   0.0000       0.623317        16.9613 
  93   0.0000       0.637306        17.3420 
  94   0.0000       0.646371        17.5886 
  95   0.0000       0.662381        18.0243 
  96   0.0000       0.678891        18.4736 
  97   0.0000       0.689416        18.7600 
  98   0.0000       0.697037        18.9673 
  99   0.0000       0.723784        19.6952 
 100   0.0000       0.740663        20.1545 
 101   0.0000       0.757038        20.6000 
 102   0.0000       0.763652        20.7800 
 103   0.0000       0.778424        21.1820 
 104   0.0000       0.801723        21.8160 
 105   0.0000       0.818426        22.2705 
 106   0.0000       0.819934        22.3116 
 107   0.0000       0.834221        22.7003 
 108   0.0000       0.843525        22.9535 
 109   0.0000       0.848485        23.0885 
 110   0.0000       0.864755        23.5312 
 111   0.0000       0.881455        23.9856 
 112   0.0000       0.888870        24.1874 
 113   0.0000       0.895346        24.3636 
 114   0.0000       0.898333        24.4449 
 115   0.0000       0.901422        24.5289 
 116   0.0000       0.918592        24.9962 
 117   0.0000       0.923053        25.1175 
 118   0.0000       0.936123        25.4732 
 119   0.0000       0.945957        25.7408 
 120   0.0000       0.953708        25.9517 
 121   0.0000       0.958073        26.0705 
 122   0.0000       0.964239        26.2383 
 123   0.0000       0.971091        26.4247 
 124   0.0000       1.005397        27.3582 
 125   0.0000       1.015416        27.6309 
 126   0.0000       1.016880        27.6707 
 127   0.0000       1.038479        28.2585 
 128   0.0000       1.047740        28.5105 
 129   0.0000       1.065419        28.9915 
 130   0.0000       1.074879        29.2489 
 131   0.0000       1.117096        30.3977 
 132   0.0000       1.125141        30.6167 
 133   0.0000       1.146480        31.1973 
 134   0.0000       1.158495        31.5242 
 135   0.0000       1.195153        32.5218 
 136   0.0000       1.204606        32.7790 
 137   0.0000       1.244731        33.8708 
 138   0.0000       1.313956        35.7546 
 139   0.0000       1.328609        36.1533 
 140   0.0000       1.343928        36.5701 
 141   0.0000       1.358797        36.9747 
 142   0.0000       1.379674        37.5428 
 143   0.0000       1.390600        37.8402 
 144   0.0000       1.412821        38.4448 
 145   0.0000       1.447444        39.3869 
 146   0.0000       1.464833        39.8601 
 147   0.0000       1.496883        40.7323 
 148   0.0000       1.541573        41.9483 
 149   0.0000       1.546316        42.0774 
 150   0.0000       1.601053        43.5669 
 151   0.0000       1.672087        45.4998 
 152   0.0000       1.688120        45.9361 
 153   0.0000       1.713263        46.6203 
 154   0.0000       1.721039        46.8318 
 155   0.0000       1.761422        47.9307 
 156   0.0000       1.773632        48.2630 
 157   0.0000       1.787648        48.6444 
 158   0.0000       1.811157        49.2841 
 159   0.0000       1.816911        49.4406 
 160   0.0000       1.830446        49.8090 
 161   0.0000       1.835707        49.9521 
 162   0.0000       1.866664        50.7945 
 163   0.0000       1.872529        50.9541 
 164   0.0000       1.908320        51.9280 
 165   0.0000       1.920545        52.2607 
 166   0.0000       1.932571        52.5879 
 167   0.0000       1.943335        52.8808 
 168   0.0000       1.967949        53.5506 
 169   0.0000       1.977669        53.8151 
 170   0.0000       1.980354        53.8882 
 171   0.0000       1.986030        54.0426 
 172   0.0000       2.021831        55.0168 
 173   0.0000       2.033354        55.3304 
 174   0.0000       2.049212        55.7619 
 175   0.0000       2.091183        56.9040 
 176   0.0000       2.094666        56.9988 
 177   0.0000       2.112514        57.4844 
 178   0.0000       2.119410        57.6721 
 179   0.0000       2.135650        58.1140 
 180   0.0000       2.160793        58.7982 
 181   0.0000       2.196248        59.7629 
 182   0.0000       2.217139        60.3314 
 183   0.0000       2.226264        60.5797 
 184   0.0000       2.231749        60.7290 
 185   0.0000       2.248218        61.1771 
 186   0.0000       2.267198        61.6936 
 187   0.0000       2.274885        61.9028 
 188   0.0000       2.317893        63.0731 
 189   0.0000       2.336598        63.5821 
 190   0.0000       2.343952        63.7822 
 191   0.0000       2.392645        65.1072 
 192   0.0000       2.411934        65.6321 
 193   0.0000       2.426558        66.0300 
 194   0.0000       2.461893        66.9915 
 195   0.0000       2.478840        67.4527 
 196   0.0000       2.510500        68.3142 
 197   0.0000       2.537907        69.0600 
 198   0.0000       2.548731        69.3545 
 199   0.0000       2.580468        70.2181 
 200   0.0000       2.617090        71.2146 
 201   0.0000       2.639489        71.8242 
 202   0.0000       2.651999        72.1646 
 203   0.0000       2.673981        72.7627 
 204   0.0000       2.724660        74.1418 
 205   0.0000       2.741667        74.6045 
 206   0.0000       2.762416        75.1692 
 207   0.0000       2.897309        78.8398 
 208   0.0000       2.943796        80.1048 
 209   0.0000       2.964604        80.6710 
 210   0.0000       3.023593        82.2761 
 211   0.0000       3.061195        83.2993 
 212   0.0000       3.171158        86.2916 
 213   0.0000       3.185191        86.6735 

                    ********************************
                    * MULLIKEN POPULATION ANALYSIS *
                    ********************************

-----------------------
MULLIKEN ATOMIC CHARGES
-----------------------
   0 C :   -0.558849
   1 H :    0.186608
   2 H :    0.179599
   3 H :    0.197612
   4 C :    0.531362
   5 O :   -0.537056
   6 N :   -0.372159
   7 C :   -0.281593
   8 H :    0.208136
   9 H :    0.199230
  10 C :    0.267554
  11 H :    0.155229
  12 C :   -0.504155
  13 H :    0.179024
  14 H :    0.168652
  15 C :    0.545246
  16 N :   -0.375030
  17 O :   -0.525808
  18 C :   -0.337808
  19 H :    0.181683
  20 H :    0.192513
  21 H :    0.177595
  22 C :   -0.331569
  23 H :    0.170919
  24 H :    0.183541
  25 H :    0.172622
  26 O :   -0.667593
  27 H :    0.433143
  28 H :    0.161353
Sum of atomic charges:   -0.0000000

--------------------------------
MULLIKEN REDUCED ORBITAL CHARGES
--------------------------------
  0 C s       :     3.317867  s :     3.317867
      pz      :     1.093564  p :     3.208875
      px      :     1.004692
      py      :     1.110618
      dz2     :     0.008375  d :     0.032106
      dxz     :     0.005845
      dyz     :     0.003517
      dx2y2   :     0.009279
      dxy     :     0.005090
  1 H s       :     0.813392  s :     0.813392
  2 H s       :     0.820401  s :     0.820401
  3 H s       :     0.802388  s :     0.802388
  4 C s       :     2.990041  s :     2.990041
      pz      :     0.781749  p :     2.371105
      px      :     0.830161
      py      :     0.759195
      dz2     :     0.012275  d :     0.107492
      dxz     :     0.013861
      dyz     :     0.020429
      dx2y2   :     0.037014
      dxy     :     0.023913
  5 O s       :     3.854902  s :     3.854902
      pz      :     1.545873  p :     4.657035
      px      :     1.566128
      py      :     1.545034
      dz2     :     0.002643  d :     0.025119
      dxz     :     0.004486
      dyz     :     0.004148
      dx2y2   :     0.006573
      dxy     :     0.007270
  6 N s       :     3.525775  s :     3.525775
      pz      :     1.484073  p :     3.811134
      px      :     1.174474
      py      :     1.152587
      dz2     :     0.004641  d :     0.035250
      dxz     :     0.005213
      dyz     :     0.006654
      dx2y2   :     0.009528
      dxy     :     0.009215
  7 C s       :     3.237774  s :     3.237774
      pz      :     1.031311  p :     2.990983
      px      :     0.829637
      py      :     1.130036
      dz2     :     0.007060  d :     0.052836
      dxz     :     0.014083
      dyz     :     0.009817
      dx2y2   :     0.014644
      dxy     :     0.007233
  8 H s       :     0.791864  s :     0.791864
  9 H s       :     0.800770  s :     0.800770
 10 C s       :     3.083715  s :     3.083715
      pz      :     0.901653  p :     2.563439
      px      :     0.784569
      py      :     0.877217
      dz2     :     0.015553  d :     0.085293
      dxz     :     0.021013
      dyz     :     0.013222
      dx2y2   :     0.012689
      dxy     :     0.022816
 11 H s       :     0.844771  s :     0.844771
 12 C s       :     3.307139  s :     3.307139
      pz      :     0.998932  p :     3.163853
      px      :     1.097347
      py      :     1.067573
      dz2     :     0.005467  d :     0.033163
      dxz     :     0.009383
      dyz     :     0.005716
      dx2y2   :     0.004982
      dxy     :     0.007615
 13 H s       :     0.820976  s :     0.820976
 14 H s       :     0.831348  s :     0.831348
 15 C s       :     2.982367  s :     2.982367
      pz      :     0.795740  p :     2.364934
      px      :     0.769496
      py      :     0.799698
      dz2     :     0.024450  d :     0.107453
      dxz     :     0.031030
      dyz     :     0.015061
      dx2y2   :     0.017303
      dxy     :     0.019609
 16 N s       :     3.539734  s :     3.539734
      pz      :     1.226424  p :     3.797805
      px      :     1.093180
      py      :     1.478201
      dz2     :     0.007518  d :     0.037492
      dxz     :     0.010330
      dyz     :     0.005566
      dx2y2   :     0.007496
      dxy     :     0.006581
 17 O s       :     3.862761  s :     3.862761
      pz      :     1.432648  p :     4.638132
      px      :     1.737322
      py      :     1.468162
      dz2     :     0.007840  d :     0.024916
      dxz     :     0.005415
      dyz     :     0.006594
      dx2y2   :     0.002689
      dxy     :     0.002378
 18 C s       :     3.266443  s :     3.266443
      pz      :     0.931925  p :     3.022919
      px      :     1.080988
      py      :     1.010006
      dz2     :     0.011262  d :     0.048446
      dxz     :     0.010050
      dyz     :     0.009330
      dx2y2   :     0.013264
      dxy     :     0.004539
 19 H s       :     0.818317  s :     0.818317
 20 H s       :     0.807487  s :     0.807487
 21 H s       :     0.822405  s :     0.822405
 22 C s       :     3.259943  s :     3.259943
      pz      :     0.958048  p :     3.023577
      px      :     0.972978
      py      :     1.092551
      dz2     :     0.005393  d :     0.048049
      dxz     :     0.014524
      dyz     :     0.011525
      dx2y2   :     0.005479
      dxy     :     0.011127
 23 H s       :     0.829081  s :     0.829081
 24 H s       :     0.816459  s :     0.816459
 25 H s       :     0.827378  s :     0.827378
 26 O s       :     3.886513  s :     3.886513
      pz      :     1.763660  p :     4.755962
      px      :     1.378398
      py      :     1.613904
      dz2     :     0.004993  d :     0.025119
      dxz     :     0.004547
      dyz     :     0.003208
      dx2y2   :     0.002654
      dxy     :     0.009717
 27 H s       :     0.566857  s :     0.566857
 28 H s       :     0.838647  s :     0.838647


                     *******************************
                     * LOEWDIN POPULATION ANALYSIS *
                     *******************************

----------------------
LOEWDIN ATOMIC CHARGES
----------------------
   0 C :   -0.399953
   1 H :    0.148111
   2 H :    0.151600
   3 H :    0.159368
   4 C :    0.129346
   5 O :   -0.332433
   6 N :   -0.061388
   7 C :   -0.190426
   8 H :    0.159524
   9 H :    0.157363
  10 C :    0.042970
  11 H :    0.128322
  12 C :   -0.395565
  13 H :    0.146093
  14 H :    0.137388
  15 C :    0.107579
  16 N :   -0.082010
  17 O :   -0.328077
  18 C :   -0.278537
  19 H :    0.144298
  20 H :    0.146131
  21 H :    0.133805
  22 C :   -0.280415
  23 H :    0.131981
  24 H :    0.146782
  25 H :    0.135985
  26 O :   -0.427866
  27 H :    0.333289
  28 H :    0.136733

-------------------------------
LOEWDIN REDUCED ORBITAL CHARGES
-------------------------------
  0 C s       :     2.981957  s :     2.981957
      pz      :     1.135417  p :     3.354782
      px      :     1.071971
      py      :     1.147394
      dz2     :     0.015771  d :     0.063213
      dxz     :     0.012309
      dyz     :     0.005869
      dx2y2   :     0.019177
      dxy     :     0.010086
  1 H s       :     0.851889  s :     0.851889
  2 H s       :     0.848400  s :     0.848400
  3 H s       :     0.840632  s :     0.840632
  4 C s       :     2.851502  s :     2.851502
      pz      :     0.836453  p :     2.766077
      px      :     1.005822
      py      :     0.923802
      dz2     :     0.026907  d :     0.253075
      dxz     :     0.029012
      dyz     :     0.049172
      dx2y2   :     0.091231
      dxy     :     0.056752
  5 O s       :     3.563760  s :     3.563760
      pz      :     1.533071  p :     4.717273
      px      :     1.611673
      py      :     1.572529
      dz2     :     0.006543  d :     0.051400
      dxz     :     0.006958
      dyz     :     0.006691
      dx2y2   :     0.012235
      dxy     :     0.018974
  6 N s       :     3.092538  s :     3.092538
      pz      :     1.459421  p :     3.876172
      px      :     1.207264
      py      :     1.209487
      dz2     :     0.010403  d :     0.092678
      dxz     :     0.012544
      dyz     :     0.017486
      dx2y2   :     0.027163
      dxy     :     0.025082
  7 C s       :     2.928049  s :     2.928049
      pz      :     1.077504  p :     3.150192
      px      :     0.934296
      py      :     1.138393
      dz2     :     0.014113  d :     0.112184
      dxz     :     0.033338
      dyz     :     0.018744
      dx2y2   :     0.031214
      dxy     :     0.014776
  8 H s       :     0.840476  s :     0.840476
  9 H s       :     0.842637  s :     0.842637
 10 C s       :     2.877013  s :     2.877013
      pz      :     1.013433  p :     2.890749
      px      :     0.907411
      py      :     0.969906
      dz2     :     0.034711  d :     0.189268
      dxz     :     0.046460
      dyz     :     0.028741
      dx2y2   :     0.027851
      dxy     :     0.051504
 11 H s       :     0.871678  s :     0.871678
 12 C s       :     2.984924  s :     2.984924
      pz      :     1.080643  p :     3.345049
      px      :     1.143753
      py      :     1.120653
      dz2     :     0.012349  d :     0.065592
      dxz     :     0.018493
      dyz     :     0.011975
      dx2y2   :     0.008938
      dxy     :     0.013837
 13 H s       :     0.853907  s :     0.853907
 14 H s       :     0.862612  s :     0.862612
 15 C s       :     2.853664  s :     2.853664
      pz      :     0.966257  p :     2.783034
      px      :     0.965169
      py      :     0.851608
      dz2     :     0.057058  d :     0.255724
      dxz     :     0.077860
      dyz     :     0.034633
      dx2y2   :     0.041032
      dxy     :     0.045141
 16 N s       :     3.093715  s :     3.093715
      pz      :     1.262107  p :     3.891284
      px      :     1.166995
      py      :     1.462182
      dz2     :     0.019490  d :     0.097010
      dxz     :     0.028575
      dyz     :     0.012492
      dx2y2   :     0.020861
      dxy     :     0.015593
 17 O s       :     3.561172  s :     3.561172
      pz      :     1.495451  p :     4.715062
      px      :     1.738627
      py      :     1.480984
      dz2     :     0.015597  d :     0.051843
      dxz     :     0.011928
      dyz     :     0.014919
      dx2y2   :     0.004524
      dxy     :     0.004876
 18 C s       :     2.962532  s :     2.962532
      pz      :     1.018607  p :     3.219684
      px      :     1.122531
      py      :     1.078546
      dz2     :     0.023088  d :     0.096322
      dxz     :     0.019692
      dyz     :     0.018974
      dx2y2   :     0.026182
      dxy     :     0.008386
 19 H s       :     0.855702  s :     0.855702
 20 H s       :     0.853869  s :     0.853869
 21 H s       :     0.866195  s :     0.866195
 22 C s       :     2.963202  s :     2.963202
      pz      :     1.038896  p :     3.221801
      px      :     1.044790
      py      :     1.138116
      dz2     :     0.011168  d :     0.095411
      dxz     :     0.029781
      dyz     :     0.022602
      dx2y2   :     0.009952
      dxy     :     0.021908
 23 H s       :     0.868019  s :     0.868019
 24 H s       :     0.853218  s :     0.853218
 25 H s       :     0.864015  s :     0.864015
 26 O s       :     3.571497  s :     3.571497
      pz      :     1.764535  p :     4.810244
      px      :     1.415885
      py      :     1.629825
      dz2     :     0.008680  d :     0.046125
      dxz     :     0.010374
      dyz     :     0.004248
      dx2y2   :     0.005712
      dxy     :     0.017111
 27 H s       :     0.666711  s :     0.666711
 28 H s       :     0.863267  s :     0.863267


                      *****************************
                      * MAYER POPULATION ANALYSIS *
                      *****************************

  NA   - Mulliken gross atomic population
  ZA   - Total nuclear charge
  QA   - Mulliken gross atomic charge
  VA   - Mayer's total valence
  BVA  - Mayer's bonded valence
  FA   - Mayer's free valence

  ATOM       NA         ZA         QA         VA         BVA        FA
  0 C      6.5588     6.0000    -0.5588     3.7826     3.7826     0.0000
  1 H      0.8134     1.0000     0.1866     0.9489     0.9489    -0.0000
  2 H      0.8204     1.0000     0.1796     0.9362     0.9362     0.0000
  3 H      0.8024     1.0000     0.1976     0.9239     0.9239    -0.0000
  4 C      5.4686     6.0000     0.5314     3.9642     3.9642     0.0000
  5 O      8.5371     8.0000    -0.5371     1.9981     1.9981    -0.0000
  6 N      7.3722     7.0000    -0.3722     3.1248     3.1248    -0.0000
  7 C      6.2816     6.0000    -0.2816     3.7867     3.7867     0.0000
  8 H      0.7919     1.0000     0.2081     0.9177     0.9177    -0.0000
  9 H      0.8008     1.0000     0.1992     0.9402     0.9402     0.0000
 10 C      5.7324     6.0000     0.2676     3.8700     3.8700     0.0000
 11 H      0.8448     1.0000     0.1552     0.9291     0.9291    -0.0000
 12 C      6.5042     6.0000    -0.5042     3.8038     3.8038     0.0000
 13 H      0.8210     1.0000     0.1790     0.9528     0.9528     0.0000
 14 H      0.8313     1.0000     0.1687     0.9372     0.9372    -0.0000
 15 C      5.4548     6.0000     0.5452     3.8931     3.8931    -0.0000
 16 N      7.3750     7.0000    -0.3750     3.1323     3.1323    -0.0000
 17 O      8.5258     8.0000    -0.5258     2.0302     2.0302     0.0000
 18 C      6.3378     6.0000    -0.3378     3.7860     3.7860     0.0000
 19 H      0.8183     1.0000     0.1817     0.9280     0.9280     0.0000
[...]
      2      -0.000035   0.000027  -0.000041
      3       0.000431  -0.000478  -0.000775
      4      -0.000376   0.000418  -0.000915
      5       0.000361  -0.000384   0.000650
      6      -0.000103  -0.000073  -0.000117
      7      -0.000309  -0.000100   0.000383
      8      -0.000005   0.000024  -0.000190
      9      -0.000020   0.000014  -0.000117
     10       0.000030  -0.000014   0.000093
     11       0.000078  -0.000034  -0.000191
     12      -0.000009  -0.000001   0.000046
     13       0.000023   0.000040   0.000029
     14      -0.000009  -0.000013  -0.000002
     15       0.000006  -0.000011  -0.000012
     16      -0.000008  -0.000030   0.000007
     17      -0.000002   0.000032  -0.000005
     18      -0.000020  -0.000001  -0.000088
     19      -0.000006   0.000049   0.000296
     20      -0.000001   0.000149   0.000004
     21      -0.000112   0.000465  -0.000008
     22       0.000359  -0.002800   0.000030
     23       0.000257  -0.002000   0.000073
     24       0.000516  -0.004958   0.000095
     25       0.001234  -0.010051   0.000055
     26      -0.001766   0.014348  -0.000280
     27       0.001815  -0.015202  -0.000148
     28      -0.005474   0.044944   0.000107
     29      -0.001814   0.015228  -0.000000
     30       0.000001  -0.000018   0.000325
     31      -0.000009  -0.000022  -0.001951
     32       0.000003   0.000008  -0.000917
     33       0.000027   0.000055  -0.005138
     34       0.000022   0.000029  -0.003171
     35      -0.000019  -0.000084  -0.000195
     36       0.000007   0.000033  -0.000353
     37      -0.000002  -0.000016   0.000154
     38       0.000006   0.000013  -0.000035
     39      -0.000121  -0.000263  -0.000889
     40       0.000017   0.000013  -0.001088
     41      -0.000046  -0.000119  -0.002811
     42       0.000020  -0.000032   0.000650
     43       0.000010  -0.000044   0.000543
     44      -0.000010   0.000053  -0.000005
     45       0.000246  -0.000158   0.000046
     46      -0.000407  -0.000226  -0.000005
     47      -0.001071  -0.000578  -0.000001
     48       0.000237  -0.000417  -0.000013
     49      -0.000085   0.000212   0.000003
     50      -0.000272   0.000698   0.000010
     51       0.000671   0.000193  -0.000013
     52       0.000220   0.000004   0.000015
     53       0.000594   0.000021   0.000001
     54       0.005892  -0.071380   0.000004
     55       0.001854  -0.020215  -0.000000
     56       0.004486  -0.048384   0.000004
     57      -0.005352   0.071907  -0.000017
     58      -0.009441   0.121234  -0.000012
     59       0.006545  -0.069140   0.000016
     60      -0.059912   0.707613   0.000008
     61      -0.021132   0.250736  -0.000006
     62      -0.051044   0.606076  -0.000012
     63      -0.006758   0.088178  -0.000015
     64       0.011411  -0.135740   0.000016
     65      -0.000824   0.021971   0.000007
     66       0.053016   0.004873   0.000000
     67      -0.021397  -0.001604   0.000007
     68      -0.069282  -0.005480   0.000006
     69      -0.112616  -0.009586  -0.000016
     70       0.150127   0.013026   0.000018
     71      -0.041432  -0.002510   0.000001
     72      -0.448692  -0.037988   0.000010
     73       0.250763   0.021049   0.000004
     74       0.807030   0.067920  -0.000010
     75      -0.086148  -0.007790  -0.000015
     76      -0.146408  -0.012616  -0.000007
     77       0.059593   0.006184   0.000003
     78      -0.000001  -0.000005   0.038855
     79       0.000004   0.000002  -0.048500
     80      -0.000002   0.000002  -0.000669
     81      -0.000011  -0.000013  -0.609237
     82       0.000009   0.000017   0.790154
     83      -0.000011  -0.000010   0.023856
     84       0.000001  -0.000114  -0.000388
     85       0.000030   0.000322  -0.000502
     86       0.000009  -0.000051   0.000557


-----------
IR SPECTRUM
-----------

 Mode   freq       eps      Int      T**2         TX        TY        TZ
       cm**-1   L/(mol*cm) km/mol    a.u.
----------------------------------------------------------------------------
  6:     17.37   0.000845    4.27  0.015182  (-0.057339 -0.101994  0.038619)
  7:     38.63   0.000124    0.63  0.001004  ( 0.020015 -0.024558  0.000862)
  8:     53.96   0.001205    6.09  0.006970  ( 0.054190  0.061035  0.017558)
  9:     77.51   0.001522    7.69  0.006127  (-0.028323  0.025748 -0.068280)
 10:    101.39   0.000785    3.97  0.002416  (-0.036444  0.032109 -0.007554)
 11:    103.16   0.000347    1.75  0.001050  ( 0.003079  0.018991  0.026072)
 12:    126.51   0.001104    5.58  0.002722  ( 0.033951  0.008945  0.038598)
 13:    139.29   0.000797    4.03  0.001786  ( 0.030480 -0.025945  0.013566)
 14:    182.46   0.010044   50.76  0.017178  (-0.060233 -0.042707  0.108286)
 15:    211.83   0.002393   12.09  0.003526  (-0.023324 -0.010704  0.053547)
 16:    222.09   0.022470  113.55  0.031573  ( 0.075249  0.066052 -0.146790)
 17:    241.24   0.001849    9.34  0.002392  ( 0.001264 -0.045487  0.017918)
 18:    249.95   0.003207   16.21  0.004004  ( 0.048518  0.012131 -0.038768)
 19:    268.00   0.000362    1.83  0.000422  (-0.010451  0.005522 -0.016799)
 20:    294.41   0.001002    5.07  0.001062  ( 0.001346 -0.024157  0.021842)
 21:    356.20   0.003289   16.62  0.002882  (-0.047460 -0.023930  0.007528)
 22:    386.03   0.002478   12.52  0.002003  (-0.034620  0.019200 -0.020885)
 23:    397.73   0.002250   11.37  0.001765  ( 0.025580  0.033330 -0.000281)
 24:    443.16   0.001498    7.57  0.001055  ( 0.028264  0.015458  0.004109)
 25:    459.13   0.000981    4.96  0.000667  (-0.003733 -0.006464 -0.024725)
 26:    501.57   0.005646   28.53  0.003513  (-0.048669 -0.010370  0.032200)
 27:    543.49   0.004083   20.63  0.002344  ( 0.021454  0.035437 -0.025063)
 28:    573.41   0.002430   12.28  0.001323  (-0.033805  0.001426  0.013339)
 29:    603.93   0.000744    3.76  0.000384  ( 0.013467 -0.014197 -0.001175)
 30:    625.35   0.006469   32.69  0.003228  ( 0.047508  0.004905  0.030774)
 31:    687.91   0.007972   40.29  0.003617  (-0.052218  0.026435 -0.013818)
 32:    736.58   0.000306    1.54  0.000129  ( 0.009539  0.001624  0.005987)
 33:    822.36   0.005245   26.50  0.001990  (-0.023446  0.012784  0.035736)
 34:    902.43   0.004012   20.28  0.001388  ( 0.026930  0.001267  0.025704)
 35:    957.44   0.010000   50.54  0.003259  ( 0.027834 -0.032562  0.037740)
 36:    974.39   0.001777    8.98  0.000569  (-0.009756 -0.014972  0.015800)
 37:   1023.85   0.003633   18.36  0.001107  (-0.022492  0.019949 -0.014265)
 38:   1035.53   0.008509   43.00  0.002564  (-0.019697  0.046638 -0.001139)
 39:   1071.41   0.002963   14.97  0.000863  (-0.005403 -0.000723 -0.028867)
 40:   1085.08   0.001511    7.64  0.000435  (-0.001632  0.007752  0.019284)
 41:   1094.53   0.000778    3.93  0.000222  (-0.009124 -0.011454  0.002725)
 42:   1130.40   0.040750  205.93  0.011250  ( 0.079765 -0.013879  0.068516)
 43:   1135.17   0.000080    0.40  0.000022  ( 0.003002 -0.002165  0.002872)
 44:   1154.82   0.006317   31.93  0.001707  ( 0.038450 -0.012309  0.008786)
 45:   1165.50   0.052375  264.68  0.014023  ( 0.117820  0.000766 -0.011883)
 46:   1183.65   0.000235    1.19  0.000062  (-0.004853  0.005729 -0.002357)
 47:   1218.93   0.007968   40.27  0.002040  ( 0.027191 -0.029930  0.020119)
 48:   1284.87   0.014338   72.46  0.003482  ( 0.054197  0.013713  0.018895)
 49:   1303.51   0.014571   73.64  0.003488  (-0.013013 -0.023328 -0.052676)
 50:   1325.12   0.044952  227.17  0.010586  (-0.066409 -0.068542  0.038446)
 51:   1385.79   0.012566   63.50  0.002830  ( 0.052210 -0.000204 -0.010186)
 52:   1386.83   0.006307   31.87  0.001419  ( 0.000967  0.026875  0.026380)
 53:   1400.75   0.019951  100.83  0.004445  (-0.005233 -0.066416  0.002527)
 54:   1417.45   0.038045  192.26  0.008376  (-0.036398 -0.075595  0.036558)
 55:   1426.09   0.012231   61.81  0.002676  (-0.010002  0.045716  0.022056)
 56:   1442.05   0.009448   47.74  0.002044  (-0.041571  0.002787  0.017567)
 57:   1452.91   0.014883   75.21  0.003197  ( 0.052542  0.015098  0.014423)
 58:   1471.11   0.004569   23.09  0.000969  (-0.024469  0.018527 -0.005226)
 59:   1490.20   0.000251    1.27  0.000053  ( 0.001591 -0.000965  0.007003)
 60:   1493.15   0.004581   23.15  0.000957  (-0.014928 -0.015828 -0.022003)
 61:   1498.49   0.000839    4.24  0.000175  (-0.007590  0.010682  0.001719)
 62:   1507.02   0.007997   40.41  0.001656  (-0.025431 -0.001309  0.031741)
 63:   1508.63   0.004267   21.56  0.000883  ( 0.020115  0.021860  0.000189)
 64:   1511.12   0.005622   28.41  0.001161  ( 0.002838  0.031422 -0.012865)
 65:   1518.60   0.001382    6.98  0.000284  ( 0.000849 -0.000897  0.016807)
 66:   1520.65   0.001908    9.64  0.000391  ( 0.001520  0.019279  0.004180)
 67:   1538.24   0.017868   90.30  0.003625  ( 0.039176  0.014197 -0.043459)
 68:   1558.14   0.018751   94.76  0.003755  (-0.060460 -0.009283 -0.003719)
 69:   1708.35   0.134445  679.43  0.024559  (-0.099886  0.117911  0.026052)
 70:   1720.37   0.080741  408.03  0.014646  (-0.059138 -0.031959  0.100633)
 71:   3040.24   0.005851   29.57  0.000601  ( 0.006062  0.008884  0.022019)
 72:   3045.40   0.021180  107.04  0.002170  ( 0.045207  0.000183 -0.011253)
 73:   3048.49   0.011137   56.28  0.001140  (-0.025126 -0.016595  0.015275)
 74:   3063.82   0.004896   24.74  0.000499  ( 0.008821 -0.020514 -0.000294)
 75:   3068.70   0.001262    6.38  0.000128  (-0.005979  0.002409  0.009313)
 76:   3089.73   0.015560   78.63  0.001572  (-0.002230  0.037300 -0.013240)
 77:   3094.66   0.002227   11.25  0.000225  (-0.012602  0.006516  0.004822)
 78:   3094.77   0.005095   25.75  0.000514  ( 0.013471  0.011857 -0.013844)
 79:   3136.37   0.005593   28.27  0.000557  ( 0.007180  0.022091 -0.004120)
 80:   3139.48   0.002726   13.77  0.000271  ( 0.004523 -0.006060  0.014620)
 81:   3148.55   0.000754    3.81  0.000075  (-0.006435  0.005752  0.000532)
 82:   3169.46   0.003412   17.24  0.000336  ( 0.014566  0.009274 -0.006143)
 83:   3190.80   0.000565    2.85  0.000055  ( 0.005955 -0.004185 -0.001509)
 84:   3193.79   0.000658    3.32  0.000064  ( 0.001118 -0.002610 -0.007497)
 85:   3200.99   0.002780   14.05  0.000271  (-0.012182 -0.004082 -0.010295)
 86:   3725.95   0.011659   58.92  0.000977  (-0.023968  0.019047 -0.006263)

* The epsilon (eps) is given for a Dirac delta lineshape.
** The dipole moment derivative (T) already includes vibrational overlap.

The first frequency considered to be a vibration is 6
The total number of vibrations considered is 81


--------------------------
THERMOCHEMISTRY AT 298.15K
--------------------------

Temperature         ... 298.15 K
Pressure            ... 1.00 atm
Total Mass          ... 188.23 AMU

Throughout the following assumptions are being made:
  (1) The electronic state is orbitally nondegenerate
  (2) There are no thermally accessible electronically excited states
  (3) Hindered rotations indicated by low frequency modes are not
      treated as such but are treated as vibrations and this may
      cause some error
  (4) All equations used are the standard statistical mechanics
      equations for an ideal gas
  (5) All vibrations are strictly harmonic

freq.      17.37  E(vib)   ...       0.57 
freq.      38.63  E(vib)   ...       0.54 
freq.      53.96  E(vib)   ...       0.52 
freq.      77.51  E(vib)   ...       0.49 
freq.     101.39  E(vib)   ...       0.46 
freq.     103.16  E(vib)   ...       0.46 
freq.     126.51  E(vib)   ...       0.43 
freq.     139.29  E(vib)   ...       0.42 
freq.     182.46  E(vib)   ...       0.37 
freq.     211.83  E(vib)   ...       0.34 
freq.     222.09  E(vib)   ...       0.33 
freq.     241.24  E(vib)   ...       0.31 
freq.     249.95  E(vib)   ...       0.31 
freq.     268.00  E(vib)   ...       0.29 
freq.     294.41  E(vib)   ...       0.27 
freq.     356.20  E(vib)   ...       0.22 
freq.     386.03  E(vib)   ...       0.20 
freq.     397.73  E(vib)   ...       0.20 
freq.     443.16  E(vib)   ...       0.17 
freq.     459.13  E(vib)   ...       0.16 
freq.     501.57  E(vib)   ...       0.14 
freq.     543.49  E(vib)   ...       0.12 
freq.     573.41  E(vib)   ...       0.11 
freq.     603.93  E(vib)   ...       0.10 
freq.     625.35  E(vib)   ...       0.09 
freq.     687.91  E(vib)   ...       0.07 
freq.     736.58  E(vib)   ...       0.06 
freq.     822.36  E(vib)   ...       0.05 
freq.     902.43  E(vib)   ...       0.03 
freq.     957.44  E(vib)   ...       0.03 
freq.     974.39  E(vib)   ...       0.03 
freq.    1023.85  E(vib)   ...       0.02 
freq.    1035.53  E(vib)   ...       0.02 
freq.    1071.41  E(vib)   ...       0.02 
freq.    1085.08  E(vib)   ...       0.02 
freq.    1094.53  E(vib)   ...       0.02 
freq.    1130.40  E(vib)   ...       0.01 
freq.    1135.17  E(vib)   ...       0.01 
freq.    1154.82  E(vib)   ...       0.01 
freq.    1165.50  E(vib)   ...       0.01 
freq.    1183.65  E(vib)   ...       0.01 
freq.    1218.93  E(vib)   ...       0.01 
freq.    1284.87  E(vib)   ...       0.01 
freq.    1303.51  E(vib)   ...       0.01 
freq.    1325.12  E(vib)   ...       0.01 
freq.    1385.79  E(vib)   ...       0.00 
freq.    1386.83  E(vib)   ...       0.00 
freq.    1400.75  E(vib)   ...       0.00 
freq.    1417.45  E(vib)   ...       0.00 
freq.    1426.09  E(vib)   ...       0.00 
freq.    1442.05  E(vib)   ...       0.00 
freq.    1452.91  E(vib)   ...       0.00 
freq.    1471.11  E(vib)   ...       0.00 
freq.    1490.20  E(vib)   ...       0.00 
freq.    1493.15  E(vib)   ...       0.00 
freq.    1498.49  E(vib)   ...       0.00 
freq.    1507.02  E(vib)   ...       0.00 
freq.    1508.63  E(vib)   ...       0.00 
freq.    1511.12  E(vib)   ...       0.00 
freq.    1518.60  E(vib)   ...       0.00 
freq.    1520.65  E(vib)   ...       0.00 
freq.    1538.24  E(vib)   ...       0.00 
freq.    1558.14  E(vib)   ...       0.00 
freq.    1708.35  E(vib)   ...       0.00 
freq.    1720.37  E(vib)   ...       0.00 
freq.    3040.24  E(vib)   ...       0.00 
freq.    3045.40  E(vib)   ...       0.00 
freq.    3048.49  E(vib)   ...       0.00 
freq.    3063.82  E(vib)   ...       0.00 
freq.    3068.70  E(vib)   ...       0.00 
freq.    3089.73  E(vib)   ...       0.00 
freq.    3094.66  E(vib)   ...       0.00 
freq.    3094.77  E(vib)   ...       0.00 
freq.    3136.37  E(vib)   ...       0.00 
freq.    3139.48  E(vib)   ...       0.00 
freq.    3148.55  E(vib)   ...       0.00 
freq.    3169.46  E(vib)   ...       0.00 
freq.    3190.80  E(vib)   ...       0.00 
freq.    3193.79  E(vib)   ...       0.00 
freq.    3200.99  E(vib)   ...       0.00 
freq.    3725.95  E(vib)   ...       0.00 

------------
INNER ENERGY
------------

The inner energy is: U= E(el) + E(ZPE) + E(vib) + E(rot) + E(trans)
    E(el)   - is the total energy from the electronic structure calculation
              = E(kin-el) + E(nuc-el) + E(el-el) + E(nuc-nuc)
    E(ZPE)  - the the zero temperature vibrational energy from the frequency calculation
    E(vib)  - the the finite temperature correction to E(ZPE) due to population
              of excited vibrational states
    E(rot)  - is the rotational thermal energy
    E(trans)- is the translational thermal energy

Summary of contributions to the inner energy U:
Electronic energy                ...   -649.34924981 Eh
Zero point energy                ...      0.24813450 Eh     155.71 kcal/mol
Thermal vibrational correction   ...      0.01294772 Eh       8.12 kcal/mol
Thermal rotational correction    ...      0.00141627 Eh       0.89 kcal/mol
Thermal translational correction ...      0.00141627 Eh       0.89 kcal/mol
-----------------------------------------------------------------------
Total thermal energy                   -649.08533505 Eh


Summary of corrections to the electronic energy:
(perhaps to be used in another calculation)
Total thermal correction                  0.01578026 Eh       9.90 kcal/mol
Non-thermal (ZPE) correction              0.24813450 Eh     155.71 kcal/mol
-----------------------------------------------------------------------
Total correction                          0.26391476 Eh     165.61 kcal/mol


--------
ENTHALPY
--------

The enthalpy is H = U + kB*T
                kB is Boltzmann's constant
Total free energy                 ...   -649.08533505 Eh 
Thermal Enthalpy correction       ...      0.00094421 Eh       0.59 kcal/mol
-----------------------------------------------------------------------
Total Enthalpy                    ...   -649.08439084 Eh


Note: Only C1 symmetry has been detected, increase convergence thresholds 
      if your molecule has a higher symmetry. Symmetry factor of 1.0 is   
      used for the rotational entropy correction. 
 

Note: Rotational entropy computed according to Herzberg 
Infrared and Raman Spectra, Chapter V,1, Van Nostrand Reinhold, 1945 
Point Group:  C1, Symmetry Number:   1  
Rotational constants in cm-1:     0.044016     0.015448     0.014409 

Vibrational entropy computed according to the QRRHO of S. Grimme
Chem.Eur.J. 2012 18 9955


-------
ENTROPY
-------

The entropy contributions are T*S = T*(S(el)+S(vib)+S(rot)+S(trans))
     S(el)   - electronic entropy
     S(vib)  - vibrational entropy
     S(rot)  - rotational entropy
     S(trans)- translational entropy
The entropies will be listed as multiplied by the temperature to get
units of energy

Electronic entropy                ...      0.00000000 Eh      0.00 kcal/mol
Vibrational entropy               ...      0.02352976 Eh     14.77 kcal/mol
Rotational entropy                ...      0.01495561 Eh      9.38 kcal/mol
Translational entropy             ...      0.01976700 Eh     12.40 kcal/mol
-----------------------------------------------------------------------
Final entropy term                ...      0.05825237 Eh     36.55 kcal/mol

In case the symmetry of your molecule has not been determined correctly
or in case you have a reason to use a different symmetry number we print 
out the resulting rotational entropy values for sn=1,12 :
 --------------------------------------------------------
|  sn= 1 | S(rot)=       0.01495561 Eh      9.38 kcal/mol|
|  sn= 2 | S(rot)=       0.01430115 Eh      8.97 kcal/mol|
|  sn= 3 | S(rot)=       0.01391832 Eh      8.73 kcal/mol|
|  sn= 4 | S(rot)=       0.01364669 Eh      8.56 kcal/mol|
|  sn= 5 | S(rot)=       0.01343601 Eh      8.43 kcal/mol|
|  sn= 6 | S(rot)=       0.01326386 Eh      8.32 kcal/mol|
|  sn= 7 | S(rot)=       0.01311831 Eh      8.23 kcal/mol|
|  sn= 8 | S(rot)=       0.01299224 Eh      8.15 kcal/mol|
|  sn= 9 | S(rot)=       0.01288103 Eh      8.08 kcal/mol|
|  sn=10 | S(rot)=       0.01278155 Eh      8.02 kcal/mol|
|  sn=11 | S(rot)=       0.01269156 Eh      7.96 kcal/mol|
|  sn=12 | S(rot)=       0.01260940 Eh      7.91 kcal/mol|
 --------------------------------------------------------


-------------------
GIBBS FREE ENERGY
-------------------

The Gibbs free energy is G = H - T*S

Total enthalpy                    ...   -649.08439084 Eh 
Total entropy correction          ...     -0.05825237 Eh    -36.55 kcal/mol
-----------------------------------------------------------------------
Final Gibbs free energy         ...   -649.14264321 Eh

For completeness - the Gibbs free energy minus the electronic energy
G-E(el)                           ...      0.20660660 Eh    129.65 kcal/mol


Timings for individual modules:

Sum of individual times         ...     2448.915 sec (=  40.815 min)
GTO integral calculation        ...       37.039 sec (=   0.617 min)   1.5 %
SCF iterations                  ...     1500.422 sec (=  25.007 min)  61.3 %
SCF Gradient evaluation         ...      495.530 sec (=   8.259 min)  20.2 %
Geometry relaxation             ...        2.741 sec (=   0.046 min)   0.1 %
Analytical frequency calculation...      413.185 sec (=   6.886 min)  16.9 %
                             ****ORCA TERMINATED NORMALLY****
TOTAL RUN TIME: 0 days 0 hours 41 minutes 3 seconds 834 msec
