
                                 *****************
                                 * O   R   C   A *
                                 *****************

                                            #,                                       
                                            ###                                      
                                            ####                                     
                                            #####                                    
                                            ######                                   
                                           ########,                                 
                                     ,,################,,,,,                         
                               ,,#################################,,                 
                          ,,##########################################,,             
                       ,#########################################, ''#####,          
                    ,#############################################,,   '####,        
                  ,##################################################,,,,####,       
                ,###########''''           ''''###############################       
              ,#####''   ,,,,##########,,,,          '''####'''          '####       
            ,##' ,,,,###########################,,,                        '##       
           ' ,,###''''                  '''############,,,                           
         ,,##''                                '''############,,,,        ,,,,,,###''
      ,#''                                            '''#######################'''  
     '                                                          ''''####''''         
             ,#######,   #######,   ,#######,      ##                                
            ,#'     '#,  ##    ##  ,#'     '#,    #''#        ######   ,####,        
            ##       ##  ##   ,#'  ##            #'  '#       #        #'  '#        
            ##       ##  #######   ##           ,######,      #####,   #    #        
            '#,     ,#'  ##    ##  '#,     ,#' ,#      #,         ##   #,  ,#        
             '#######'   ##     ##  '#######'  #'      '#     #####' # '####'        



                  #######################################################
                  #                        -***-                        #
                  #          Department of theory and spectroscopy      #
                  #    Directorship and core code : Frank Neese         #
                  #        Max Planck Institute fuer Kohlenforschung    #
                  #                Kaiser Wilhelm Platz 1               #
                  #                 D-45470 Muelheim/Ruhr               #
                  #                      Germany                        #
                  #                                                     #
                  #                  All rights reserved                #
                  #                        -***-                        #
                  #######################################################


                         Program Version 5.0.4 -  RELEASE  -


 With contributions from (in alphabetic order):
   Daniel Aravena         : Magnetic Suceptibility
   Michael Atanasov       : Ab Initio Ligand Field Theory (pilot matlab implementation)
   Alexander A. Auer      : GIAO ZORA, VPT2 properties, NMR spectrum
   Ute Becker             : Parallelization
   Giovanni Bistoni       : ED, misc. LED, open-shell LED, HFLD
   Martin Brehm           : Molecular dynamics
   Dmytro Bykov           : SCF Hessian
   Vijay G. Chilkuri      : MRCI spin determinant printing, contributions to CSF-ICE
   Dipayan Datta          : RHF DLPNO-CCSD density
   Achintya Kumar Dutta   : EOM-CC, STEOM-CC
   Dmitry Ganyushin       : Spin-Orbit,Spin-Spin,Magnetic field MRCI
   Miquel Garcia          : C-PCM and meta-GGA Hessian, CC/C-PCM, Gaussian charge scheme
   Yang Guo               : DLPNO-NEVPT2, F12-NEVPT2, CIM, IAO-localization
   Andreas Hansen         : Spin unrestricted coupled pair/coupled cluster methods
   Benjamin Helmich-Paris : MC-RPA, TRAH-SCF, COSX integrals
   Lee Huntington         : MR-EOM, pCC
   Robert Izsak           : Overlap fitted RIJCOSX, COSX-SCS-MP3, EOM
   Marcus Kettner         : VPT2
   Christian Kollmar      : KDIIS, OOCD, Brueckner-CCSD(T), CCSD density, CASPT2, CASPT2-K
   Simone Kossmann        : Meta GGA functionals, TD-DFT gradient, OOMP2, MP2 Hessian
   Martin Krupicka        : Initial AUTO-CI
   Lucas Lang             : DCDCAS
   Marvin Lechner         : AUTO-CI (C++ implementation), FIC-MRCC
   Dagmar Lenk            : GEPOL surface, SMD
   Dimitrios Liakos       : Extrapolation schemes; Compound Job, initial MDCI parallelization
   Dimitrios Manganas     : Further ROCIS development; embedding schemes
   Dimitrios Pantazis     : SARC Basis sets
   Anastasios Papadopoulos: AUTO-CI, single reference methods and gradients
   Taras Petrenko         : DFT Hessian,TD-DFT gradient, ASA, ECA, R-Raman, ABS, FL, XAS/XES, NRVS
   Peter Pinski           : DLPNO-MP2, DLPNO-MP2 Gradient
   Christoph Reimann      : Effective Core Potentials
   Marius Retegan         : Local ZFS, SOC
   Christoph Riplinger    : Optimizer, TS searches, QM/MM, DLPNO-CCSD(T), (RO)-DLPNO pert. Triples
   Tobias Risthaus        : Range-separated hybrids, TD-DFT gradient, RPA, STAB
   Michael Roemelt        : Original ROCIS implementation
   Masaaki Saitow         : Open-shell DLPNO-CCSD energy and density
   Barbara Sandhoefer     : DKH picture change effects
   Avijit Sen             : IP-ROCIS
   Kantharuban Sivalingam : CASSCF convergence, NEVPT2, FIC-MRCI
   Bernardo de Souza      : ESD, SOC TD-DFT
   Georgi Stoychev        : AutoAux, RI-MP2 NMR, DLPNO-MP2 response
   Willem Van den Heuvel  : Paramagnetic NMR
   Boris Wezisla          : Elementary symmetry handling
   Frank Wennmohs         : Technical directorship


 We gratefully acknowledge several colleagues who have allowed us to
 interface, adapt or use parts of their codes:
   Stefan Grimme, W. Hujo, H. Kruse, P. Pracht,  : VdW corrections, initial TS optimization,
                  C. Bannwarth, S. Ehlert          DFT functionals, gCP, sTDA/sTD-DF
   Ed Valeev, F. Pavosevic, A. Kumar             : LibInt (2-el integral package), F12 methods
   Garnet Chan, S. Sharma, J. Yang, R. Olivares  : DMRG
   Ulf Ekstrom                                   : XCFun DFT Library
   Mihaly Kallay                                 : mrcc  (arbitrary order and MRCC methods)
   Jiri Pittner, Ondrej Demel                    : Mk-CCSD
   Frank Weinhold                                : gennbo (NPA and NBO analysis)
   Christopher J. Cramer and Donald G. Truhlar   : smd solvation model
   Lars Goerigk                                  : TD-DFT with DH, B97 family of functionals
   V. Asgeirsson, H. Jonsson                     : NEB implementation
   FAccTs GmbH                                   : IRC, NEB, NEB-TS, DLPNO-Multilevel, CI-OPT
                                                   MM, QMMM, 2- and 3-layer-ONIOM, Crystal-QMMM,
                                                   LR-CPCM, SF, NACMEs, symmetry and pop. for TD-DFT,
                                                   nearIR, NL-DFT gradient (VV10), updates on ESD,
                                                   ML-optimized integration grids
   S Lehtola, MJT Oliveira, MAL Marques          : LibXC Library
   Liviu Ungur et al                             : ANISO software


 Your calculation uses the libint2 library for the computation of 2-el integrals
 For citations please refer to: http://libint.valeyev.net

 Your ORCA version has been built with support for libXC version: 5.1.0
 For citations please refer to: https://tddft.org/programs/libxc/

 This ORCA versions uses:
   CBLAS   interface :  Fast vector & matrix operations
   LAPACKE interface :  Fast linear algebra routines
   SCALAPACK package :  Parallel linear algebra routines
   Shared memory     :  Shared parallel matrices
   BLAS/LAPACK       :  OpenBLAS 0.3.15  USE64BITINT DYNAMIC_ARCH NO_AFFINITY SkylakeX SINGLE_THREADED
        Core in use  :  SkylakeX
   Copyright (c) 2011-2014, The OpenBLAS Project




***************************************
The coordinates will be read from file: /users/fjb15167/WWenergy/structures/Ny.xyz
***************************************


Your calculation utilizes the atom-pairwise dispersion correction
based on tight binding partial charges (D4)
Cite in your paper:
E.Caldeweyher, C.Bannwarth, S.Grimme, J.Chem.Phys., (2017), 147, 034112.
E.Caldeweyher, S.Ehlert, A.Hansen, H.Neugebauer, S.Grimme, J.Chem.Phys., (2018), in progress.
   

================================================================================

----- Orbital basis set information -----
Your calculation utilizes the basis: 6-31G(d)
   H-He, Li-Ne : W. J. Hehre, R. Ditchfield and J.A. Pople, J. Chem. Phys. 56, 2257 (1972).
                 Note: He and Ne are unpublished basis sets taken from the Gaussian program.
                 Note: Li and B from J. D. Dill and J. A. Pople, J. Chem. Phys. 62, 2921 (1975).
   Na - Ar     : M. M. Francl, W. J. Pietro, W. J. Hehre, J. S. Binkley, M. S. Gordon, 
                 D. J. DeFrees and J. A. Pople, J. Chem. Phys. 77, 3654 (1982).
   K - Zn      : V. A. Rassolov, J. A. Pople, M. A. Ratner, and T. L. Windus, J. Chem. Phys. 109, 1223 (1998).

----- AuxJ basis set information -----
Your calculation utilizes the AutoAux generation procedure.
  G. L. Stoychev, A. A. Auer, F. Neese, J. Chem. Theory Comput. 13, 554 (2017)

----- AuxC basis set information -----
Your calculation utilizes the AutoAux generation procedure.
  G. L. Stoychev, A. A. Auer, F. Neese, J. Chem. Theory Comput. 13, 554 (2017)

----- AuxJK basis set information -----
Your calculation utilizes the AutoAux generation procedure.
  G. L. Stoychev, A. A. Auer, F. Neese, J. Chem. Theory Comput. 13, 554 (2017)

================================================================================
                                        WARNINGS
                       Please study these warnings very carefully!
================================================================================


WARNING: Geometry Optimization
  ===> : Switching off AutoStart
         For restart on a previous wavefunction, please use MOREAD

INFO   : the flag for use of the SHARK integral package has been found!

================================================================================
                                       INPUT FILE
================================================================================
NAME = Ny_gas.inp
|  1> ! OPT FREQ B3LYP 6-31G(d) D4 AUTOAUX
|  2> 
|  3> %PAL NPROCS 4 END
|  4> 
|  5> %maxcore 3375
|  6> 
|  7> *xyzfile 0 1 /users/fjb15167/WWenergy/structures/Ny.xyz
|  8> 
|  9>                          ****END OF INPUT****
================================================================================

                       *****************************
                       * Geometry Optimization Run *
                       *****************************

Geometry optimization settings:
Update method            Update   .... BFGS
Choice of coordinates    CoordSys .... Z-matrix Internals
Initial Hessian          InHess   .... Almoef's Model

Convergence Tolerances:
Energy Change            TolE     ....  5.0000e-06 Eh
Max. Gradient            TolMAXG  ....  3.0000e-04 Eh/bohr
RMS Gradient             TolRMSG  ....  1.0000e-04 Eh/bohr
Max. Displacement        TolMAXD  ....  4.0000e-03 bohr
RMS Displacement         TolRMSD  ....  2.0000e-03 bohr
Strict Convergence                ....  False
------------------------------------------------------------------------------
                        ORCA OPTIMIZATION COORDINATE SETUP
------------------------------------------------------------------------------

The optimization will be done in new redundant internal coordinates
Making redundant internal coordinates   ...  (new redundants) done
Evaluating the initial hessian          ...  (Almloef) done
Evaluating the coordinates              ...  done
Calculating the B-matrix                .... done
Calculating the G-matrix                .... done
Diagonalizing the G-matrix              .... done
Small eigenvalue found = 3.011e-03
Small eigenvalue found = 4.839e-03
Small eigenvalue found = 9.738e-03
Small eigenvalue found = 1.374e-02
Small eigenvalue found = 1.916e-02
Small eigenvalue found = 2.808e-02
The first mode is                       ....   71
The number of degrees of freedom        ....  102

    -----------------------------------------------------------------
                    Redundant Internal Coordinates


    -----------------------------------------------------------------
         Definition                    Initial Value    Approx d2E/dq
    -----------------------------------------------------------------
      1. B(O   4,C   0)                  1.2190         1.048743   
      2. B(C   5,H   3)                  1.0903         0.359672   
      3. B(C   5,H   2)                  1.0930         0.356204   
      4. B(C   5,H   1)                  1.0919         0.357603   
      5. B(C   5,C   0)                  1.5308         0.372499   
      6. B(N   6,C   0)                  1.3797         0.581141   
      7. B(C   7,N   6)                  1.4621         0.429335   
      8. B(H   8,C   7)                  1.0949         0.353740   
      9. B(H   9,C   7)                  1.0896         0.360656   
     10. B(C  10,N   6)                  1.4661         0.423142   
     11. B(H  11,C  10)                  1.0998         0.347328   
     12. B(H  12,C  10)                  1.0951         0.353443   
     13. B(C  13,C  10)                  1.5113         0.400133   
     14. B(C  14,C  13)                  1.3997         0.602949   
     15. B(H  15,C  14)                  1.0898         0.360342   
     16. B(C  16,C  14)                  1.3929         0.618153   
     17. B(H  17,C  16)                  1.0862         0.365219   
     18. B(C  18,C  16)                  1.3967         0.609690   
     19. B(O  19,C  18)                  1.3736         0.594359   
     20. B(H  20,O  19)                  0.9730         0.495637   
     21. B(C  21,C  13)                  1.3986         0.605353   
     22. B(H  22,C  21)                  1.0866         0.364583   
     23. B(C  23,C  21)                  1.3945         0.614537   
     24. B(C  23,C  18)                  1.3991         0.604271   
     25. B(H  24,C  23)                  1.0902         0.359806   
     26. B(C  25,C   7)                  1.5248         0.380780   
     27. B(O  26,C  25)                  1.2403         0.969852   
     28. B(N  27,C  25)                  1.3675         0.607714   
     29. B(C  28,N  27)                  1.4548         0.441063   
     30. B(H  29,C  28)                  1.0962         0.352008   
     31. B(H  30,C  28)                  1.0881         0.362676   
     32. B(H  31,C  28)                  1.0956         0.352752   
     33. B(C  32,N  27)                  1.4548         0.441087   
     34. B(H  33,C  32)                  1.0970         0.350900   
     35. B(H  34,C  32)                  1.0968         0.351256   
     36. B(H  35,C  32)                  1.0875         0.363367   
     37. A(O   4,C   0,N   6)          123.0334         0.465730   
     38. A(C   5,C   0,N   6)          115.6043         0.389518   
     39. A(O   4,C   0,C   5)          121.3542         0.432479   
     40. A(H   1,C   5,H   2)          107.6268         0.290026   
     41. A(H   1,C   5,H   3)          109.6035         0.290468   
     42. A(C   0,C   5,H   2)          112.4838         0.323587   
     43. A(H   2,C   5,H   3)          109.5206         0.290289   
     44. A(C   0,C   5,H   3)          106.6049         0.324102   
     45. A(C   0,C   5,H   1)          110.9858         0.323795   
     46. A(C   7,N   6,C  10)          116.5319         0.375452   
     47. A(C   0,N   6,C  10)          124.5531         0.395770   
     48. A(C   0,N   6,C   7)          117.7844         0.396780   
     49. A(H   8,C   7,H   9)          108.8564         0.290097   
     50. A(N   6,C   7,H   9)          107.7761         0.329932   
     51. A(H   9,C   7,C  25)          113.9072         0.325421   
     52. A(N   6,C   7,C  25)          110.8882         0.371015   
     53. A(H   8,C   7,C  25)          105.4521         0.324387   
     54. A(N   6,C   7,H   8)          109.9119         0.328879   
     55. A(H  12,C  10,C  13)          109.2654         0.326998   
     56. A(H  11,C  10,C  13)          109.8076         0.326060   
     57. A(N   6,C  10,C  13)          114.0601         0.373261   
     58. A(H  11,C  10,H  12)          106.8957         0.288353   
     59. A(N   6,C  10,H  12)          105.9474         0.328046   
     60. A(N   6,C  10,H  11)          110.5505         0.327103   
     61. A(C  10,C  13,C  21)          120.7734         0.399818   
     62. A(C  10,C  13,C  14)          120.4819         0.399538   
     63. A(C  14,C  13,C  21)          118.6526         0.430044   
     64. A(H  15,C  14,C  16)          119.0811         0.352771   
     65. A(C  13,C  14,C  16)          121.2094         0.431663   
     66. A(C  13,C  14,H  15)          119.7024         0.351288   
     67. A(H  17,C  16,C  18)          118.9047         0.352751   
     68. A(C  14,C  16,C  18)          119.5436         0.432527   
     69. A(C  14,C  16,H  17)          121.5517         0.353575   
     70. A(C  16,C  18,O  19)          117.0643         0.426687   
     71. A(O  19,C  18,C  23)          122.9873         0.426005   
     72. A(C  16,C  18,C  23)          119.9445         0.430765   
     73. A(C  18,O  19,H  20)          108.4939         0.364439   
     74. A(H  22,C  21,C  23)          119.7861         0.353119   
     75. A(C  13,C  21,C  23)          120.6957         0.431517   
     76. A(C  13,C  21,H  22)          119.5118         0.352221   
     77. A(C  21,C  23,H  24)          119.9952         0.352332   
     78. A(C  18,C  23,H  24)          120.0544         0.351330   
     79. A(C  18,C  23,C  21)          119.9426         0.431378   
     80. A(O  26,C  25,N  27)          122.7532         0.462885   
     81. A(C   7,C  25,N  27)          118.1270         0.394089   
     82. A(C   7,C  25,O  26)          119.0443         0.428137   
     83. A(C  25,N  27,C  32)          125.8056         0.401817   
     84. A(C  28,N  27,C  32)          115.4078         0.379927   
     85. A(C  25,N  27,C  28)          118.6973         0.401813   
     86. A(H  30,C  28,H  31)          109.8468         0.290224   
     87. A(H  29,C  28,H  31)          108.5968         0.288869   
     88. A(N  27,C  28,H  31)          110.1721         0.330194   
     89. A(H  29,C  28,H  30)          109.8963         0.290128   
     90. A(N  27,C  28,H  30)          108.4004         0.331713   
     91. A(N  27,C  28,H  29)          109.9232         0.330079   
     92. A(H  34,C  32,H  35)          109.2237         0.290117   
     93. A(H  33,C  32,H  35)          108.1780         0.290071   
     94. A(N  27,C  32,H  35)          112.0300         0.331821   
     95. A(H  33,C  32,H  34)          108.0817         0.288534   
     96. A(N  27,C  32,H  34)          110.0269         0.329965   
     97. A(N  27,C  32,H  33)          109.2024         0.329909   
     98. D(H   3,C   5,C   0,O   4)      8.8029         0.010381   
     99. D(H   1,C   5,C   0,N   6)     68.5001         0.010381   
    100. D(H   1,C   5,C   0,O   4)   -110.4962         0.010381   
    101. D(H   2,C   5,C   0,O   4)    128.8554         0.010381   
    102. D(H   3,C   5,C   0,N   6)   -172.2008         0.010381   
    103. D(H   2,C   5,C   0,N   6)    -52.1482         0.010381   
    104. D(C   7,N   6,C   0,O   4)     -9.0472         0.027094   
    105. D(C  10,N   6,C   0,C   5)      4.5817         0.027094   
    106. D(C  10,N   6,C   0,O   4)   -176.4406         0.027094   
    107. D(C   7,N   6,C   0,C   5)    171.9752         0.027094   
    108. D(H   9,C   7,N   6,C  10)    169.8643         0.015715   
    109. D(H   9,C   7,N   6,C   0)      1.4547         0.015715   
    110. D(H   8,C   7,N   6,C  10)     51.3672         0.015715   
    111. D(H   8,C   7,N   6,C   0)   -117.0424         0.015715   
    112. D(C  25,C   7,N   6,C   0)    126.7551         0.015715   
    113. D(C  25,C   7,N   6,C  10)    -64.8353         0.015715   
    114. D(C  13,C  10,N   6,C   7)    124.6597         0.015266   
    115. D(C  13,C  10,N   6,C   0)    -67.8040         0.015266   
    116. D(H  12,C  10,N   6,C   7)      4.4355         0.015266   
    117. D(H  11,C  10,N   6,C   7)   -111.0277         0.015266   
    118. D(H  11,C  10,N   6,C   0)     56.5086         0.015266   
    119. D(H  12,C  10,N   6,C   0)    171.9718         0.015266   
    120. D(C  21,C  13,C  10,H  12)     74.3080         0.011882   
    121. D(C  21,C  13,C  10,N   6)    -44.0384         0.011882   
    122. D(C  14,C  13,C  10,H  12)   -102.1558         0.011882   
    123. D(C  14,C  13,C  10,H  11)     14.7880         0.011882   
    124. D(C  14,C  13,C  10,N   6)    139.4978         0.011882   
    125. D(C  21,C  13,C  10,H  11)   -168.7481         0.011882   
    126. D(C  16,C  14,C  13,C  10)    177.2796         0.025075   
    127. D(H  15,C  14,C  13,C  21)    179.7574         0.025075   
    128. D(H  15,C  14,C  13,C  10)     -3.7047         0.025075   
    129. D(C  16,C  14,C  13,C  21)      0.7417         0.025075   
    130. D(C  18,C  16,C  14,H  15)   -179.4372         0.026432   
    131. D(H  17,C  16,C  14,H  15)      0.6394         0.026432   
    132. D(C  18,C  16,C  14,C  13)     -0.4155         0.026432   
    133. D(H  17,C  16,C  14,C  13)    179.6611         0.026432   
    134. D(C  23,C  18,C  16,H  17)   -179.6108         0.025671   
    135. D(C  23,C  18,C  16,C  14)      0.4637         0.025671   
    136. D(O  19,C  18,C  16,H  17)     -0.3142         0.025671   
    137. D(O  19,C  18,C  16,C  14)    179.7603         0.025671   
    138. D(H  20,O  19,C  18,C  23)     -1.1991         0.025769   
    139. D(H  20,O  19,C  18,C  16)    179.5276         0.025769   
    140. D(C  23,C  21,C  13,C  14)     -1.1314         0.025287   
    141. D(C  23,C  21,C  13,C  10)   -177.6588         0.025287   
    142. D(H  22,C  21,C  13,C  14)    179.7918         0.025287   
    143. D(H  22,C  21,C  13,C  10)      3.2644         0.025287   
    144. D(H  24,C  23,C  21,H  22)     -0.7490         0.026105   
    145. D(H  24,C  23,C  21,C  13)   -179.8232         0.026105   
    146. D(C  18,C  23,C  21,H  22)   -179.7266         0.026105   
    147. D(C  18,C  23,C  21,C  13)      1.1992         0.026105   
    148. D(H  24,C  23,C  18,O  19)      0.9157         0.025192   
    149. D(H  24,C  23,C  18,C  16)   -179.8311         0.025192   
    150. D(C  21,C  23,C  18,O  19)    179.8927         0.025192   
    151. D(C  21,C  23,C  18,C  16)     -0.8540         0.025192   
    152. D(N  27,C  25,C   7,H   9)     44.7130         0.010817   
    153. D(N  27,C  25,C   7,H   8)    164.0091         0.010817   
    154. D(N  27,C  25,C   7,N   6)    -77.0639         0.010817   
    155. D(O  26,C  25,C   7,H   9)   -138.3587         0.010817   
    156. D(O  26,C  25,C   7,H   8)    -19.0625         0.010817   
    157. D(O  26,C  25,C   7,N   6)     99.8644         0.010817   
    158. D(C  32,N  27,C  25,C   7)     -4.8506         0.029814   
    159. D(C  28,N  27,C  25,O  26)      1.9465         0.029814   
    160. D(C  28,N  27,C  25,C   7)    178.7533         0.029814   
    161. D(C  32,N  27,C  25,O  26)    178.3426         0.029814   
    162. D(H  31,C  28,N  27,C  32)    -59.8440         0.016589   
    163. D(H  31,C  28,N  27,C  25)    116.9207         0.016589   
    164. D(H  30,C  28,N  27,C  32)    179.9313         0.016589   
    165. D(H  30,C  28,N  27,C  25)     -3.3040         0.016589   
    166. D(H  29,C  28,N  27,C  32)     59.7948         0.016589   
    167. D(H  29,C  28,N  27,C  25)   -123.4405         0.016589   
    168. D(H  35,C  32,N  27,C  28)   -175.8464         0.016591   
    169. D(H  35,C  32,N  27,C  25)      7.6532         0.016591   
    170. D(H  34,C  32,N  27,C  28)     62.4490         0.016591   
    171. D(H  34,C  32,N  27,C  25)   -114.0515         0.016591   
    172. D(H  33,C  32,N  27,C  28)    -56.0250         0.016591   
    173. D(H  33,C  32,N  27,C  25)    127.4745         0.016591   
    -----------------------------------------------------------------

Number of atoms                         .... 36
Number of degrees of freedom            .... 173

         *************************************************************
         *                GEOMETRY OPTIMIZATION CYCLE   1            *
         *************************************************************
---------------------------------
CARTESIAN COORDINATES (ANGSTROEM)
---------------------------------
  C     -1.934000   -1.617000    1.162000
  H      0.118000   -2.222000    1.557000
  H     -0.800000   -3.426000    0.653000
  H     -1.153000   -3.163000    2.381000
  O     -2.785000   -1.335000    1.988000
  C     -0.868000   -2.678000    1.447000
  N     -1.847000   -1.000000   -0.069000
  C     -2.939000   -0.112000   -0.465000
  H     -3.436000   -0.507000   -1.357000
  H     -3.657000   -0.082000    0.354000
  C     -0.886000   -1.363000   -1.115000
  H     -0.983000   -2.427000   -1.376000
  H     -1.176000   -0.790000   -2.002000
  C      0.551000   -1.050000   -0.767000
  C      1.573000   -1.948000   -1.096000
  H      1.324000   -2.906000   -1.552000
  C      2.908000   -1.650000   -0.833000
  H      3.705000   -2.345000   -1.081000
  C      3.237000   -0.430000   -0.238000
  O      4.568000   -0.191000    0.003000
  H      4.655000    0.689000    0.409000
  C      0.895000    0.171000   -0.178000
  H      0.113000    0.880000    0.080000
  C      2.227000    0.478000    0.098000
  H      2.482000    1.432000    0.560000
  C     -2.406000    1.258000   -0.870000
  O     -2.275000    1.521000   -2.075000
  N     -2.032000    2.123000    0.121000
  C     -1.496000    3.423000   -0.252000
  H     -0.502000    3.558000    0.190000
  H     -1.428000    3.468000   -1.337000
  H     -2.152000    4.221000    0.113000
  C     -2.186000    1.898000    1.550000
  H     -1.220000    2.054000    2.046000
  H     -2.903000    2.615000    1.968000
  H     -2.521000    0.887000    1.770000

----------------------------
CARTESIAN COORDINATES (A.U.)
----------------------------
  NO LB      ZA    FRAG     MASS         X           Y           Z
   0 C     6.0000    0    12.011   -3.654730   -3.055687    2.195862
   1 H     1.0000    0     1.008    0.222988   -4.198971    2.942304
   2 H     1.0000    0     1.008   -1.511781   -6.474202    1.233991
   3 H     1.0000    0     1.008   -2.178854   -5.977204    4.499438
   4 O     8.0000    0    15.999   -5.262887   -2.522784    3.756776
   5 C     6.0000    0    12.011   -1.640282   -5.060687    2.734434
   6 N     7.0000    0    14.007   -3.490324   -1.889726   -0.130391
   7 C     6.0000    0    12.011   -5.553905   -0.211649   -0.878723
   8 H     1.0000    0     1.008   -6.493099   -0.958091   -2.564358
   9 H     1.0000    0     1.008   -6.910728   -0.154958    0.668963
  10 C     6.0000    0    12.011   -1.674297   -2.575697   -2.107045
  11 H     1.0000    0     1.008   -1.857601   -4.586365   -2.600263
  12 H     1.0000    0     1.008   -2.222318   -1.492884   -3.783232
  13 C     6.0000    0    12.011    1.041239   -1.984212   -1.449420
  14 C     6.0000    0    12.011    2.972539   -3.681187   -2.071140
  15 H     1.0000    0     1.008    2.501997   -5.491544   -2.932855
  16 C     6.0000    0    12.011    5.495324   -3.118048   -1.574142
  17 H     1.0000    0     1.008    7.001435   -4.431408   -2.042794
  18 C     6.0000    0    12.011    6.117043   -0.812582   -0.449755
  19 O     8.0000    0    15.999    8.632269   -0.360938    0.005669
  20 H     1.0000    0     1.008    8.796675    1.302021    0.772898
  21 C     6.0000    0    12.011    1.691305    0.323143   -0.336371
  22 H     1.0000    0     1.008    0.213539    1.662959    0.151178
  23 C     6.0000    0    12.011    4.208420    0.903289    0.185193
  24 H     1.0000    0     1.008    4.690300    2.706088    1.058247
  25 C     6.0000    0    12.011   -4.546681    2.377275   -1.644062
  26 O     8.0000    0    15.999   -4.299127    2.874273   -3.921182
  27 N     7.0000    0    14.007   -3.839924    4.011889    0.228657
  28 C     6.0000    0    12.011   -2.827030    6.468533   -0.476211
  29 H     1.0000    0     1.008   -0.948643    6.723646    0.359048
  30 H     1.0000    0     1.008   -2.698529    6.553570   -2.526564
  31 H     1.0000    0     1.008   -4.066691    7.976534    0.213539
  32 C     6.0000    0    12.011   -4.130941    3.586700    2.929076
  33 H     1.0000    0     1.008   -2.305466    3.881497    3.866380
  34 H     1.0000    0     1.008   -5.485875    4.941634    3.718981
  35 H     1.0000    0     1.008   -4.764000    1.676187    3.344815

--------------------------------
INTERNAL COORDINATES (ANGSTROEM)
--------------------------------
 C      0   0   0     0.000000000000     0.00000000     0.00000000
 H      1   0   0     2.175489370234     0.00000000     0.00000000
 H      2   1   0     1.763393319711    66.78149163     0.00000000
 H      3   2   1     1.783188716878    60.36797323   287.98977477
 O      1   2   3     1.219016406780   126.85417235   120.96478273
 C      4   3   2     1.090323805115    35.28857726    36.39078168
 N      1   2   3     1.379716999968   103.11369159   271.90707301
 C      7   1   2     1.462129953185   117.78440683   198.57029400
 H      8   7   1     1.094850674750   109.91186373   242.95758370
 H      8   7   1     1.089580194387   107.77606914     1.45471955
 C      7   1   2     1.466085263551   124.55312644    31.17683099
 H     11   7   1     1.099829986862   110.55050181    56.50863546
 H     11   7   1     1.095078992585   105.94739833   171.97179136
 C     11   7   1     1.511304734327   114.06010719   292.19600722
 C     14  11   7     1.399688894005   120.48187760   139.49776791
 H     15  14  11     1.089816957108   119.70237930   356.29527746
 C     15  14  11     1.392909903763   121.20936453   177.27957199
 H     17  15  14     1.086157447150   121.55165921   179.66107497
 C     17  15  14     1.396662450272   119.54355669   359.58452702
 O     19  17  15     1.373594918453   117.06426205   179.76032831
 H     20  19  17     0.973039053687   108.49393430   179.52757330
 C     14  11   7     1.398605734294   120.77343316   315.96162350
 H     22  14  11     1.086631952411   119.51180879     3.26443389
 C     22  14  11     1.394506722824   120.69569226   182.34115623
 H     24  22  14     1.090222454364   119.99515797   180.17681020
 C      8   7   1     1.524799658972   110.88824273   126.75509856
 O     26   8   7     1.240304398122   119.04429249    99.86442873
 N     26   8   7     1.367545977289   118.12701476   282.93610740
 C     28  26   8     1.454793799822   118.69729449   178.75329735
 H     29  28  26     1.096186571711   109.92315980   236.55947659
 H     29  28  26     1.088059741007   108.40043220   356.69595469
 H     29  28  26     1.095611701288   110.17211637   116.92074672
 C     28  26   8     1.454779021020   125.80561205   355.14944842
 H     33  28  26     1.097045122135   109.20237858   127.47451978
 H     33  28  26     1.096768890879   110.02685084   245.94854544
 H     33  28  26     1.087541263585   112.02999377     7.65318024

---------------------------
INTERNAL COORDINATES (A.U.)
---------------------------
 C      0   0   0     0.000000000000     0.00000000     0.00000000
 H      1   0   0     4.111079116999     0.00000000     0.00000000
 H      2   1   0     3.332330440639    66.78149163     0.00000000
 H      3   2   1     3.369738319997    60.36797323   287.98977477
 O      1   2   3     2.303607161572   126.85417235   120.96478273
 C      4   3   2     2.060413388962    35.28857726    36.39078168
 N      1   2   3     2.607287272254   103.11369159   271.90707301
 C      7   1   2     2.763025183722   117.78440683   198.57029400
 H      8   7   1     2.068967932816   109.91186373   242.95758370
 H      8   7   1     2.059008168336   107.77606914     1.45471955
 C      7   1   2     2.770499637088   124.55312644    31.17683099
 H     11   7   1     2.078377469043   110.55050181    56.50863546
 H     11   7   1     2.069399390995   105.94739833   171.97179136
 C     11   7   1     2.855952052777   114.06010719   292.19600722
 C     14  11   7     2.645028682360   120.48187760   139.49776791
 H     15  14  11     2.059455585037   119.70237930   356.29527746
 C     15  14  11     2.632218247338   121.20936453   177.27957199
 H     17  15  14     2.052540113433   121.55165921   179.66107497
 C     17  15  14     2.639309532546   119.54355669   359.58452702
 O     19  17  15     2.595718214822   117.06426205   179.76032831
 H     20  19  17     1.838777329078   108.49393430   179.52757330
 C     14  11   7     2.642981807147   120.77343316   315.96162350
 H     22  14  11     2.053436798424   119.51180879     3.26443389
 C     22  14  11     2.635235798048   120.69569226   182.34115623
 H     24  22  14     2.060221863800   119.99515797   180.17681020
 C      8   7   1     2.881453764553   110.88824273   126.75509856
 O     26   8   7     2.343835635148   119.04429249    99.86442873
 N     26   8   7     2.584287372622   118.12701476   282.93610740
 C     28  26   8     2.749161862990   118.69729449   178.75329735
 H     29  28  26     2.071492412216   109.92315980   236.55947659
 H     29  28  26     2.056134927848   108.40043220   356.69595469
 H     29  28  26     2.070406064555   110.17211637   116.92074672
 C     28  26   8     2.749133935102   125.80561205   355.14944842
 H     33  28  26     2.073114837389   109.20237858   127.47451978
 H     33  28  26     2.072592835966   110.02685084   245.94854544
 H     33  28  26     2.055155147514   112.02999377     7.65318024

---------------------
BASIS SET INFORMATION
---------------------
There are 4 groups of distinct atoms

 Group   1 Type C   : 10s4p1d contracted to 3s2p1d pattern {631/31/1}
 Group   2 Type H   : 4s contracted to 2s pattern {31}
 Group   3 Type O   : 10s4p1d contracted to 3s2p1d pattern {631/31/1}
 Group   4 Type N   : 10s4p1d contracted to 3s2p1d pattern {631/31/1}

Atom   0C    basis set group =>   1
Atom   1H    basis set group =>   2
Atom   2H    basis set group =>   2
Atom   3H    basis set group =>   2
Atom   4O    basis set group =>   3
Atom   5C    basis set group =>   1
Atom   6N    basis set group =>   4
Atom   7C    basis set group =>   1
Atom   8H    basis set group =>   2
Atom   9H    basis set group =>   2
Atom  10C    basis set group =>   1
Atom  11H    basis set group =>   2
Atom  12H    basis set group =>   2
Atom  13C    basis set group =>   1
Atom  14C    basis set group =>   1
Atom  15H    basis set group =>   2
Atom  16C    basis set group =>   1
Atom  17H    basis set group =>   2
Atom  18C    basis set group =>   1
Atom  19O    basis set group =>   3
Atom  20H    basis set group =>   2
Atom  21C    basis set group =>   1
Atom  22H    basis set group =>   2
Atom  23C    basis set group =>   1
Atom  24H    basis set group =>   2
Atom  25C    basis set group =>   1
Atom  26O    basis set group =>   3
Atom  27N    basis set group =>   4
Atom  28C    basis set group =>   1
Atom  29H    basis set group =>   2
Atom  30H    basis set group =>   2
Atom  31H    basis set group =>   2
Atom  32C    basis set group =>   1
Atom  33H    basis set group =>   2
Atom  34H    basis set group =>   2
Atom  35H    basis set group =>   2
---------------------------------
AUXILIARY/J BASIS SET INFORMATION
---------------------------------
There are 4 groups of distinct atoms

 Group   1 Type C   : 13s11p10d2f contracted to 13s11p10d2f pattern {1111111111111/11111111111/1111111111/11}
 Group   2 Type H   : 9s2p contracted to 9s2p pattern {111111111/11}
 Group   3 Type O   : 14s11p10d2f contracted to 14s11p10d2f pattern {11111111111111/11111111111/1111111111/11}
 Group   4 Type N   : 14s11p10d2f contracted to 14s11p10d2f pattern {11111111111111/11111111111/1111111111/11}

Atom   0C    basis set group =>   1
Atom   1H    basis set group =>   2
Atom   2H    basis set group =>   2
Atom   3H    basis set group =>   2
Atom   4O    basis set group =>   3
Atom   5C    basis set group =>   1
Atom   6N    basis set group =>   4
Atom   7C    basis set group =>   1
Atom   8H    basis set group =>   2
Atom   9H    basis set group =>   2
Atom  10C    basis set group =>   1
Atom  11H    basis set group =>   2
Atom  12H    basis set group =>   2
Atom  13C    basis set group =>   1
Atom  14C    basis set group =>   1
Atom  15H    basis set group =>   2
Atom  16C    basis set group =>   1
Atom  17H    basis set group =>   2
Atom  18C    basis set group =>   1
Atom  19O    basis set group =>   3
Atom  20H    basis set group =>   2
Atom  21C    basis set group =>   1
Atom  22H    basis set group =>   2
Atom  23C    basis set group =>   1
Atom  24H    basis set group =>   2
Atom  25C    basis set group =>   1
Atom  26O    basis set group =>   3
Atom  27N    basis set group =>   4
Atom  28C    basis set group =>   1
Atom  29H    basis set group =>   2
Atom  30H    basis set group =>   2
Atom  31H    basis set group =>   2
Atom  32C    basis set group =>   1
Atom  33H    basis set group =>   2
Atom  34H    basis set group =>   2
Atom  35H    basis set group =>   2
---------------------------------
AUXILIARY/C BASIS SET INFORMATION
---------------------------------
There are 4 groups of distinct atoms

 Group   1 Type C   : 13s11p10d2f contracted to 13s11p10d2f pattern {1111111111111/11111111111/1111111111/11}
 Group   2 Type H   : 9s2p contracted to 9s2p pattern {111111111/11}
 Group   3 Type O   : 14s11p10d2f contracted to 14s11p10d2f pattern {11111111111111/11111111111/1111111111/11}
 Group   4 Type N   : 14s11p10d2f contracted to 14s11p10d2f pattern {11111111111111/11111111111/1111111111/11}

Atom   0C    basis set group =>   1
Atom   1H    basis set group =>   2
Atom   2H    basis set group =>   2
Atom   3H    basis set group =>   2
Atom   4O    basis set group =>   3
Atom   5C    basis set group =>   1
Atom   6N    basis set group =>   4
Atom   7C    basis set group =>   1
Atom   8H    basis set group =>   2
Atom   9H    basis set group =>   2
Atom  10C    basis set group =>   1
Atom  11H    basis set group =>   2
Atom  12H    basis set group =>   2
Atom  13C    basis set group =>   1
Atom  14C    basis set group =>   1
Atom  15H    basis set group =>   2
Atom  16C    basis set group =>   1
Atom  17H    basis set group =>   2
Atom  18C    basis set group =>   1
Atom  19O    basis set group =>   3
Atom  20H    basis set group =>   2
Atom  21C    basis set group =>   1
Atom  22H    basis set group =>   2
Atom  23C    basis set group =>   1
Atom  24H    basis set group =>   2
Atom  25C    basis set group =>   1
Atom  26O    basis set group =>   3
Atom  27N    basis set group =>   4
Atom  28C    basis set group =>   1
Atom  29H    basis set group =>   2
Atom  30H    basis set group =>   2
Atom  31H    basis set group =>   2
Atom  32C    basis set group =>   1
Atom  33H    basis set group =>   2
Atom  34H    basis set group =>   2
Atom  35H    basis set group =>   2
----------------------------------
AUXILIARY/JK BASIS SET INFORMATION
----------------------------------
There are 4 groups of distinct atoms

 Group   1 Type C   : 13s11p10d2f contracted to 13s11p10d2f pattern {1111111111111/11111111111/1111111111/11}
 Group   2 Type H   : 9s2p contracted to 9s2p pattern {111111111/11}
 Group   3 Type O   : 14s11p10d2f contracted to 14s11p10d2f pattern {11111111111111/11111111111/1111111111/11}
 Group   4 Type N   : 14s11p10d2f contracted to 14s11p10d2f pattern {11111111111111/11111111111/1111111111/11}

Atom   0C    basis set group =>   1
Atom   1H    basis set group =>   2
Atom   2H    basis set group =>   2
Atom   3H    basis set group =>   2
Atom   4O    basis set group =>   3
Atom   5C    basis set group =>   1
Atom   6N    basis set group =>   4
Atom   7C    basis set group =>   1
Atom   8H    basis set group =>   2
Atom   9H    basis set group =>   2
Atom  10C    basis set group =>   1
Atom  11H    basis set group =>   2
Atom  12H    basis set group =>   2
Atom  13C    basis set group =>   1
Atom  14C    basis set group =>   1
Atom  15H    basis set group =>   2
Atom  16C    basis set group =>   1
Atom  17H    basis set group =>   2
Atom  18C    basis set group =>   1
Atom  19O    basis set group =>   3
Atom  20H    basis set group =>   2
Atom  21C    basis set group =>   1
Atom  22H    basis set group =>   2
Atom  23C    basis set group =>   1
Atom  24H    basis set group =>   2
Atom  25C    basis set group =>   1
Atom  26O    basis set group =>   3
Atom  27N    basis set group =>   4
Atom  28C    basis set group =>   1
Atom  29H    basis set group =>   2
Atom  30H    basis set group =>   2
Atom  31H    basis set group =>   2
Atom  32C    basis set group =>   1
Atom  33H    basis set group =>   2
Atom  34H    basis set group =>   2
Atom  35H    basis set group =>   2


           ************************************************************
           *        Program running with 4 parallel MPI-processes     *
           *              working on a common directory               *
           ************************************************************
------------------------------------------------------------------------------
                           ORCA GTO INTEGRAL CALCULATION
                           -- RI-GTO INTEGRALS CHOSEN --
------------------------------------------------------------------------------
------------------------------------------------------------------------------
                   ___                                                        
                  /   \      - P O W E R E D   B Y -                         
                 /     \                                                     
                 |  |  |   _    _      __       _____    __    __             
                 |  |  |  | |  | |    /  \     |  _  \  |  |  /  |          
                  \  \/   | |  | |   /    \    | | | |  |  | /  /          
                 / \  \   | |__| |  /  /\  \   | |_| |  |  |/  /          
                |  |  |   |  __  | /  /__\  \  |    /   |      \           
                |  |  |   | |  | | |   __   |  |    \   |  |\   \          
                \     /   | |  | | |  |  |  |  | |\  \  |  | \   \       
                 \___/    |_|  |_| |__|  |__|  |_| \__\ |__|  \__/        
                                                                              
                      - O R C A' S   B I G   F R I E N D -                    
                                      &                                       
                       - I N T E G R A L  F E E D E R -                       
                                                                              
 v1 FN, 2020, v2 2021                                                         
------------------------------------------------------------------------------


Reading SHARK input file Ny_gas.SHARKINP.tmp ... ok
----------------------
SHARK INTEGRAL PACKAGE
----------------------

Number of atoms                             ...     36
Number of basis functions                   ...    288
Number of shells                            ...    144
Maximum angular momentum                    ...      2
Integral batch strategy                     ... SHARK/LIBINT Hybrid
RI-J (if used) integral strategy            ... SPLIT-RIJ (Revised 2003 algorithm where possible)
Printlevel                                  ...      1
Contraction scheme used                     ... SEGMENTED contraction
Coulomb Range Separation                    ... NOT USED
Exchange Range Separation                   ... NOT USED
Finite Nucleus Model                        ... NOT USED
Auxiliary Coulomb fitting basis             ... AVAILABLE
   # of basis functions in Aux-J            ...   2255
   # of shells in Aux-J                     ...    851
   Maximum angular momentum in Aux-J        ...      3
Auxiliary J/K fitting basis                 ... AVAILABLE
   # of basis functions in Aux-JK           ...   2255
   # of shells in Aux-JK                    ...    851
   Maximum angular momentum in Aux-JK       ...      3
Auxiliary Correlation fitting basis         ... AVAILABLE
   # of basis functions in Aux-C            ...   2255
   # of shells in Aux-C                     ...    851
   Maximum angular momentum in Aux-C        ...      3
Auxiliary 'external' fitting basis          ... NOT available
Integral threshold                          ...     2.500000e-11
Primitive cut-off                           ...     2.500000e-12
Primitive pair pre-selection threshold      ...     2.500000e-12

Calculating pre-screening integrals         ... done (  0.1 sec) Dimension = 144
Organizing shell pair data                  ... done (  0.4 sec)
Shell pair information
Total number of shell pairs                 ...     10440
Shell pairs after pre-screening             ...      8529
Total number of primitive shell pairs       ...     59085
Primitive shell pairs kept                  ...     27284
          la=0 lb=0:   3210 shell pairs
          la=1 lb=0:   2817 shell pairs
          la=1 lb=1:    620 shell pairs
          la=2 lb=0:   1205 shell pairs
          la=2 lb=1:    556 shell pairs
          la=2 lb=2:    121 shell pairs

Calculating one electron integrals          ... done (  0.0 sec)
Calculating RI/J V-Matrix + Cholesky decomp.... done (  3.1 sec)
Calculating RI/JK V-Matrix + Cholesky decomp... done (  2.4 sec)
Calculating RI/C V-Matrix + Cholesky decomp.... done (  2.3 sec)
Calculating Nuclear repulsion               ... done (  0.0 sec) ENN=   1377.702029999522 Eh

SHARK setup successfully completed in   8.4 seconds

Maximum memory used throughout the entire GTOINT-calculation: 43.3 MB


           ************************************************************
           *        Program running with 4 parallel MPI-processes     *
           *              working on a common directory               *
           ************************************************************
-------------------------------------------------------------------------------
                                 ORCA SCF
-------------------------------------------------------------------------------

------------
SCF SETTINGS
------------
Hamiltonian:
 Density Functional     Method          .... DFT(GTOs)
 Exchange Functional    Exchange        .... B88
   X-Alpha parameter    XAlpha          ....  0.666667
   Becke's b parameter  XBeta           ....  0.004200
 Correlation Functional Correlation     .... LYP
 LDA part of GGA corr.  LDAOpt          .... VWN-5
 Gradients option       PostSCFGGA      .... off
 Hybrid DFT is turned on
   Fraction HF Exchange ScalHFX         ....  0.200000
   Scaling of DF-GGA-X  ScalDFX         ....  0.720000
   Scaling of DF-GGA-C  ScalDFC         ....  0.810000
   Scaling of DF-LDA-C  ScalLDAC        ....  1.000000
   Perturbative correction              ....  0.000000
   Density functional embedding theory  .... OFF
   NL short-range parameter             ....  4.800000
 RI-approximation to the Coulomb term is turned on
   Number of AuxJ basis functions       .... 2255
   RIJ-COSX (HFX calculated with COS-X)).... on


General Settings:
 Integral files         IntName         .... Ny_gas
 Hartree-Fock type      HFTyp           .... RHF
 Total Charge           Charge          ....    0
 Multiplicity           Mult            ....    1
 Number of Electrons    NEL             ....  134
 Basis Dimension        Dim             ....  288
 Nuclear Repulsion      ENuc            ....   1377.7020299995 Eh

Convergence Acceleration:
 DIIS                   CNVDIIS         .... on
   Start iteration      DIISMaxIt       ....    12
   Startup error        DIISStart       ....  0.200000
   # of expansion vecs  DIISMaxEq       ....     5
   Bias factor          DIISBfac        ....   1.050
   Max. coefficient     DIISMaxC        ....  10.000
 Trust-Rad. Augm. Hess. CNVTRAH         .... auto
   Auto Start mean grad. ratio tolernc. ....  1.125000
   Auto Start start iteration           ....    20
   Auto Start num. interpolation iter.  ....    10
   Max. Number of Micro iterations      ....    16
   Max. Number of Macro iterations      .... Maxiter - #DIIS iter
   Number of Davidson start vectors     ....     2
   Converg. threshold I  (grad. norm)   ....   1.000e-05
   Converg. threshold II (energy diff.) ....   1.000e-08
   Grad. Scal. Fac. for Micro threshold ....   0.100
   Minimum threshold for Micro iter.    ....   0.010
   NR start threshold (gradient norm)   ....   0.001
   Initial trust radius                 ....   0.400
   Minimum AH scaling param. (alpha)    ....   1.000
   Maximum AH scaling param. (alpha)    .... 1000.000
   Orbital update algorithm             .... Taylor
   White noise on init. David. guess    .... on
   Maximum white noise                  ....   0.010
   Quad. conv. algorithm                .... NR
 SOSCF                  CNVSOSCF        .... on
   Start iteration      SOSCFMaxIt      ....   150
   Startup grad/error   SOSCFStart      ....  0.003300
 Level Shifting         CNVShift        .... on
   Level shift para.    LevelShift      ....    0.2500
   Turn off err/grad.   ShiftErr        ....    0.0010
 Zerner damping         CNVZerner       .... off
 Static damping         CNVDamp         .... on
   Fraction old density DampFac         ....    0.7000
   Max. Damping (<1)    DampMax         ....    0.9800
   Min. Damping (>=0)   DampMin         ....    0.0000
   Turn off err/grad.   DampErr         ....    0.1000
 Fernandez-Rico         CNVRico         .... off

SCF Procedure:
 Maximum # iterations   MaxIter         ....   125
 SCF integral mode      SCFMode         .... Direct
   Integral package                     .... SHARK and LIBINT hybrid scheme
 Reset frequency        DirectResetFreq ....    20
 Integral Threshold     Thresh          ....  2.500e-11 Eh
 Primitive CutOff       TCut            ....  2.500e-12 Eh

Convergence Tolerance:
 Convergence Check Mode ConvCheckMode   .... Total+1el-Energy
 Convergence forced     ConvForced      .... 0
 Energy Change          TolE            ....  1.000e-08 Eh
 1-El. energy change                    ....  1.000e-05 Eh
 Orbital Gradient       TolG            ....  1.000e-05
 Orbital Rotation angle TolX            ....  1.000e-05
 DIIS Error             TolErr          ....  5.000e-07


Diagonalization of the overlap matrix:
Smallest eigenvalue                        ... 4.326e-04
Time for diagonalization                   ...    0.013 sec
Threshold for overlap eigenvalues          ... 1.000e-08
Number of eigenvalues below threshold      ... 0
Time for construction of square roots      ...    0.006 sec
Total time needed                          ...    0.021 sec

Time for model grid setup =    0.610 sec

------------------------------
INITIAL GUESS: MODEL POTENTIAL
------------------------------
Loading Hartree-Fock densities                     ... done
Calculating cut-offs                               ... done
Initializing the effective Hamiltonian             ... done
Setting up the integral package (SHARK)            ... done
Starting the Coulomb interaction                   ... done (   0.3 sec)
Reading the grid                                   ... done
Mapping shells                                     ... done
Starting the XC term evaluation                    ... done (   0.2 sec)
  promolecular density results
     # of electrons  =    133.986885121
     EX              =   -109.965859251
     EC              =     -4.556635763
     EX+EC           =   -114.522495013
Transforming the Hamiltonian                       ... done (   0.0 sec)
Diagonalizing the Hamiltonian                      ... done (   0.0 sec)
Back transforming the eigenvectors                 ... done (   0.0 sec)
Now organizing SCF variables                       ... done
                      ------------------
                      INITIAL GUESS DONE (   1.2 sec)
                      ------------------
-------------------
DFT GRID GENERATION
-------------------

General Integration Accuracy     IntAcc      ... 4.388
Radial Grid Type                 RadialGrid  ... OptM3 with GC (2021)
Angular Grid (max. ang.)         AngularGrid ... 4 (Lebedev-302)
Angular grid pruning method      GridPruning ... 4 (adaptive)
Weight generation scheme         WeightScheme... Becke
Basis function cutoff            BFCut       ... 1.0000e-11
Integration weight cutoff        WCut        ... 1.0000e-14
Angular grids for H and He will be reduced by one unit
Partially contracted basis set               ... off
Rotationally invariant grid construction     ... off

Total number of grid points                  ...   164681
Total number of batches                      ...     2593
Average number of points per batch           ...       63
Average number of grid points per atom       ...     4574
Time for grid setup =    2.134 sec

--------------------
COSX GRID GENERATION
--------------------

GRIDX 1
-------
General Integration Accuracy     IntAcc      ... 3.816
Radial Grid Type                 RadialGrid  ... OptM3 with GC (2021)
Angular Grid (max. ang.)         AngularGrid ... 1 (Lebedev-50)
Angular grid pruning method      GridPruning ... 4 (adaptive)
Weight generation scheme         WeightScheme... Becke
Basis function cutoff            BFCut       ... 1.0000e-11
Integration weight cutoff        WCut        ... 1.0000e-14
Angular grids for H and He will be reduced by one unit
Partially contracted basis set               ... on
Rotationally invariant grid construction     ... off

Total number of grid points                  ...    20957
Total number of batches                      ...      345
Average number of points per batch           ...       60
Average number of grid points per atom       ...      582
UseSFitting                                  ... on

GRIDX 2
-------
General Integration Accuracy     IntAcc      ... 4.020
Radial Grid Type                 RadialGrid  ... OptM3 with GC (2021)
Angular Grid (max. ang.)         AngularGrid ... 2 (Lebedev-110)
Angular grid pruning method      GridPruning ... 4 (adaptive)
Weight generation scheme         WeightScheme... Becke
Basis function cutoff            BFCut       ... 1.0000e-11
Integration weight cutoff        WCut        ... 1.0000e-14
Angular grids for H and He will be reduced by one unit
Partially contracted basis set               ... on
Rotationally invariant grid construction     ... off

Total number of grid points                  ...    44804
Total number of batches                      ...      717
Average number of points per batch           ...       62
Average number of grid points per atom       ...     1245
UseSFitting                                  ... on

GRIDX 3
-------
General Integration Accuracy     IntAcc      ... 4.338
Radial Grid Type                 RadialGrid  ... OptM3 with GC (2021)
Angular Grid (max. ang.)         AngularGrid ... 3 (Lebedev-194)
Angular grid pruning method      GridPruning ... 4 (adaptive)
Weight generation scheme         WeightScheme... Becke
Basis function cutoff            BFCut       ... 1.0000e-11
Integration weight cutoff        WCut        ... 1.0000e-14
Angular grids for H and He will be reduced by one unit
Partially contracted basis set               ... on
Rotationally invariant grid construction     ... off

Total number of grid points                  ...    97741
Total number of batches                      ...     1545
Average number of points per batch           ...       63
Average number of grid points per atom       ...     2715
UseSFitting                                  ... on

Time for X-Grid setup             =    3.415 sec

--------------
SCF ITERATIONS
--------------
ITER       Energy         Delta-E        Max-DP      RMS-DP      [F,P]     Damp
               ***  Starting incremental Fock matrix formation  ***
  0   -840.3917991598   0.000000000000 0.10406273  0.00200842  0.2788046 0.7000
  1   -840.6276249346  -0.235825774861 0.05916293  0.00133745  0.1069068 0.7000
                               ***Turning on DIIS***
  2   -840.7187771067  -0.091152172051 0.06419896  0.00207334  0.0376056 0.0000
  3   -840.8663470256  -0.147569918929 0.03937684  0.00093669  0.0514874 0.0000
  4   -840.8956294161  -0.029282390528 0.01107741  0.00030974  0.0185336 0.0000
  5   -840.8979421782  -0.002312762024 0.00376880  0.00009395  0.0059555 0.0000
                      *** Initiating the SOSCF procedure ***
                           *** Shutting down DIIS ***
                      *** Re-Reading the Fockian *** 
                      *** Removing any level shift *** 
ITER      Energy       Delta-E        Grad      Rot      Max-DP    RMS-DP
  6   -840.89808080  -0.0001386209  0.000243  0.000243  0.001168  0.000028
               *** Restarting incremental Fock matrix formation ***
  7   -840.89805303   0.0000277653  0.000101  0.000368  0.000641  0.000017
  8   -840.89805278   0.0000002558  0.000193  0.000309  0.000495  0.000008
  9   -840.89805457  -0.0000017948  0.000040  0.000122  0.000171  0.000004
 10   -840.89805447   0.0000001060  0.000077  0.000073  0.000133  0.000002
 11   -840.89805463  -0.0000001638  0.000009  0.000025  0.000031  0.000001
 12   -840.89805463   0.0000000002  0.000012  0.000020  0.000017  0.000000
 13   -840.89805464  -0.0000000046  0.000003  0.000008  0.000008  0.000000
 14   -840.89805463   0.0000000061  0.000003  0.000005  0.000005  0.000000
                  ***Gradient check signals convergence***
              ***Rediagonalizing the Fockian in SOSCF/NRSCF***

               *****************************************************
               *                     SUCCESS                       *
               *           SCF CONVERGED AFTER  15 CYCLES          *
               *****************************************************

Old exchange energy                            =    -22.366334829 Eh
New exchange energy                            =    -22.366373057 Eh
Exchange energy change after final integration =     -0.000038228 Eh
Total energy after final integration           =   -840.898092862 Eh
Final COS-X integration done in                =    14.169 sec

----------------
TOTAL SCF ENERGY
----------------

Total Energy       :         -840.89809286 Eh          -22882.00041 eV

Components:
Nuclear Repulsion  :         1377.70203000 Eh           37489.17815 eV
Electronic Energy  :        -2218.60012286 Eh          -60371.17855 eV
One Electron Energy:        -3880.64692172 Eh         -105597.77123 eV
Two Electron Energy:         1662.04679886 Eh           45226.59267 eV
Max COSX asymmetry :            0.00000301 Eh               0.00008 eV

Virial components:
Potential Energy   :        -1676.91895516 Eh          -45631.28462 eV
Kinetic Energy     :          836.02086229 Eh           22749.28421 eV
Virial Ratio       :            2.00583386


DFT components:
N(Alpha)           :       67.000009415382 electrons
N(Beta)            :       67.000009415382 electrons
N(Total)           :      134.000018830765 electrons
E(X)               :      -88.844332729625 Eh       
E(C)               :       -5.365628001836 Eh       
E(XC)              :      -94.209960731460 Eh       
DFET-embed. en.    :        0.000000000000 Eh       

---------------
SCF CONVERGENCE
---------------

  Last Energy change         ...   -5.5303e-09  Tolerance :   1.0000e-08
  Last MAX-Density change    ...    3.9968e-15  Tolerance :   1.0000e-07
  Last RMS-Density change    ...    4.3458e-17  Tolerance :   5.0000e-09
  Last Orbital Gradient      ...    2.6713e-07  Tolerance :   1.0000e-05
  Last Orbital Rotation      ...    1.0701e-06  Tolerance :   1.0000e-05

             **** THE GBW FILE WAS UPDATED (Ny_gas.gbw) ****
             **** DENSITY Ny_gas.scfp WAS UPDATED ****
             **** ENERGY FILE WAS UPDATED (Ny_gas.en.tmp) ****
             **** THE GBW FILE WAS UPDATED (Ny_gas.gbw) ****
             **** DENSITY Ny_gas.scfp WAS UPDATED ****
----------------
ORBITAL ENERGIES
----------------

  NO   OCC          E(Eh)            E(eV) 
   0   2.0000     -19.174295      -521.7591 
   1   2.0000     -19.110218      -520.0155 
   2   2.0000     -19.104125      -519.8497 
   3   2.0000     -14.362061      -390.8116 
   4   2.0000     -14.360586      -390.7714 
   5   2.0000     -10.282384      -279.7979 
   6   2.0000     -10.277872      -279.6751 
   7   2.0000     -10.247180      -278.8399 
   8   2.0000     -10.221186      -278.1326 
   9   2.0000     -10.212716      -277.9021 
  10   2.0000     -10.207080      -277.7488 
  11   2.0000     -10.203329      -277.6467 
  12   2.0000     -10.188266      -277.2368 
  13   2.0000     -10.187841      -277.2252 
  14   2.0000     -10.187790      -277.2238 
  15   2.0000     -10.186283      -277.1828 
  16   2.0000     -10.181197      -277.0445 
  17   2.0000     -10.174522      -276.8628 
  18   2.0000      -1.057908       -28.7871 
  19   2.0000      -1.037444       -28.2303 
  20   2.0000      -1.023456       -27.8497 
  21   2.0000      -0.937216       -25.5029 
  22   2.0000      -0.930637       -25.3239 
  23   2.0000      -0.854082       -23.2407 
  24   2.0000      -0.773264       -21.0416 
  25   2.0000      -0.752817       -20.4852 
  26   2.0000      -0.750396       -20.4193 
  27   2.0000      -0.724428       -19.7127 
  28   2.0000      -0.712386       -19.3850 
  29   2.0000      -0.689640       -18.7661 
  30   2.0000      -0.671220       -18.2648 
  31   2.0000      -0.625763       -17.0279 
  32   2.0000      -0.600128       -16.3303 
  33   2.0000      -0.553311       -15.0563 
  34   2.0000      -0.545453       -14.8425 
  35   2.0000      -0.536491       -14.5987 
  36   2.0000      -0.513181       -13.9644 
  37   2.0000      -0.500994       -13.6328 
  38   2.0000      -0.483748       -13.1634 
  39   2.0000      -0.480692       -13.0803 
  40   2.0000      -0.471563       -12.8319 
  41   2.0000      -0.463727       -12.6187 
  42   2.0000      -0.453065       -12.3285 
  43   2.0000      -0.444118       -12.0851 
  44   2.0000      -0.434012       -11.8101 
  45   2.0000      -0.424178       -11.5425 
  46   2.0000      -0.415644       -11.3102 
  47   2.0000      -0.411000       -11.1839 
  48   2.0000      -0.405311       -11.0291 
  49   2.0000      -0.403691       -10.9850 
  50   2.0000      -0.401367       -10.9218 
  51   2.0000      -0.399380       -10.8677 
  52   2.0000      -0.397900       -10.8274 
  53   2.0000      -0.388415       -10.5693 
  54   2.0000      -0.379559       -10.3283 
  55   2.0000      -0.374052       -10.1785 
  56   2.0000      -0.363126        -9.8811 
  57   2.0000      -0.358650        -9.7594 
  58   2.0000      -0.350293        -9.5320 
  59   2.0000      -0.340673        -9.2702 
  60   2.0000      -0.328346        -8.9348 
  61   2.0000      -0.258469        -7.0333 
  62   2.0000      -0.254544        -6.9265 
  63   2.0000      -0.251008        -6.8303 
  64   2.0000      -0.240925        -6.5559 
  65   2.0000      -0.235085        -6.3970 
  66   2.0000      -0.217251        -5.9117 
  67   0.0000      -0.006767        -0.1841 
  68   0.0000       0.006874         0.1871 
  69   0.0000       0.016972         0.4618 
  70   0.0000       0.030315         0.8249 
  71   0.0000       0.065276         1.7762 
  72   0.0000       0.072722         1.9789 
  73   0.0000       0.091976         2.5028 
  74   0.0000       0.110876         3.0171 
  75   0.0000       0.126738         3.4487 
  76   0.0000       0.137879         3.7519 
  77   0.0000       0.144867         3.9420 
  78   0.0000       0.146698         3.9919 
  79   0.0000       0.152216         4.1420 
  80   0.0000       0.153942         4.1890 
  81   0.0000       0.161698         4.4000 
  82   0.0000       0.165671         4.5081 
  83   0.0000       0.169775         4.6198 
  84   0.0000       0.173951         4.7334 
  85   0.0000       0.177255         4.8233 
  86   0.0000       0.182442         4.9645 
  87   0.0000       0.188590         5.1318 
  88   0.0000       0.198789         5.4093 
  89   0.0000       0.200952         5.4682 
  90   0.0000       0.210257         5.7214 
  91   0.0000       0.216051         5.8791 
  92   0.0000       0.227373         6.1871 
  93   0.0000       0.236431         6.4336 
  94   0.0000       0.245115         6.6699 
  95   0.0000       0.256336         6.9752 
  96   0.0000       0.267704         7.2846 
  97   0.0000       0.274128         7.4594 
  98   0.0000       0.315740         8.5917 
  99   0.0000       0.329408         8.9637 
 100   0.0000       0.334119         9.0918 
 101   0.0000       0.345364         9.3978 
 102   0.0000       0.353725         9.6253 
 103   0.0000       0.367402         9.9975 
 104   0.0000       0.383614        10.4387 
 105   0.0000       0.418194        11.3796 
 106   0.0000       0.472485        12.8570 
 107   0.0000       0.487118        13.2551 
 108   0.0000       0.494695        13.4613 
 109   0.0000       0.499580        13.5942 
 110   0.0000       0.510018        13.8783 
 111   0.0000       0.514408        13.9978 
 112   0.0000       0.520867        14.1735 
 113   0.0000       0.530675        14.4404 
 114   0.0000       0.539401        14.6778 
 115   0.0000       0.542957        14.7746 
 116   0.0000       0.551061        14.9951 
 117   0.0000       0.558438        15.1959 
 118   0.0000       0.576659        15.6917 
 119   0.0000       0.582092        15.8395 
 120   0.0000       0.602413        16.3925 
 121   0.0000       0.603873        16.4322 
 122   0.0000       0.610376        16.6092 
 123   0.0000       0.615375        16.7452 
 124   0.0000       0.628861        17.1122 
 125   0.0000       0.636898        17.3309 
 126   0.0000       0.645166        17.5559 
 127   0.0000       0.655560        17.8387 
 128   0.0000       0.664613        18.0850 
 129   0.0000       0.669315        18.2130 
 130   0.0000       0.682809        18.5802 
 131   0.0000       0.691432        18.8148 
 132   0.0000       0.710841        19.3430 
 133   0.0000       0.716379        19.4937 
 134   0.0000       0.739665        20.1273 
 135   0.0000       0.743050        20.2194 
 136   0.0000       0.749788        20.4028 
 137   0.0000       0.753672        20.5085 
 138   0.0000       0.761856        20.7312 
 139   0.0000       0.776489        21.1293 
 140   0.0000       0.783417        21.3179 
 141   0.0000       0.808320        21.9955 
 142   0.0000       0.811567        22.0839 
 143   0.0000       0.818236        22.2653 
 144   0.0000       0.833931        22.6924 
 145   0.0000       0.840489        22.8709 
 146   0.0000       0.844703        22.9855 
 147   0.0000       0.856913        23.3178 
 148   0.0000       0.868200        23.6249 
 149   0.0000       0.874763        23.8035 
 150   0.0000       0.879720        23.9384 
 151   0.0000       0.885289        24.0899 
 152   0.0000       0.890242        24.2247 
 153   0.0000       0.896533        24.3959 
 154   0.0000       0.907419        24.6921 
 155   0.0000       0.911959        24.8157 
 156   0.0000       0.919410        25.0184 
 157   0.0000       0.924570        25.1588 
 158   0.0000       0.942980        25.6598 
 159   0.0000       0.949882        25.8476 
 160   0.0000       0.961623        26.1671 
 161   0.0000       0.966908        26.3109 
 162   0.0000       0.970997        26.4222 
 163   0.0000       0.980746        26.6874 
 164   0.0000       0.996892        27.1268 
 165   0.0000       0.998903        27.1815 
 166   0.0000       1.001266        27.2458 
 167   0.0000       1.009474        27.4692 
 168   0.0000       1.038200        28.2509 
 169   0.0000       1.045274        28.4434 
 170   0.0000       1.065343        28.9895 
 171   0.0000       1.078798        29.3556 
 172   0.0000       1.095385        29.8069 
 173   0.0000       1.120280        30.4844 
 174   0.0000       1.128514        30.7084 
 175   0.0000       1.137854        30.9626 
 176   0.0000       1.162636        31.6369 
 177   0.0000       1.174846        31.9692 
 178   0.0000       1.199513        32.6404 
 179   0.0000       1.219602        33.1870 
 180   0.0000       1.235712        33.6254 
 181   0.0000       1.244237        33.8574 
 182   0.0000       1.263584        34.3839 
 183   0.0000       1.276368        34.7318 
 184   0.0000       1.306288        35.5459 
 185   0.0000       1.316538        35.8248 
 186   0.0000       1.329505        36.1777 
 187   0.0000       1.364383        37.1268 
 188   0.0000       1.375142        37.4195 
 189   0.0000       1.404309        38.2132 
 190   0.0000       1.412641        38.4399 
 191   0.0000       1.420155        38.6444 
 192   0.0000       1.431744        38.9597 
 193   0.0000       1.439001        39.1572 
 194   0.0000       1.449605        39.4458 
 195   0.0000       1.456342        39.6291 
 196   0.0000       1.460466        39.7413 
 197   0.0000       1.471308        40.0363 
 198   0.0000       1.479846        40.2686 
 199   0.0000       1.509962        41.0882 
 200   0.0000       1.537679        41.8424 
 201   0.0000       1.560253        42.4567 
 202   0.0000       1.586877        43.1811 
 203   0.0000       1.646344        44.7993 
 204   0.0000       1.660516        45.1849 
 205   0.0000       1.706137        46.4263 
 206   0.0000       1.725334        46.9487 
 207   0.0000       1.732852        47.1533 
 208   0.0000       1.746929        47.5364 
 209   0.0000       1.759468        47.8776 
 210   0.0000       1.782776        48.5118 
 211   0.0000       1.785445        48.5844 
 212   0.0000       1.805202        49.1220 
 213   0.0000       1.809762        49.2461 
 214   0.0000       1.817732        49.4630 
 215   0.0000       1.836832        49.9827 
 216   0.0000       1.852739        50.4156 
 217   0.0000       1.872453        50.9520 
 218   0.0000       1.879876        51.1540 
 219   0.0000       1.882233        51.2182 
 220   0.0000       1.904804        51.8324 
 221   0.0000       1.912940        52.0537 
 222   0.0000       1.932672        52.5907 
 223   0.0000       1.943084        52.8740 
 224   0.0000       1.956169        53.2301 
 225   0.0000       1.963355        53.4256 
 226   0.0000       1.969396        53.5900 
 227   0.0000       1.976117        53.7729 
 228   0.0000       1.987672        54.0873 
 229   0.0000       1.993710        54.2516 
 230   0.0000       1.997477        54.3541 
 231   0.0000       2.023158        55.0529 
 232   0.0000       2.050630        55.8005 
 233   0.0000       2.055763        55.9402 
 234   0.0000       2.064464        56.1769 
 235   0.0000       2.077000        56.5180 
 236   0.0000       2.081978        56.6535 
 237   0.0000       2.100879        57.1678 
 238   0.0000       2.103900        57.2500 
 239   0.0000       2.134682        58.0877 
 240   0.0000       2.147389        58.4334 
 241   0.0000       2.149488        58.4905 
 242   0.0000       2.181640        59.3654 
 243   0.0000       2.188495        59.5520 
 244   0.0000       2.216646        60.3180 
 245   0.0000       2.242479        61.0210 
 246   0.0000       2.262905        61.5768 
 247   0.0000       2.267576        61.7039 
 248   0.0000       2.276188        61.9382 
 249   0.0000       2.302252        62.6475 
 250   0.0000       2.317711        63.0681 
 251   0.0000       2.320268        63.1377 
 252   0.0000       2.338486        63.6335 
 253   0.0000       2.350928        63.9720 
 254   0.0000       2.360401        64.2298 
 255   0.0000       2.373580        64.5884 
 256   0.0000       2.392200        65.0951 
 257   0.0000       2.404961        65.4423 
 258   0.0000       2.433162        66.2097 
 259   0.0000       2.441344        66.4323 
 260   0.0000       2.471049        67.2407 
 261   0.0000       2.484787        67.6145 
 262   0.0000       2.495294        67.9004 
 263   0.0000       2.543636        69.2158 
 264   0.0000       2.574582        70.0579 
 265   0.0000       2.597987        70.6948 
 266   0.0000       2.617716        71.2317 
 267   0.0000       2.624704        71.4218 
 268   0.0000       2.640454        71.8504 
 269   0.0000       2.651627        72.1544 
 270   0.0000       2.660183        72.3873 
 271   0.0000       2.669070        72.6291 
 272   0.0000       2.702210        73.5309 
 273   0.0000       2.722652        74.0871 
 274   0.0000       2.727790        74.2269 
 275   0.0000       2.764197        75.2176 
 276   0.0000       2.809816        76.4590 
 277   0.0000       2.881849        78.4191 
 278   0.0000       2.914426        79.3056 
 279   0.0000       2.946507        80.1785 
 280   0.0000       2.966862        80.7324 
 281   0.0000       2.974969        80.9530 
 282   0.0000       3.009402        81.8900 
 283   0.0000       3.020611        82.1950 
 284   0.0000       3.131218        85.2048 
 285   0.0000       3.169164        86.2373 
 286   0.0000       3.181943        86.5851 
 287   0.0000       3.420972        93.0894 

                    ********************************
                    * MULLIKEN POPULATION ANALYSIS *
                    ********************************

-----------------------
MULLIKEN ATOMIC CHARGES
-----------------------
   0 C :    0.523363
   1 H :    0.192722
   2 H :    0.162089
   3 H :    0.179816
   4 O :   -0.467067
   5 C :   -0.546209
   6 N :   -0.381130
   7 C :   -0.251053
   8 H :    0.174412
   9 H :    0.199080
  10 C :   -0.250979
  11 H :    0.151880
  12 H :    0.205012
  13 C :    0.142281
  14 C :   -0.184512
  15 H :    0.125308
  16 C :   -0.162479
  17 H :    0.141735
  18 C :    0.356529
  19 O :   -0.638101
  20 H :    0.410336
  21 C :   -0.166455
  22 H :    0.151750
  23 C :   -0.211953
  24 H :    0.117932
  25 C :    0.519313
  26 O :   -0.485090
  27 N :   -0.368005
  28 C :   -0.320691
  29 H :    0.144554
  30 H :    0.206207
  31 H :    0.154875
  32 C :   -0.350110
  33 H :    0.149722
  34 H :    0.155981
  35 H :    0.218935
Sum of atomic charges:   -0.0000000

--------------------------------
MULLIKEN REDUCED ORBITAL CHARGES
--------------------------------
  0 C s       :     2.979205  s :     2.979205
      pz      :     0.766768  p :     2.386813
      px      :     0.812375
      py      :     0.807670
      dz2     :     0.035626  d :     0.110619
      dxz     :     0.021737
      dyz     :     0.022506
      dx2y2   :     0.012432
      dxy     :     0.018317
  1 H s       :     0.807278  s :     0.807278
  2 H s       :     0.837911  s :     0.837911
  3 H s       :     0.820184  s :     0.820184
  4 O s       :     3.865153  s :     3.865153
      pz      :     1.537561  p :     4.574769
      px      :     1.448887
      py      :     1.588321
      dz2     :     0.006313  d :     0.027146
      dxz     :     0.007398
      dyz     :     0.004705
      dx2y2   :     0.004810
      dxy     :     0.003920
  5 C s       :     3.318811  s :     3.318811
      pz      :     1.094372  p :     3.195694
      px      :     1.062384
      py      :     1.038938
      dz2     :     0.006612  d :     0.031704
      dxz     :     0.002466
      dyz     :     0.009790
      dx2y2   :     0.004689
      dxy     :     0.008147
  6 N s       :     3.535040  s :     3.535040
      pz      :     1.141734  p :     3.810061
      px      :     1.272466
      py      :     1.395861
      dz2     :     0.008701  d :     0.036029
      dxz     :     0.008677
      dyz     :     0.007486
      dx2y2   :     0.005502
      dxy     :     0.005664
  7 C s       :     3.251274  s :     3.251274
      pz      :     1.108615  p :     2.947663
      px      :     0.928709
      py      :     0.910338
      dz2     :     0.007889  d :     0.052116
      dxz     :     0.013969
      dyz     :     0.006631
      dx2y2   :     0.011633
      dxy     :     0.011993
  8 H s       :     0.825588  s :     0.825588
  9 H s       :     0.800920  s :     0.800920
 10 C s       :     3.237217  s :     3.237217
      pz      :     0.955946  p :     2.959054
      px      :     0.919408
      py      :     1.083700
      dz2     :     0.008616  d :     0.054709
      dxz     :     0.014385
      dyz     :     0.010147
      dx2y2   :     0.015126
      dxy     :     0.006434
 11 H s       :     0.848120  s :     0.848120
 12 H s       :     0.794988  s :     0.794988
 13 C s       :     3.129240  s :     3.129240
      pz      :     0.961550  p :     2.688832
      px      :     0.842677
      py      :     0.884604
      dz2     :     0.004451  d :     0.039648
      dxz     :     0.006329
      dyz     :     0.005635
      dx2y2   :     0.011604
      dxy     :     0.011628
 14 C s       :     3.204385  s :     3.204385
      pz      :     0.990112  p :     2.943081
      px      :     0.962839
      py      :     0.990130
      dz2     :     0.002894  d :     0.037047
      dxz     :     0.007659
      dyz     :     0.004922
      dx2y2   :     0.011430
      dxy     :     0.010143
 15 H s       :     0.874692  s :     0.874692
 16 C s       :     3.187787  s :     3.187787
      pz      :     1.022903  p :     2.940460
      px      :     0.961822
      py      :     0.955735
      dz2     :     0.004278  d :     0.034232
      dxz     :     0.005219
      dyz     :     0.004502
      dx2y2   :     0.008606
      dxy     :     0.011626
 17 H s       :     0.858265  s :     0.858265
 18 C s       :     3.059314  s :     3.059314
      pz      :     0.935635  p :     2.514378
      px      :     0.672425
      py      :     0.906317
      dz2     :     0.007441  d :     0.069779
      dxz     :     0.016046
      dyz     :     0.006443
      dx2y2   :     0.021649
      dxy     :     0.018200
 19 O s       :     3.892110  s :     3.892110
      pz      :     1.768654  p :     4.717245
      px      :     1.456244
      py      :     1.492347
      dz2     :     0.003105  d :     0.028745
      dxz     :     0.004460
      dyz     :     0.005165
      dx2y2   :     0.012390
      dxy     :     0.003625
 20 H s       :     0.589664  s :     0.589664
 21 C s       :     3.198749  s :     3.198749
      pz      :     0.982196  p :     2.930927
      px      :     0.966083
      py      :     0.982647
      dz2     :     0.004548  d :     0.036779
      dxz     :     0.006067
      dyz     :     0.004639
      dx2y2   :     0.008813
      dxy     :     0.012713
 22 H s       :     0.848250  s :     0.848250
 23 C s       :     3.175212  s :     3.175212
      pz      :     1.053845  p :     3.002095
      px      :     0.986020
      py      :     0.962230
      dz2     :     0.002875  d :     0.034646
      dxz     :     0.006852
      dyz     :     0.004734
      dx2y2   :     0.009675
      dxy     :     0.010510
 24 H s       :     0.882068  s :     0.882068
 25 C s       :     2.982593  s :     2.982593
      pz      :     0.745120  p :     2.390488
      px      :     0.810603
      py      :     0.834764
      dz2     :     0.027254  d :     0.107606
      dxz     :     0.027189
      dyz     :     0.039160
      dx2y2   :     0.007067
      dxy     :     0.006936
[...]
     92       0.001457  -0.141062  -0.951822   0.000322  -0.003057  -0.000049
     93       0.000129   0.017143   0.109647  -0.000088  -0.001520  -0.000060
     94      -0.000136  -0.020337  -0.124946   0.000004   0.002817   0.000097
     95      -0.000090  -0.006956  -0.047869   0.000035   0.000914   0.000040
     96      -0.000190   0.024585  -0.003895   0.000014   0.000324   0.000004
     97      -0.000348   0.071995  -0.011574   0.000100  -0.000608   0.000001
     98       0.000025  -0.005782   0.000623   0.000015  -0.000320  -0.000017
     99       0.001069  -0.119311   0.019511  -0.000234   0.001027   0.000067
    100       0.000177  -0.007629   0.002080  -0.000071   0.000339  -0.000029
    101       0.000608  -0.059777   0.008927  -0.000145   0.000506   0.000022
    102      -0.000207   0.101720  -0.016167   0.000140  -0.003092  -0.000083
    103       0.000165  -0.095825   0.016269  -0.000136   0.003202   0.000088
    104       0.000110  -0.048835   0.007297  -0.000139   0.002223   0.000044
    105       0.001347  -0.276381   0.045035  -0.000282   0.000789   0.000002
    106       0.003822  -0.755797   0.123658  -0.000938   0.003005  -0.000115
    107      -0.000770   0.152395  -0.025541   0.000168  -0.000585   0.000012


-----------
IR SPECTRUM
-----------

 Mode   freq       eps      Int      T**2         TX        TY        TZ
       cm**-1   L/(mol*cm) km/mol    a.u.
----------------------------------------------------------------------------
  6:     22.04   0.000575    2.91  0.008148  ( 0.089659  0.003963 -0.009655)
  7:     34.76   0.000290    1.46  0.002600  (-0.044892  0.023612 -0.005230)
  8:     41.77   0.000085    0.43  0.000637  (-0.015332  0.007623 -0.018533)
  9:     61.89   0.000662    3.34  0.003337  ( 0.050644 -0.015436  0.023115)
 10:     70.47   0.000050    0.25  0.000223  (-0.011351 -0.003696 -0.008966)
 11:     84.40   0.000031    0.16  0.000116  (-0.008160 -0.006027  0.003624)
 12:    107.91   0.001794    9.07  0.005188  (-0.000701 -0.071971  0.002755)
 13:    120.89   0.000415    2.10  0.001072  ( 0.003289 -0.032570 -0.000859)
 14:    128.57   0.000322    1.63  0.000782  (-0.004991 -0.025535 -0.010236)
 15:    158.41   0.000049    0.25  0.000096  ( 0.005216  0.001570  0.008167)
 16:    177.55   0.000583    2.95  0.001025  (-0.011009 -0.026803  0.013612)
 17:    183.52   0.000144    0.73  0.000245  ( 0.010792 -0.010410  0.004492)
 18:    237.94   0.000095    0.48  0.000125  (-0.010412 -0.001450 -0.003756)
 19:    267.66   0.000222    1.12  0.000259  ( 0.005535  0.014973 -0.002033)
 20:    288.45   0.002269   11.47  0.002454  (-0.045007  0.020341 -0.003885)
 21:    306.08   0.001010    5.11  0.001030  ( 0.013895 -0.022323  0.018407)
 22:    345.17   0.001023    5.17  0.000925  ( 0.003270 -0.028356  0.010479)
 23:    352.57   0.000998    5.04  0.000883  (-0.003072 -0.021936 -0.019807)
 24:    364.60   0.022857  115.51  0.019564  ( 0.009410  0.062649 -0.124700)
 25:    378.16   0.001404    7.10  0.001159  (-0.019786 -0.023901 -0.014009)
 26:    420.97   0.000360    1.82  0.000267  ( 0.015321  0.005620 -0.000571)
 27:    423.23   0.000212    1.07  0.000157  ( 0.011122  0.005029  0.002751)
 28:    429.83   0.000569    2.87  0.000413  (-0.015476 -0.013053 -0.001767)
 29:    457.66   0.003219   16.27  0.002195  (-0.042823 -0.011040  0.015462)
 30:    485.54   0.003440   17.38  0.002211  (-0.035223  0.023817 -0.020076)
 31:    516.81   0.001184    5.98  0.000715  (-0.003424 -0.019247  0.018242)
 32:    544.16   0.000515    2.60  0.000295  (-0.015224 -0.007441 -0.002890)
 33:    582.07   0.001273    6.43  0.000682  ( 0.002181  0.025587 -0.004785)
 34:    601.94   0.002665   13.47  0.001382  (-0.021983 -0.029019  0.007503)
 35:    636.56   0.002774   14.02  0.001360  ( 0.002546  0.012592  0.034568)
 36:    656.03   0.000315    1.59  0.000150  ( 0.001728 -0.004519 -0.011252)
 37:    704.07   0.000085    0.43  0.000038  ( 0.005058  0.002841  0.001966)
 38:    717.13   0.000849    4.29  0.000369  (-0.018969  0.000327  0.003086)
 39:    768.80   0.000677    3.42  0.000275  (-0.006886 -0.011169  0.010128)
 40:    779.95   0.001517    7.67  0.000607  (-0.017907  0.010191  0.013506)
 41:    817.54   0.003031   15.32  0.001157  (-0.001740  0.008007 -0.033013)
 42:    824.33   0.002522   12.74  0.000955  ( 0.000285 -0.027442 -0.014195)
 43:    844.24   0.004523   22.86  0.001672  ( 0.003566  0.025376 -0.031862)
 44:    866.09   0.002164   10.93  0.000780  (-0.026851 -0.007563 -0.001205)
 45:    940.40   0.000545    2.76  0.000181  ( 0.011586 -0.000384  0.006826)
 46:    956.03   0.000281    1.42  0.000092  (-0.006431  0.006399 -0.003056)
 47:    959.55   0.000136    0.69  0.000044  ( 0.000014  0.001321  0.006525)
 48:    987.78   0.004374   22.10  0.001382  ( 0.029085 -0.020088  0.011503)
 49:   1007.73   0.003717   18.78  0.001151  (-0.005637 -0.019110 -0.027461)
 50:   1010.90   0.004922   24.87  0.001519  ( 0.019491  0.030668 -0.014102)
 51:   1034.46   0.000215    1.09  0.000065  (-0.005122  0.005932  0.001881)
 52:   1066.98   0.001206    6.10  0.000353  ( 0.015889  0.009299  0.003731)
 53:   1095.56   0.001974    9.98  0.000562  (-0.007346 -0.001533  0.022495)
 54:   1103.52   0.003552   17.95  0.001004  ( 0.000435 -0.020002 -0.024579)
 55:   1138.36   0.003672   18.56  0.001007  ( 0.010940  0.026608  0.013376)
 56:   1143.02   0.000038    0.19  0.000010  ( 0.002181 -0.002291 -0.000697)
 57:   1174.87   0.007338   37.08  0.001949  (-0.003035  0.028006  0.033993)
 58:   1191.18   0.000508    2.57  0.000133  ( 0.009342 -0.006762  0.000263)
 59:   1207.69   0.026951  136.20  0.006964  ( 0.082868  0.009826 -0.000605)
 60:   1211.28   0.006202   31.34  0.001598  ( 0.039533  0.003378  0.004852)
 61:   1224.43   0.008532   43.12  0.002175  (-0.041413 -0.010519 -0.018678)
 62:   1246.43   0.000951    4.80  0.000238  ( 0.014519  0.000349 -0.005204)
 63:   1278.80   0.015169   76.66  0.003702  ( 0.014093 -0.037716  0.045614)
 64:   1289.04   0.011573   58.48  0.002802  ( 0.013703  0.047910 -0.017847)
 65:   1312.37   0.014465   73.10  0.003440  ( 0.045128  0.035316 -0.012480)
 66:   1317.09   0.013480   68.12  0.003194  (-0.052011  0.002014 -0.022018)
 67:   1346.99   0.004063   20.53  0.000941  (-0.023763 -0.017474  0.008442)
 68:   1376.75   0.000754    3.81  0.000171  ( 0.012659  0.003051  0.001116)
 69:   1385.52   0.009149   46.24  0.002061  ( 0.042277  0.016406 -0.002030)
 70:   1394.49   0.008873   44.84  0.001986  ( 0.026494  0.006456 -0.035243)
 71:   1420.61   0.002519   12.73  0.000553  (-0.005555 -0.013138  0.018704)
 72:   1447.56   0.006961   35.18  0.001501  ( 0.002306 -0.030351 -0.023962)
 73:   1459.92   0.015186   76.75  0.003246  (-0.003716 -0.056843 -0.001100)
 74:   1469.02   0.016817   84.98  0.003572  ( 0.005188 -0.016985  0.057070)
 75:   1490.94   0.004682   23.66  0.000980  (-0.022769 -0.019534 -0.008945)
 76:   1497.10   0.004446   22.47  0.000927  ( 0.025003  0.004754 -0.016701)
 77:   1502.69   0.002300   11.62  0.000478  ( 0.019086  0.010264 -0.002830)
 78:   1511.85   0.000586    2.96  0.000121  ( 0.000372 -0.010984  0.000367)
 79:   1518.35   0.003547   17.93  0.000729  (-0.010280  0.019701 -0.015338)
 80:   1526.23   0.000843    4.26  0.000172  ( 0.007504 -0.010435  0.002682)
 81:   1534.60   0.009958   50.32  0.002025  ( 0.033346 -0.010527  0.028323)
 82:   1536.60   0.005465   27.62  0.001110  ( 0.007089 -0.006936 -0.031804)
 83:   1547.36   0.000091    0.46  0.000018  (-0.001797 -0.003547 -0.001581)
 84:   1569.24   0.016791   84.86  0.003339  ( 0.047517  0.029971  0.013529)
 85:   1571.23   0.008978   45.37  0.001783  ( 0.038778 -0.015883 -0.005206)
 86:   1653.61   0.004408   22.28  0.000832  (-0.027858  0.006810  0.003078)
 87:   1681.35   0.009996   50.52  0.001855  ( 0.039006  0.015197  0.010146)
 88:   1745.76   0.060625  306.37  0.010837  (-0.064789  0.011859  0.080615)
 89:   1748.33   0.051242  258.95  0.009146  ( 0.004096  0.012783  0.094689)
 90:   3021.12   0.006797   34.35  0.000702  (-0.006377  0.007210  0.024687)
 91:   3031.11   0.017594   88.91  0.001811  (-0.008319 -0.036778 -0.019737)
 92:   3036.05   0.005336   26.97  0.000548  (-0.001412 -0.020465 -0.011299)
 93:   3065.64   0.000936    4.73  0.000095  (-0.001489  0.009360  0.002341)
 94:   3065.83   0.010454   52.83  0.001064  (-0.029490  0.013943 -0.000106)
 95:   3076.03   0.005910   29.86  0.000600  (-0.020955  0.012650 -0.000622)
 96:   3083.32   0.004480   22.64  0.000453  ( 0.016316  0.001675  0.013578)
 97:   3099.78   0.000418    2.11  0.000042  (-0.000825  0.004676 -0.004423)
 98:   3131.07   0.001295    6.54  0.000129  ( 0.003124  0.007472  0.007966)
 99:   3166.81   0.004397   22.22  0.000433  (-0.012438 -0.015007 -0.007305)
100:   3169.63   0.000033    0.17  0.000003  ( 0.001060 -0.001256 -0.000733)
101:   3176.05   0.001647    8.32  0.000162  (-0.005930 -0.005625  0.009749)
102:   3178.64   0.002153   10.88  0.000211  (-0.005116 -0.011480 -0.007310)
103:   3184.86   0.003227   16.31  0.000316  ( 0.003829 -0.017230  0.002149)
104:   3190.72   0.000107    0.54  0.000010  (-0.002052 -0.001487  0.002009)
105:   3218.11   0.001685    8.52  0.000163  (-0.009402  0.007633  0.004092)
106:   3225.28   0.000232    1.17  0.000022  (-0.002809 -0.002030 -0.003226)
107:   3744.73   0.008677   43.85  0.000723  (-0.016587 -0.018690 -0.009932)

* The epsilon (eps) is given for a Dirac delta lineshape.
** The dipole moment derivative (T) already includes vibrational overlap.

The first frequency considered to be a vibration is 6
The total number of vibrations considered is 102


--------------------------
THERMOCHEMISTRY AT 298.15K
--------------------------

Temperature         ... 298.15 K
Pressure            ... 1.00 atm
Total Mass          ... 250.30 AMU

Throughout the following assumptions are being made:
  (1) The electronic state is orbitally nondegenerate
  (2) There are no thermally accessible electronically excited states
  (3) Hindered rotations indicated by low frequency modes are not
      treated as such but are treated as vibrations and this may
      cause some error
  (4) All equations used are the standard statistical mechanics
      equations for an ideal gas
  (5) All vibrations are strictly harmonic

freq.      22.04  E(vib)   ...       0.56 
freq.      34.76  E(vib)   ...       0.54 
freq.      41.77  E(vib)   ...       0.53 
freq.      61.89  E(vib)   ...       0.51 
freq.      70.47  E(vib)   ...       0.50 
freq.      84.40  E(vib)   ...       0.48 
freq.     107.91  E(vib)   ...       0.45 
freq.     120.89  E(vib)   ...       0.44 
freq.     128.57  E(vib)   ...       0.43 
freq.     158.41  E(vib)   ...       0.39 
freq.     177.55  E(vib)   ...       0.37 
freq.     183.52  E(vib)   ...       0.37 
freq.     237.94  E(vib)   ...       0.32 
freq.     267.66  E(vib)   ...       0.29 
freq.     288.45  E(vib)   ...       0.27 
freq.     306.08  E(vib)   ...       0.26 
freq.     345.17  E(vib)   ...       0.23 
freq.     352.57  E(vib)   ...       0.22 
freq.     364.60  E(vib)   ...       0.22 
freq.     378.16  E(vib)   ...       0.21 
freq.     420.97  E(vib)   ...       0.18 
freq.     423.23  E(vib)   ...       0.18 
freq.     429.83  E(vib)   ...       0.18 
freq.     457.66  E(vib)   ...       0.16 
freq.     485.54  E(vib)   ...       0.15 
freq.     516.81  E(vib)   ...       0.13 
freq.     544.16  E(vib)   ...       0.12 
freq.     582.07  E(vib)   ...       0.11 
freq.     601.94  E(vib)   ...       0.10 
freq.     636.56  E(vib)   ...       0.09 
freq.     656.03  E(vib)   ...       0.08 
freq.     704.07  E(vib)   ...       0.07 
freq.     717.13  E(vib)   ...       0.07 
freq.     768.80  E(vib)   ...       0.06 
freq.     779.95  E(vib)   ...       0.05 
freq.     817.54  E(vib)   ...       0.05 
freq.     824.33  E(vib)   ...       0.04 
freq.     844.24  E(vib)   ...       0.04 
freq.     866.09  E(vib)   ...       0.04 
freq.     940.40  E(vib)   ...       0.03 
freq.     956.03  E(vib)   ...       0.03 
freq.     959.55  E(vib)   ...       0.03 
freq.     987.78  E(vib)   ...       0.02 
freq.    1007.73  E(vib)   ...       0.02 
freq.    1010.90  E(vib)   ...       0.02 
freq.    1034.46  E(vib)   ...       0.02 
freq.    1066.98  E(vib)   ...       0.02 
freq.    1095.56  E(vib)   ...       0.02 
freq.    1103.52  E(vib)   ...       0.02 
freq.    1138.36  E(vib)   ...       0.01 
freq.    1143.02  E(vib)   ...       0.01 
freq.    1174.87  E(vib)   ...       0.01 
freq.    1191.18  E(vib)   ...       0.01 
freq.    1207.69  E(vib)   ...       0.01 
freq.    1211.28  E(vib)   ...       0.01 
freq.    1224.43  E(vib)   ...       0.01 
freq.    1246.43  E(vib)   ...       0.01 
freq.    1278.80  E(vib)   ...       0.01 
freq.    1289.04  E(vib)   ...       0.01 
freq.    1312.37  E(vib)   ...       0.01 
freq.    1317.09  E(vib)   ...       0.01 
freq.    1346.99  E(vib)   ...       0.01 
freq.    1376.75  E(vib)   ...       0.01 
freq.    1385.52  E(vib)   ...       0.00 
freq.    1394.49  E(vib)   ...       0.00 
freq.    1420.61  E(vib)   ...       0.00 
freq.    1447.56  E(vib)   ...       0.00 
freq.    1459.92  E(vib)   ...       0.00 
freq.    1469.02  E(vib)   ...       0.00 
freq.    1490.94  E(vib)   ...       0.00 
freq.    1497.10  E(vib)   ...       0.00 
freq.    1502.69  E(vib)   ...       0.00 
freq.    1511.85  E(vib)   ...       0.00 
freq.    1518.35  E(vib)   ...       0.00 
freq.    1526.23  E(vib)   ...       0.00 
freq.    1534.60  E(vib)   ...       0.00 
freq.    1536.60  E(vib)   ...       0.00 
freq.    1547.36  E(vib)   ...       0.00 
freq.    1569.24  E(vib)   ...       0.00 
freq.    1571.23  E(vib)   ...       0.00 
freq.    1653.61  E(vib)   ...       0.00 
freq.    1681.35  E(vib)   ...       0.00 
freq.    1745.76  E(vib)   ...       0.00 
freq.    1748.33  E(vib)   ...       0.00 
freq.    3021.12  E(vib)   ...       0.00 
freq.    3031.11  E(vib)   ...       0.00 
freq.    3036.05  E(vib)   ...       0.00 
freq.    3065.64  E(vib)   ...       0.00 
freq.    3065.83  E(vib)   ...       0.00 
freq.    3076.03  E(vib)   ...       0.00 
freq.    3083.32  E(vib)   ...       0.00 
freq.    3099.78  E(vib)   ...       0.00 
freq.    3131.07  E(vib)   ...       0.00 
freq.    3166.81  E(vib)   ...       0.00 
freq.    3169.63  E(vib)   ...       0.00 
freq.    3176.05  E(vib)   ...       0.00 
freq.    3178.64  E(vib)   ...       0.00 
freq.    3184.86  E(vib)   ...       0.00 
freq.    3190.72  E(vib)   ...       0.00 
freq.    3218.11  E(vib)   ...       0.00 
freq.    3225.28  E(vib)   ...       0.00 
freq.    3744.73  E(vib)   ...       0.00 

------------
INNER ENERGY
------------

The inner energy is: U= E(el) + E(ZPE) + E(vib) + E(rot) + E(trans)
    E(el)   - is the total energy from the electronic structure calculation
              = E(kin-el) + E(nuc-el) + E(el-el) + E(nuc-nuc)
    E(ZPE)  - the the zero temperature vibrational energy from the frequency calculation
    E(vib)  - the the finite temperature correction to E(ZPE) due to population
              of excited vibrational states
    E(rot)  - is the rotational thermal energy
    E(trans)- is the translational thermal energy

Summary of contributions to the inner energy U:
Electronic energy                ...   -840.96952846 Eh
Zero point energy                ...      0.30187564 Eh     189.43 kcal/mol
Thermal vibrational correction   ...      0.01577896 Eh       9.90 kcal/mol
Thermal rotational correction    ...      0.00141627 Eh       0.89 kcal/mol
Thermal translational correction ...      0.00141627 Eh       0.89 kcal/mol
-----------------------------------------------------------------------
Total thermal energy                   -840.64904131 Eh


Summary of corrections to the electronic energy:
(perhaps to be used in another calculation)
Total thermal correction                  0.01861151 Eh      11.68 kcal/mol
Non-thermal (ZPE) correction              0.30187564 Eh     189.43 kcal/mol
-----------------------------------------------------------------------
Total correction                          0.32048715 Eh     201.11 kcal/mol


--------
ENTHALPY
--------

The enthalpy is H = U + kB*T
                kB is Boltzmann's constant
Total free energy                 ...   -840.64904131 Eh 
Thermal Enthalpy correction       ...      0.00094421 Eh       0.59 kcal/mol
-----------------------------------------------------------------------
Total Enthalpy                    ...   -840.64809710 Eh


Note: Only C1 symmetry has been detected, increase convergence thresholds 
      if your molecule has a higher symmetry. Symmetry factor of 1.0 is   
      used for the rotational entropy correction. 
 

Note: Rotational entropy computed according to Herzberg 
Infrared and Raman Spectra, Chapter V,1, Van Nostrand Reinhold, 1945 
Point Group:  C1, Symmetry Number:   1  
Rotational constants in cm-1:     0.018738     0.009882     0.008102 

Vibrational entropy computed according to the QRRHO of S. Grimme
Chem.Eur.J. 2012 18 9955


-------
ENTROPY
-------

The entropy contributions are T*S = T*(S(el)+S(vib)+S(rot)+S(trans))
     S(el)   - electronic entropy
     S(vib)  - vibrational entropy
     S(rot)  - rotational entropy
     S(trans)- translational entropy
The entropies will be listed as multiplied by the temperature to get
units of energy

Electronic entropy                ...      0.00000000 Eh      0.00 kcal/mol
Vibrational entropy               ...      0.02824769 Eh     17.73 kcal/mol
Rotational entropy                ...      0.01584148 Eh      9.94 kcal/mol
Translational entropy             ...      0.02017065 Eh     12.66 kcal/mol
-----------------------------------------------------------------------
Final entropy term                ...      0.06425982 Eh     40.32 kcal/mol

In case the symmetry of your molecule has not been determined correctly
or in case you have a reason to use a different symmetry number we print 
out the resulting rotational entropy values for sn=1,12 :
 --------------------------------------------------------
|  sn= 1 | S(rot)=       0.01584148 Eh      9.94 kcal/mol|
|  sn= 2 | S(rot)=       0.01518702 Eh      9.53 kcal/mol|
|  sn= 3 | S(rot)=       0.01480419 Eh      9.29 kcal/mol|
|  sn= 4 | S(rot)=       0.01453257 Eh      9.12 kcal/mol|
|  sn= 5 | S(rot)=       0.01432188 Eh      8.99 kcal/mol|
|  sn= 6 | S(rot)=       0.01414973 Eh      8.88 kcal/mol|
|  sn= 7 | S(rot)=       0.01400419 Eh      8.79 kcal/mol|
|  sn= 8 | S(rot)=       0.01387811 Eh      8.71 kcal/mol|
|  sn= 9 | S(rot)=       0.01376690 Eh      8.64 kcal/mol|
|  sn=10 | S(rot)=       0.01366742 Eh      8.58 kcal/mol|
|  sn=11 | S(rot)=       0.01357743 Eh      8.52 kcal/mol|
|  sn=12 | S(rot)=       0.01349528 Eh      8.47 kcal/mol|
 --------------------------------------------------------


-------------------
GIBBS FREE ENERGY
-------------------

The Gibbs free energy is G = H - T*S

Total enthalpy                    ...   -840.64809710 Eh 
Total entropy correction          ...     -0.06425982 Eh    -40.32 kcal/mol
-----------------------------------------------------------------------
Final Gibbs free energy         ...   -840.71235692 Eh

For completeness - the Gibbs free energy minus the electronic energy
G-E(el)                           ...      0.25717154 Eh    161.38 kcal/mol


Timings for individual modules:

Sum of individual times         ...     2055.951 sec (=  34.266 min)
GTO integral calculation        ...       36.917 sec (=   0.615 min)   1.8 %
SCF iterations                  ...      946.476 sec (=  15.775 min)  46.0 %
SCF Gradient evaluation         ...      232.230 sec (=   3.870 min)  11.3 %
Geometry relaxation             ...        5.419 sec (=   0.090 min)   0.3 %
Analytical frequency calculation...      834.908 sec (=  13.915 min)  40.6 %
                             ****ORCA TERMINATED NORMALLY****
TOTAL RUN TIME: 0 days 0 hours 34 minutes 23 seconds 992 msec
