
                                 *****************
                                 * O   R   C   A *
                                 *****************

                                            #,                                       
                                            ###                                      
                                            ####                                     
                                            #####                                    
                                            ######                                   
                                           ########,                                 
                                     ,,################,,,,,                         
                               ,,#################################,,                 
                          ,,##########################################,,             
                       ,#########################################, ''#####,          
                    ,#############################################,,   '####,        
                  ,##################################################,,,,####,       
                ,###########''''           ''''###############################       
              ,#####''   ,,,,##########,,,,          '''####'''          '####       
            ,##' ,,,,###########################,,,                        '##       
           ' ,,###''''                  '''############,,,                           
         ,,##''                                '''############,,,,        ,,,,,,###''
      ,#''                                            '''#######################'''  
     '                                                          ''''####''''         
             ,#######,   #######,   ,#######,      ##                                
            ,#'     '#,  ##    ##  ,#'     '#,    #''#        ######   ,####,        
            ##       ##  ##   ,#'  ##            #'  '#       #        #'  '#        
            ##       ##  #######   ##           ,######,      #####,   #    #        
            '#,     ,#'  ##    ##  '#,     ,#' ,#      #,         ##   #,  ,#        
             '#######'   ##     ##  '#######'  #'      '#     #####' # '####'        



                  #######################################################
                  #                        -***-                        #
                  #          Department of theory and spectroscopy      #
                  #    Directorship and core code : Frank Neese         #
                  #        Max Planck Institute fuer Kohlenforschung    #
                  #                Kaiser Wilhelm Platz 1               #
                  #                 D-45470 Muelheim/Ruhr               #
                  #                      Germany                        #
                  #                                                     #
                  #                  All rights reserved                #
                  #                        -***-                        #
                  #######################################################


                         Program Version 5.0.4 -  RELEASE  -


 With contributions from (in alphabetic order):
   Daniel Aravena         : Magnetic Suceptibility
   Michael Atanasov       : Ab Initio Ligand Field Theory (pilot matlab implementation)
   Alexander A. Auer      : GIAO ZORA, VPT2 properties, NMR spectrum
   Ute Becker             : Parallelization
   Giovanni Bistoni       : ED, misc. LED, open-shell LED, HFLD
   Martin Brehm           : Molecular dynamics
   Dmytro Bykov           : SCF Hessian
   Vijay G. Chilkuri      : MRCI spin determinant printing, contributions to CSF-ICE
   Dipayan Datta          : RHF DLPNO-CCSD density
   Achintya Kumar Dutta   : EOM-CC, STEOM-CC
   Dmitry Ganyushin       : Spin-Orbit,Spin-Spin,Magnetic field MRCI
   Miquel Garcia          : C-PCM and meta-GGA Hessian, CC/C-PCM, Gaussian charge scheme
   Yang Guo               : DLPNO-NEVPT2, F12-NEVPT2, CIM, IAO-localization
   Andreas Hansen         : Spin unrestricted coupled pair/coupled cluster methods
   Benjamin Helmich-Paris : MC-RPA, TRAH-SCF, COSX integrals
   Lee Huntington         : MR-EOM, pCC
   Robert Izsak           : Overlap fitted RIJCOSX, COSX-SCS-MP3, EOM
   Marcus Kettner         : VPT2
   Christian Kollmar      : KDIIS, OOCD, Brueckner-CCSD(T), CCSD density, CASPT2, CASPT2-K
   Simone Kossmann        : Meta GGA functionals, TD-DFT gradient, OOMP2, MP2 Hessian
   Martin Krupicka        : Initial AUTO-CI
   Lucas Lang             : DCDCAS
   Marvin Lechner         : AUTO-CI (C++ implementation), FIC-MRCC
   Dagmar Lenk            : GEPOL surface, SMD
   Dimitrios Liakos       : Extrapolation schemes; Compound Job, initial MDCI parallelization
   Dimitrios Manganas     : Further ROCIS development; embedding schemes
   Dimitrios Pantazis     : SARC Basis sets
   Anastasios Papadopoulos: AUTO-CI, single reference methods and gradients
   Taras Petrenko         : DFT Hessian,TD-DFT gradient, ASA, ECA, R-Raman, ABS, FL, XAS/XES, NRVS
   Peter Pinski           : DLPNO-MP2, DLPNO-MP2 Gradient
   Christoph Reimann      : Effective Core Potentials
   Marius Retegan         : Local ZFS, SOC
   Christoph Riplinger    : Optimizer, TS searches, QM/MM, DLPNO-CCSD(T), (RO)-DLPNO pert. Triples
   Tobias Risthaus        : Range-separated hybrids, TD-DFT gradient, RPA, STAB
   Michael Roemelt        : Original ROCIS implementation
   Masaaki Saitow         : Open-shell DLPNO-CCSD energy and density
   Barbara Sandhoefer     : DKH picture change effects
   Avijit Sen             : IP-ROCIS
   Kantharuban Sivalingam : CASSCF convergence, NEVPT2, FIC-MRCI
   Bernardo de Souza      : ESD, SOC TD-DFT
   Georgi Stoychev        : AutoAux, RI-MP2 NMR, DLPNO-MP2 response
   Willem Van den Heuvel  : Paramagnetic NMR
   Boris Wezisla          : Elementary symmetry handling
   Frank Wennmohs         : Technical directorship


 We gratefully acknowledge several colleagues who have allowed us to
 interface, adapt or use parts of their codes:
   Stefan Grimme, W. Hujo, H. Kruse, P. Pracht,  : VdW corrections, initial TS optimization,
                  C. Bannwarth, S. Ehlert          DFT functionals, gCP, sTDA/sTD-DF
   Ed Valeev, F. Pavosevic, A. Kumar             : LibInt (2-el integral package), F12 methods
   Garnet Chan, S. Sharma, J. Yang, R. Olivares  : DMRG
   Ulf Ekstrom                                   : XCFun DFT Library
   Mihaly Kallay                                 : mrcc  (arbitrary order and MRCC methods)
   Jiri Pittner, Ondrej Demel                    : Mk-CCSD
   Frank Weinhold                                : gennbo (NPA and NBO analysis)
   Christopher J. Cramer and Donald G. Truhlar   : smd solvation model
   Lars Goerigk                                  : TD-DFT with DH, B97 family of functionals
   V. Asgeirsson, H. Jonsson                     : NEB implementation
   FAccTs GmbH                                   : IRC, NEB, NEB-TS, DLPNO-Multilevel, CI-OPT
                                                   MM, QMMM, 2- and 3-layer-ONIOM, Crystal-QMMM,
                                                   LR-CPCM, SF, NACMEs, symmetry and pop. for TD-DFT,
                                                   nearIR, NL-DFT gradient (VV10), updates on ESD,
                                                   ML-optimized integration grids
   S Lehtola, MJT Oliveira, MAL Marques          : LibXC Library
   Liviu Ungur et al                             : ANISO software


 Your calculation uses the libint2 library for the computation of 2-el integrals
 For citations please refer to: http://libint.valeyev.net

 Your ORCA version has been built with support for libXC version: 5.1.0
 For citations please refer to: https://tddft.org/programs/libxc/

 This ORCA versions uses:
   CBLAS   interface :  Fast vector & matrix operations
   LAPACKE interface :  Fast linear algebra routines
   SCALAPACK package :  Parallel linear algebra routines
   Shared memory     :  Shared parallel matrices
   BLAS/LAPACK       :  OpenBLAS 0.3.15  USE64BITINT DYNAMIC_ARCH NO_AFFINITY SkylakeX SINGLE_THREADED
        Core in use  :  SkylakeX
   Copyright (c) 2011-2014, The OpenBLAS Project




***************************************
The coordinates will be read from file: /users/fjb15167/WWenergy/structures/Nfer.xyz
***************************************


Your calculation utilizes the atom-pairwise dispersion correction
based on tight binding partial charges (D4)
Cite in your paper:
E.Caldeweyher, C.Bannwarth, S.Grimme, J.Chem.Phys., (2017), 147, 034112.
E.Caldeweyher, S.Ehlert, A.Hansen, H.Neugebauer, S.Grimme, J.Chem.Phys., (2018), in progress.
   

================================================================================

----- Orbital basis set information -----
Your calculation utilizes the basis: 6-31G(d)
   H-He, Li-Ne : W. J. Hehre, R. Ditchfield and J.A. Pople, J. Chem. Phys. 56, 2257 (1972).
                 Note: He and Ne are unpublished basis sets taken from the Gaussian program.
                 Note: Li and B from J. D. Dill and J. A. Pople, J. Chem. Phys. 62, 2921 (1975).
   Na - Ar     : M. M. Francl, W. J. Pietro, W. J. Hehre, J. S. Binkley, M. S. Gordon, 
                 D. J. DeFrees and J. A. Pople, J. Chem. Phys. 77, 3654 (1982).
   K - Zn      : V. A. Rassolov, J. A. Pople, M. A. Ratner, and T. L. Windus, J. Chem. Phys. 109, 1223 (1998).

----- AuxJ basis set information -----
Your calculation utilizes the AutoAux generation procedure.
  G. L. Stoychev, A. A. Auer, F. Neese, J. Chem. Theory Comput. 13, 554 (2017)

----- AuxC basis set information -----
Your calculation utilizes the AutoAux generation procedure.
  G. L. Stoychev, A. A. Auer, F. Neese, J. Chem. Theory Comput. 13, 554 (2017)

----- AuxJK basis set information -----
Your calculation utilizes the AutoAux generation procedure.
  G. L. Stoychev, A. A. Auer, F. Neese, J. Chem. Theory Comput. 13, 554 (2017)

================================================================================
                                        WARNINGS
                       Please study these warnings very carefully!
================================================================================


WARNING: Geometry Optimization
  ===> : Switching off AutoStart
         For restart on a previous wavefunction, please use MOREAD

INFO   : the flag for use of the SHARK integral package has been found!

================================================================================
                                       INPUT FILE
================================================================================
NAME = Nfer_octanol.inp
|  1> ! OPT FREQ B3LYP 6-31G(d) D4 AUTOAUX
|  2> ! CPCM
|  3> 
|  4> %cpcm
|  5> epsilon 9.8629 
|  6> refrac  1.4295 
|  7> end
|  8> 
|  9> %PAL NPROCS 4 END
| 10> 
| 11> %maxcore 3375
| 12> 
| 13> *xyzfile 0 1 /users/fjb15167/WWenergy/structures/Nfer.xyz
| 14> 
| 15>                          ****END OF INPUT****
================================================================================

                       *****************************
                       * Geometry Optimization Run *
                       *****************************

Geometry optimization settings:
Update method            Update   .... BFGS
Choice of coordinates    CoordSys .... Z-matrix Internals
Initial Hessian          InHess   .... Almoef's Model

Convergence Tolerances:
Energy Change            TolE     ....  5.0000e-06 Eh
Max. Gradient            TolMAXG  ....  3.0000e-04 Eh/bohr
RMS Gradient             TolRMSG  ....  1.0000e-04 Eh/bohr
Max. Displacement        TolMAXD  ....  4.0000e-03 bohr
RMS Displacement         TolRMSD  ....  2.0000e-03 bohr
Strict Convergence                ....  False
------------------------------------------------------------------------------
                        ORCA OPTIMIZATION COORDINATE SETUP
------------------------------------------------------------------------------

The optimization will be done in new redundant internal coordinates
Making redundant internal coordinates   ...  (new redundants) done
Evaluating the initial hessian          ...  (Almloef) done
Evaluating the coordinates              ...  done
Calculating the B-matrix                .... done
Calculating the G-matrix                .... done
Diagonalizing the G-matrix              .... done
Small eigenvalue found = 4.500e-03
Small eigenvalue found = 6.722e-03
Small eigenvalue found = 1.024e-02
Small eigenvalue found = 1.712e-02
Small eigenvalue found = 2.442e-02
The first mode is                       ....   80
The number of degrees of freedom        ....  108

    -----------------------------------------------------------------
                    Redundant Internal Coordinates


    -----------------------------------------------------------------
         Definition                    Initial Value    Approx d2E/dq
    -----------------------------------------------------------------
      1. B(H   1,C   0)                  1.0918         0.357776   
      2. B(H   2,C   0)                  1.0903         0.359692   
      3. B(H   3,C   0)                  1.0935         0.355505   
      4. B(C   4,C   0)                  1.5141         0.396019   
      5. B(N   5,C   4)                  1.3849         0.570260   
      6. B(C   6,N   5)                  1.4805         0.401347   
      7. B(H   7,C   6)                  1.0925         0.356752   
      8. B(C   8,C   6)                  1.5119         0.399232   
      9. B(C   9,C   8)                  1.4029         0.595897   
     10. B(C  10,C   8)                  1.4009         0.600273   
     11. B(C  11,C   9)                  1.3940         0.615606   
     12. B(H  12,C   9)                  1.0900         0.360098   
     13. B(C  13,C  10)                  1.3989         0.604603   
     14. B(H  14,C  10)                  1.0873         0.363677   
     15. B(C  15,C  11)                  1.3988         0.604895   
     16. B(C  15,C  13)                  1.3949         0.613650   
     17. B(H  16,C  11)                  1.0875         0.363392   
     18. B(H  17,C  13)                  1.0878         0.362958   
     19. B(H  18,C  15)                  1.0871         0.363948   
     20. B(C  19,N   5)                  1.4608         0.431421   
     21. B(H  20,C  19)                  1.0963         0.351807   
     22. B(H  21,C  19)                  1.0971         0.350825   
     23. B(C  22,C  19)                  1.5317         0.371183   
     24. B(N  23,C  22)                  1.3634         0.616979   
     25. B(O  24,C  22)                  1.2383         0.977112   
     26. B(O  25,C   4)                  1.2373         0.980506   
     27. B(C  26,N  23)                  1.4533         0.443434   
     28. B(H  27,C  26)                  1.0967         0.351323   
     29. B(H  28,C  26)                  1.0944         0.354313   
     30. B(H  29,C  26)                  1.0856         0.365995   
     31. B(H  29,H  18)                  4.1752         0.000001   
     32. B(C  30,N  23)                  1.4553         0.440184   
     33. B(H  31,C  30)                  1.0957         0.352577   
     34. B(H  32,C  30)                  1.0959         0.352338   
     35. B(H  33,C  30)                  1.0879         0.362832   
     36. B(C  34,C   6)                  1.5262         0.378827   
     37. B(H  35,C  34)                  1.0935         0.355533   
     38. B(H  36,C  34)                  1.0942         0.354527   
     39. B(H  37,C  34)                  1.0930         0.356201   
     40. A(H   2,C   0,H   3)          108.5797         0.290202   
     41. A(H   1,C   0,C   4)          113.1129         0.327098   
     42. A(H   3,C   0,C   4)          110.6494         0.326755   
     43. A(H   1,C   0,H   3)          107.6971         0.289959   
     44. A(H   1,C   0,H   2)          110.1521         0.290492   
     45. A(H   2,C   0,C   4)          106.5830         0.327386   
     46. A(C   0,C   4,N   5)          118.1358         0.392411   
     47. A(C   0,C   4,O  25)          120.5482         0.432009   
     48. A(N   5,C   4,O  25)          121.3091         0.458453   
     49. A(C   4,N   5,C  19)          124.4232         0.395803   
     50. A(C   6,N   5,C  19)          116.4663         0.372355   
     51. A(C   4,N   5,C   6)          116.7084         0.390826   
     52. A(C   8,C   6,C  34)          115.1507         0.368389   
     53. A(N   5,C   6,C  34)          111.5421         0.366421   
     54. A(H   7,C   6,C   8)          107.4256         0.327379   
     55. A(N   5,C   6,C   8)          110.2227         0.369735   
     56. A(H   7,C   6,C  34)          107.8892         0.324565   
     57. A(N   5,C   6,H   7)          103.8775         0.325700   
     58. A(C   9,C   8,C  10)          118.8605         0.428489   
     59. A(C   6,C   8,C  10)          123.2058         0.399067   
     60. A(C   6,C   8,C   9)          117.8596         0.398554   
     61. A(C   8,C   9,C  11)          120.7901         0.430433   
     62. A(C  11,C   9,H  12)          120.4669         0.352484   
     63. A(C   8,C   9,H  12)          118.7374         0.350551   
     64. A(C  13,C  10,H  14)          119.1322         0.351999   
     65. A(C   8,C  10,H  14)          120.4345         0.351571   
     66. A(C   8,C  10,C  13)          120.4200         0.429606   
     67. A(C  15,C  11,H  16)          120.0827         0.351981   
     68. A(C   9,C  11,H  16)          119.9496         0.353028   
     69. A(C   9,C  11,C  15)          119.9670         0.431593   
     70. A(C  15,C  13,H  17)          120.0235         0.352766   
     71. A(C  10,C  13,H  17)          119.7310         0.351881   
     72. A(C  10,C  13,C  15)          120.2452         0.431309   
     73. A(C  13,C  15,H  18)          120.1479         0.352929   
     74. A(C  11,C  15,H  18)          120.1371         0.352072   
     75. A(C  11,C  15,C  13)          119.7104         0.431346   
     76. A(H  21,C  19,C  22)          107.7751         0.322593   
     77. A(H  20,C  19,C  22)          104.3834         0.322741   
     78. A(N   5,C  19,C  22)          117.7685         0.369698   
     79. A(H  20,C  19,H  21)          107.5570         0.288596   
     80. A(N   5,C  19,H  21)          106.6117         0.328693   
     81. A(N   5,C  19,H  20)          112.3104         0.328844   
     82. A(N  23,C  22,O  24)          122.8996         0.464802   
     83. A(C  19,C  22,O  24)          118.4286         0.426752   
     84. A(C  19,C  22,N  23)          118.6457         0.393372   
     85. A(C  26,N  23,C  30)          115.9717         0.380145   
     86. A(C  22,N  23,C  30)          118.6365         0.402744   
     87. A(C  22,N  23,C  26)          125.3642         0.403267   
     88. A(H  28,C  26,H  29)          108.3099         0.290841   
     89. A(H  27,C  26,H  29)          108.6093         0.290454   
     90. A(N  23,C  26,H  29)          111.2790         0.332509   
     91. A(H  27,C  26,H  28)          108.6294         0.288981   
     92. A(N  23,C  26,H  28)          108.2560         0.330728   
     93. A(N  23,C  26,H  27)          111.6672         0.330265   
     94. A(H  32,C  30,H  33)          110.0954         0.290190   
     95. A(H  31,C  30,H  33)          109.5356         0.290221   
     96. A(N  23,C  30,H  33)          108.4675         0.331627   
     97. A(H  31,C  30,H  32)          108.6407         0.288889   
     98. A(N  23,C  30,H  32)          109.8305         0.330021   
     99. A(N  23,C  30,H  31)          110.2654         0.330058   
    100. A(H  35,C  34,H  36)          108.4282         0.289548   
    101. A(C   6,C  34,H  36)          109.6189         0.324232   
    102. A(C   6,C  34,H  35)          109.5597         0.324383   
    103. A(H  36,C  34,H  37)          107.9807         0.289633   
    104. A(H  35,C  34,H  37)          108.1064         0.289762   
    105. A(C   6,C  34,H  37)          113.0308         0.324483   
    106. D(O  25,C   4,C   0,H   3)   -102.2214         0.011650   
    107. D(N   5,C   4,C   0,H   2)   -165.2957         0.011650   
    108. D(N   5,C   4,C   0,H   1)    -44.1020         0.011650   
    109. D(O  25,C   4,C   0,H   2)     15.6509         0.011650   
    110. D(N   5,C   4,C   0,H   3)     76.8321         0.011650   
    111. D(O  25,C   4,C   0,H   1)    136.8446         0.011650   
    112. D(C   6,N   5,C   4,C   0)    166.1240         0.026027   
    113. D(C  19,N   5,C   4,O  25)   -176.5643         0.026027   
    114. D(C   6,N   5,C   4,O  25)    -14.8301         0.026027   
    115. D(C  19,N   5,C   4,C   0)      4.3899         0.026027   
    116. D(C   8,C   6,N   5,C   4)    120.5375         0.013751   
    117. D(C   8,C   6,N   5,C  19)    -76.2491         0.013751   
    118. D(C  34,C   6,N   5,C   4)   -110.2384         0.013751   
    119. D(C  34,C   6,N   5,C  19)     52.9749         0.013751   
    120. D(H   7,C   6,N   5,C  19)    168.9323         0.013751   
    121. D(H   7,C   6,N   5,C   4)      5.7190         0.013751   
    122. D(C  10,C   8,C   6,C  34)    -30.1389         0.011831   
    123. D(C  10,C   8,C   6,H   7)   -150.3402         0.011831   
    124. D(C   9,C   8,C   6,C  34)    153.0334         0.011831   
    125. D(C  10,C   8,C   6,N   5)     97.1079         0.011831   
    126. D(C   9,C   8,C   6,H   7)     32.8321         0.011831   
    127. D(C   9,C   8,C   6,N   5)    -79.7198         0.011831   
    128. D(H  12,C   9,C   8,C   6)     -2.8225         0.024461   
    129. D(C  11,C   9,C   8,C  10)     -0.6411         0.024461   
    130. D(H  12,C   9,C   8,C  10)   -179.7919         0.024461   
    131. D(C  11,C   9,C   8,C   6)    176.3282         0.024461   
    132. D(H  14,C  10,C   8,C   9)   -177.9468         0.024841   
    133. D(C  13,C  10,C   8,C   9)      0.7159         0.024841   
    134. D(C  13,C  10,C   8,C   6)   -176.0817         0.024841   
    135. D(H  14,C  10,C   8,C   6)      5.2556         0.024841   
    136. D(C  15,C  11,C   9,C   8)     -0.0575         0.026201   
    137. D(H  16,C  11,C   9,H  12)     -1.2171         0.026201   
    138. D(H  16,C  11,C   9,C   8)    179.6468         0.026201   
    139. D(C  15,C  11,C   9,H  12)    179.0786         0.026201   
    140. D(H  17,C  13,C  10,H  14)     -1.2242         0.025221   
    141. D(C  15,C  13,C  10,H  14)    178.5852         0.025221   
    142. D(C  15,C  13,C  10,C   8)     -0.0948         0.025221   
    143. D(H  17,C  13,C  10,C   8)   -179.9042         0.025221   
    144. D(H  18,C  15,C  13,H  17)     -0.0159         0.026025   
    145. D(H  18,C  15,C  13,C  10)   -179.8247         0.026025   
    146. D(C  11,C  15,C  13,H  17)    179.1964         0.026025   
    147. D(C  11,C  15,C  13,C  10)     -0.6124         0.026025   
    148. D(H  18,C  15,C  11,H  16)      0.1960         0.025247   
    149. D(C  13,C  15,C  11,H  16)   -179.0164         0.025247   
    150. D(C  13,C  15,C  11,C   9)      0.6875         0.025247   
    151. D(H  18,C  15,C  11,C   9)    179.8999         0.025247   
    152. D(C  22,C  19,N   5,C   6)    151.9473         0.015868   
    153. D(C  22,C  19,N   5,C   4)    -46.2786         0.015868   
    154. D(H  21,C  19,N   5,C   6)     30.8076         0.015868   
    155. D(H  21,C  19,N   5,C   4)   -167.4183         0.015868   
    156. D(H  20,C  19,N   5,C   6)    -86.7529         0.015868   
    157. D(H  20,C  19,N   5,C   4)     75.0212         0.015868   
    158. D(O  24,C  22,C  19,H  21)   -113.7889         0.010313   
    159. D(O  24,C  22,C  19,H  20)      0.3683         0.010313   
    160. D(O  24,C  22,C  19,N   5)    125.6744         0.010313   
    161. D(N  23,C  22,C  19,H  21)     64.4103         0.010313   
    162. D(N  23,C  22,C  19,H  20)    178.5674         0.010313   
    163. D(N  23,C  22,C  19,N   5)    -56.1264         0.010313   
    164. D(C  30,N  23,C  22,O  24)     -6.4115         0.030801   
    165. D(C  30,N  23,C  22,C  19)    175.4748         0.030801   
    166. D(C  26,N  23,C  22,O  24)    175.5803         0.030801   
    167. D(C  26,N  23,C  22,C  19)     -2.5335         0.030801   
    168. D(H  27,C  26,N  23,C  22)     99.0732         0.016769   
    169. D(H  29,C  26,N  23,C  30)    159.4688         0.016769   
    170. D(H  29,C  26,N  23,C  22)    -22.4757         0.016769   
    171. D(H  28,C  26,N  23,C  30)     40.5558         0.016769   
    172. D(H  28,C  26,N  23,C  22)   -141.3887         0.016769   
    173. D(H  27,C  26,N  23,C  30)    -78.9824         0.016769   
    174. D(H  33,C  30,N  23,C  26)    175.4964         0.016522   
    175. D(H  33,C  30,N  23,C  22)     -2.6969         0.016522   
    176. D(H  32,C  30,N  23,C  26)     55.1313         0.016522   
    177. D(H  32,C  30,N  23,C  22)   -123.0621         0.016522   
    178. D(H  31,C  30,N  23,C  26)    -64.5619         0.016522   
    179. D(H  31,C  30,N  23,C  22)    117.2448         0.016522   
    180. D(H  37,C  34,C   6,C   8)     64.2172         0.011441   
    181. D(H  37,C  34,C   6,H   7)   -175.8364         0.011441   
    182. D(H  37,C  34,C   6,N   5)    -62.3595         0.011441   
    183. D(H  36,C  34,C   6,C   8)    -56.2895         0.011441   
    184. D(H  36,C  34,C   6,H   7)     63.6569         0.011441   
    185. D(H  36,C  34,C   6,N   5)    177.1339         0.011441   
    186. D(H  35,C  34,C   6,C   8)   -175.1578         0.011441   
    187. D(H  35,C  34,C   6,H   7)    -55.2113         0.011441   
    188. D(H  35,C  34,C   6,N   5)     58.2656         0.011441   
    -----------------------------------------------------------------

Number of atoms                         .... 38
Number of degrees of freedom            .... 188

         *************************************************************
         *                GEOMETRY OPTIMIZATION CYCLE   1            *
         *************************************************************
---------------------------------
CARTESIAN COORDINATES (ANGSTROEM)
---------------------------------
  C     -2.747000   -1.384000   -0.969000
  H     -3.218000   -1.472000    0.012000
  H     -3.188000   -2.100000   -1.663000
  H     -2.940000   -0.374000   -1.341000
  C     -1.260000   -1.668000   -0.942000
  N     -0.508000   -1.115000    0.081000
  C      0.858000   -1.654000    0.269000
  H      0.986000   -2.342000   -0.570000
  C      1.881000   -0.552000    0.111000
  C      2.233000   -0.166000   -1.191000
  C      2.439000    0.138000    1.195000
  C      3.112000    0.894000   -1.408000
  H      1.795000   -0.702000   -2.033000
  C      3.320000    1.203000    0.979000
  H      2.210000   -0.161000    2.215000
  C      3.653000    1.587000   -0.320000
  H      3.380000    1.178000   -2.423000
  H      3.748000    1.730000    1.829000
  H      4.340000    2.413000   -0.486000
  C     -1.064000   -0.348000    1.193000
  H     -1.563000   -0.987000    1.931000
  H     -0.217000    0.137000    1.694000
  C     -2.097000    0.735000    0.867000
  N     -1.758000    1.717000   -0.016000
  O     -3.192000    0.698000    1.444000
  O     -0.736000   -2.361000   -1.823000
  C     -0.460000    1.864000   -0.653000
  H     -0.460000    1.456000   -1.671000
  H     -0.222000    2.931000   -0.704000
  H      0.318000    1.368000   -0.081000
  C     -2.771000    2.688000   -0.402000
  H     -2.472000    3.694000   -0.087000
  H     -2.894000    2.684000   -1.491000
  H     -3.708000    2.419000    0.081000
  C      0.969000   -2.462000    1.559000
  H      0.247000   -3.283000    1.540000
  H      1.974000   -2.887000    1.641000
  H      0.781000   -1.865000    2.455000

----------------------------
CARTESIAN COORDINATES (A.U.)
----------------------------
  NO LB      ZA    FRAG     MASS         X           Y           Z
   0 C     6.0000    0    12.011   -5.191078   -2.615381   -1.831145
   1 H     1.0000    0     1.008   -6.081139   -2.781677    0.022677
   2 H     1.0000    0     1.008   -6.024447   -3.968425   -3.142615
   3 H     1.0000    0     1.008   -5.555795   -0.706758   -2.534123
   4 C     6.0000    0    12.011   -2.381055   -3.152063   -1.780122
   5 N     7.0000    0    14.007   -0.959981   -2.107045    0.153068
   6 C     6.0000    0    12.011    1.621385   -3.125607    0.508336
   7 H     1.0000    0     1.008    1.863270   -4.425739   -1.077144
   8 C     6.0000    0    12.011    3.554575   -1.043129    0.209760
   9 C     6.0000    0    12.011    4.219758   -0.313695   -2.250664
  10 C     6.0000    0    12.011    4.609042    0.260782    2.258223
  11 C     6.0000    0    12.011    5.880828    1.689415   -2.660734
  12 H     1.0000    0     1.008    3.392058   -1.326588   -3.841813
  13 C     6.0000    0    12.011    6.273891    2.273341    1.850042
  14 H     1.0000    0     1.008    4.176295   -0.304246    4.185743
  15 C     6.0000    0    12.011    6.903170    2.998995   -0.604712
  16 H     1.0000    0     1.008    6.387274    2.226097   -4.578806
  17 H     1.0000    0     1.008    7.082694    3.269226    3.456309
  18 H     1.0000    0     1.008    8.201411    4.559909   -0.918407
  19 C     6.0000    0    12.011   -2.010669   -0.657625    2.254443
  20 H     1.0000    0     1.008   -2.953642   -1.865160    3.649061
  21 H     1.0000    0     1.008   -0.410071    0.258892    3.201196
  22 C     6.0000    0    12.011   -3.962756    1.388949    1.638393
  23 N     7.0000    0    14.007   -3.322139    3.244660   -0.030236
  24 O     8.0000    0    15.999   -6.032006    1.319029    2.728765
  25 O     8.0000    0    15.999   -1.390838   -4.461643   -3.444971
  26 C     6.0000    0    12.011   -0.869274    3.522450   -1.233991
  27 H     1.0000    0     1.008   -0.869274    2.751441   -3.157732
  28 H     1.0000    0     1.008   -0.419519    5.538787   -1.330367
  29 H     1.0000    0     1.008    0.600933    2.585145   -0.153068
  30 C     6.0000    0    12.011   -5.236431    5.079584   -0.759670
  31 H     1.0000    0     1.008   -4.671403    6.980648   -0.164406
  32 H     1.0000    0     1.008   -5.468867    5.072025   -2.817582
  33 H     1.0000    0     1.008   -7.007105    4.571248    0.153068
  34 C     6.0000    0    12.011    1.831145   -4.652506    2.946083
  35 H     1.0000    0     1.008    0.466762   -6.203971    2.910178
  36 H     1.0000    0     1.008    3.730319   -5.455639    3.101041
  37 H     1.0000    0     1.008    1.475876   -3.524339    4.639278

--------------------------------
INTERNAL COORDINATES (ANGSTROEM)
--------------------------------
 C      0   0   0     0.000000000000     0.00000000     0.00000000
 H      1   0   0     1.091762794750     0.00000000     0.00000000
 H      1   2   0     1.090308671891   110.15212373     0.00000000
 H      1   2   3     1.093495770454   107.69711736   118.25257576
 C      1   2   3     1.514118225239   113.11288824   240.84491349
 N      5   1   2     1.384861725950   118.13576418   315.89804126
 C      6   5   1     1.480479989733   116.70838979   166.12399638
 H      7   6   5     1.092542447688   103.87745708     5.71898555
 C      7   6   5     1.511918317899   110.22271226   120.53754794
 C      9   7   6     1.402891300137   117.85960487   280.28021078
 C      9   7   6     1.400899710900   123.20575272    97.10785859
 C     10   9   7     1.394033715518   120.79014853   176.32824677
 H     10   9   7     1.090001834861   118.73743839   357.17749006
 C     11   9   7     1.398943172541   120.41998759   183.91833299
 H     11   9   7     1.087309523549   120.43452432     5.25560620
 C     14  11   9     1.394899996416   120.24522800   359.90521867
 H     12  10   9     1.087522413562   119.94963283   179.64684782
 H     14  11   9     1.087847875394   119.73101622   180.09581227
 H     16  14  11     1.087106710494   120.14785723   180.17525088
 C      6   5   1     1.460811076081   124.42316187     4.38986855
 H     20   6   5     1.096342099894   112.31042071    75.02121748
 H     20   6   5     1.097103003368   106.61169996   192.58166237
 C     20   6   5     1.531748673902   117.76852139   313.72135481
 N     23  20   6     1.363427299125   118.64574214   303.87358463
 O     23  20   6     1.238274202267   118.42863492   125.67443173
 O      5   1   2     1.237330190370   120.54821483   136.84461766
 C     24  23  20     1.453334785932   125.36424755   357.46650169
 H     27  24  23     1.096716918808   111.66718828    99.07317216
 H     27  24  23     1.094410343518   108.25603077   218.61130586
 H     27  24  23     1.085580029293   111.27904902   337.52433885
 C     24  23  20     1.455337074358   118.63652724   175.47476014
 H     31  24  23     1.095747233626   110.26541531   117.24475892
 H     31  24  23     1.095931567207   109.83050941   236.93789561
 H     31  24  23     1.087942553630   108.46749918   357.30306882
 C      7   6   5     1.526199528240   111.54212986   249.76158135
 H     35   7   6     1.093474279533   109.55970959    58.26560645
 H     35   7   6     1.094245859028   109.61887648   177.13386492
 H     35   7   6     1.092963402864   113.03079295   297.64053440

---------------------------
INTERNAL COORDINATES (A.U.)
---------------------------
 C      0   0   0     0.000000000000     0.00000000     0.00000000
 H      1   0   0     2.063132685282     0.00000000     0.00000000
 H      1   2   0     2.060384791313   110.15212373     0.00000000
 H      1   2   3     2.066407534759   107.69711736   118.25257576
 C      1   2   3     2.861268780080   113.11288824   240.84491349
 N      5   1   2     2.617009395394   118.13576418   315.89804126
 C      6   5   1     2.797701727346   116.70838979   166.12399638
 H      7   6   5     2.064606015814   103.87745708     5.71898555
 C      7   6   5     2.857111557689   110.22271226   120.53754794
 C      9   7   6     2.651080352920   117.85960487   280.28021078
 C      9   7   6     2.647316794691   123.20575272    97.10785859
 C     10   9   7     2.634341943781   120.79014853   176.32824677
 H     10   9   7     2.059804953359   118.73743839   357.17749006
 C     11   9   7     2.643619473022   120.41998759   183.91833299
 H     11   9   7     2.054717222312   120.43452432     5.25560620
 C     14  11   9     2.635978977433   120.24522800   359.90521867
 H     12  10   9     2.055119526133   119.94963283   179.64684782
 H     14  11   9     2.055734559863   119.73101622   180.09581227
 H     16  14  11     2.054333961181   120.14785723   180.17525088
 C      6   5   1     2.760532867191   124.42316187     4.38986855
 H     20   6   5     2.071786317888   112.31042071    75.02121748
 H     20   6   5     2.073224217069   106.61169996   192.58166237
 C     20   6   5     2.894585499671   117.76852139   313.72135481
 N     23  20   6     2.576504198859   118.64574214   303.87358463
 O     23  20   6     2.339999120984   118.42863492   125.67443173
 O      5   1   2     2.338215197031   120.54821483   136.84461766
 C     24  23  20     2.746404726313   125.36424755   357.46650169
 H     27  24  23     2.072494622985   111.66718828    99.07317216
 H     27  24  23     2.068135827380   108.25603077   218.61130586
 H     27  24  23     2.051448951818   111.27904902   337.52433885
 C     24  23  20     2.750188503078   118.63652724   175.47476014
 H     31  24  23     2.070662183556   110.26541531   117.24475892
 H     31  24  23     2.071010523540   109.83050941   236.93789561
 H     31  24  23     2.055913475801   108.46749918   357.30306882
 C      7   6   5     2.884099134093   111.54212986   249.76158135
 H     35   7   6     2.066366922804   109.55970959    58.26560645
 H     35   7   6     2.067824996740   109.61887648   177.13386492
 H     35   7   6     2.065401505812   113.03079295   297.64053440

---------------------
BASIS SET INFORMATION
---------------------
There are 4 groups of distinct atoms

 Group   1 Type C   : 10s4p1d contracted to 3s2p1d pattern {631/31/1}
 Group   2 Type H   : 4s contracted to 2s pattern {31}
 Group   3 Type N   : 10s4p1d contracted to 3s2p1d pattern {631/31/1}
 Group   4 Type O   : 10s4p1d contracted to 3s2p1d pattern {631/31/1}

Atom   0C    basis set group =>   1
Atom   1H    basis set group =>   2
Atom   2H    basis set group =>   2
Atom   3H    basis set group =>   2
Atom   4C    basis set group =>   1
Atom   5N    basis set group =>   3
Atom   6C    basis set group =>   1
Atom   7H    basis set group =>   2
Atom   8C    basis set group =>   1
Atom   9C    basis set group =>   1
Atom  10C    basis set group =>   1
Atom  11C    basis set group =>   1
Atom  12H    basis set group =>   2
Atom  13C    basis set group =>   1
Atom  14H    basis set group =>   2
Atom  15C    basis set group =>   1
Atom  16H    basis set group =>   2
Atom  17H    basis set group =>   2
Atom  18H    basis set group =>   2
Atom  19C    basis set group =>   1
Atom  20H    basis set group =>   2
Atom  21H    basis set group =>   2
Atom  22C    basis set group =>   1
Atom  23N    basis set group =>   3
Atom  24O    basis set group =>   4
Atom  25O    basis set group =>   4
Atom  26C    basis set group =>   1
Atom  27H    basis set group =>   2
Atom  28H    basis set group =>   2
Atom  29H    basis set group =>   2
Atom  30C    basis set group =>   1
Atom  31H    basis set group =>   2
Atom  32H    basis set group =>   2
Atom  33H    basis set group =>   2
Atom  34C    basis set group =>   1
Atom  35H    basis set group =>   2
Atom  36H    basis set group =>   2
Atom  37H    basis set group =>   2
---------------------------------
AUXILIARY/J BASIS SET INFORMATION
---------------------------------
There are 4 groups of distinct atoms

 Group   1 Type C   : 13s11p10d2f contracted to 13s11p10d2f pattern {1111111111111/11111111111/1111111111/11}
 Group   2 Type H   : 9s2p contracted to 9s2p pattern {111111111/11}
 Group   3 Type N   : 14s11p10d2f contracted to 14s11p10d2f pattern {11111111111111/11111111111/1111111111/11}
 Group   4 Type O   : 14s11p10d2f contracted to 14s11p10d2f pattern {11111111111111/11111111111/1111111111/11}

Atom   0C    basis set group =>   1
Atom   1H    basis set group =>   2
Atom   2H    basis set group =>   2
Atom   3H    basis set group =>   2
Atom   4C    basis set group =>   1
Atom   5N    basis set group =>   3
Atom   6C    basis set group =>   1
Atom   7H    basis set group =>   2
Atom   8C    basis set group =>   1
Atom   9C    basis set group =>   1
Atom  10C    basis set group =>   1
Atom  11C    basis set group =>   1
Atom  12H    basis set group =>   2
Atom  13C    basis set group =>   1
Atom  14H    basis set group =>   2
Atom  15C    basis set group =>   1
Atom  16H    basis set group =>   2
Atom  17H    basis set group =>   2
Atom  18H    basis set group =>   2
Atom  19C    basis set group =>   1
Atom  20H    basis set group =>   2
Atom  21H    basis set group =>   2
Atom  22C    basis set group =>   1
Atom  23N    basis set group =>   3
Atom  24O    basis set group =>   4
Atom  25O    basis set group =>   4
Atom  26C    basis set group =>   1
Atom  27H    basis set group =>   2
Atom  28H    basis set group =>   2
Atom  29H    basis set group =>   2
Atom  30C    basis set group =>   1
Atom  31H    basis set group =>   2
Atom  32H    basis set group =>   2
Atom  33H    basis set group =>   2
Atom  34C    basis set group =>   1
Atom  35H    basis set group =>   2
Atom  36H    basis set group =>   2
Atom  37H    basis set group =>   2
---------------------------------
AUXILIARY/C BASIS SET INFORMATION
---------------------------------
There are 4 groups of distinct atoms

 Group   1 Type C   : 13s11p10d2f contracted to 13s11p10d2f pattern {1111111111111/11111111111/1111111111/11}
 Group   2 Type H   : 9s2p contracted to 9s2p pattern {111111111/11}
 Group   3 Type N   : 14s11p10d2f contracted to 14s11p10d2f pattern {11111111111111/11111111111/1111111111/11}
 Group   4 Type O   : 14s11p10d2f contracted to 14s11p10d2f pattern {11111111111111/11111111111/1111111111/11}

Atom   0C    basis set group =>   1
Atom   1H    basis set group =>   2
Atom   2H    basis set group =>   2
Atom   3H    basis set group =>   2
Atom   4C    basis set group =>   1
Atom   5N    basis set group =>   3
Atom   6C    basis set group =>   1
Atom   7H    basis set group =>   2
Atom   8C    basis set group =>   1
Atom   9C    basis set group =>   1
Atom  10C    basis set group =>   1
Atom  11C    basis set group =>   1
Atom  12H    basis set group =>   2
Atom  13C    basis set group =>   1
Atom  14H    basis set group =>   2
Atom  15C    basis set group =>   1
Atom  16H    basis set group =>   2
Atom  17H    basis set group =>   2
Atom  18H    basis set group =>   2
Atom  19C    basis set group =>   1
Atom  20H    basis set group =>   2
Atom  21H    basis set group =>   2
Atom  22C    basis set group =>   1
Atom  23N    basis set group =>   3
Atom  24O    basis set group =>   4
Atom  25O    basis set group =>   4
Atom  26C    basis set group =>   1
Atom  27H    basis set group =>   2
Atom  28H    basis set group =>   2
Atom  29H    basis set group =>   2
Atom  30C    basis set group =>   1
Atom  31H    basis set group =>   2
Atom  32H    basis set group =>   2
Atom  33H    basis set group =>   2
Atom  34C    basis set group =>   1
Atom  35H    basis set group =>   2
Atom  36H    basis set group =>   2
Atom  37H    basis set group =>   2
----------------------------------
AUXILIARY/JK BASIS SET INFORMATION
----------------------------------
There are 4 groups of distinct atoms

 Group   1 Type C   : 13s11p10d2f contracted to 13s11p10d2f pattern {1111111111111/11111111111/1111111111/11}
 Group   2 Type H   : 9s2p contracted to 9s2p pattern {111111111/11}
 Group   3 Type N   : 14s11p10d2f contracted to 14s11p10d2f pattern {11111111111111/11111111111/1111111111/11}
 Group   4 Type O   : 14s11p10d2f contracted to 14s11p10d2f pattern {11111111111111/11111111111/1111111111/11}

Atom   0C    basis set group =>   1
Atom   1H    basis set group =>   2
Atom   2H    basis set group =>   2
Atom   3H    basis set group =>   2
Atom   4C    basis set group =>   1
Atom   5N    basis set group =>   3
Atom   6C    basis set group =>   1
Atom   7H    basis set group =>   2
Atom   8C    basis set group =>   1
Atom   9C    basis set group =>   1
Atom  10C    basis set group =>   1
Atom  11C    basis set group =>   1
Atom  12H    basis set group =>   2
Atom  13C    basis set group =>   1
Atom  14H    basis set group =>   2
Atom  15C    basis set group =>   1
Atom  16H    basis set group =>   2
Atom  17H    basis set group =>   2
Atom  18H    basis set group =>   2
Atom  19C    basis set group =>   1
Atom  20H    basis set group =>   2
Atom  21H    basis set group =>   2
Atom  22C    basis set group =>   1
Atom  23N    basis set group =>   3
Atom  24O    basis set group =>   4
Atom  25O    basis set group =>   4
Atom  26C    basis set group =>   1
Atom  27H    basis set group =>   2
Atom  28H    basis set group =>   2
Atom  29H    basis set group =>   2
Atom  30C    basis set group =>   1
Atom  31H    basis set group =>   2
Atom  32H    basis set group =>   2
Atom  33H    basis set group =>   2
Atom  34C    basis set group =>   1
Atom  35H    basis set group =>   2
Atom  36H    basis set group =>   2
Atom  37H    basis set group =>   2


           ************************************************************
           *        Program running with 4 parallel MPI-processes     *
           *              working on a common directory               *
           ************************************************************
------------------------------------------------------------------------------
                           ORCA GTO INTEGRAL CALCULATION
                           -- RI-GTO INTEGRALS CHOSEN --
------------------------------------------------------------------------------
------------------------------------------------------------------------------
                   ___                                                        
                  /   \      - P O W E R E D   B Y -                         
                 /     \                                                     
                 |  |  |   _    _      __       _____    __    __             
                 |  |  |  | |  | |    /  \     |  _  \  |  |  /  |          
                  \  \/   | |  | |   /    \    | | | |  |  | /  /          
                 / \  \   | |__| |  /  /\  \   | |_| |  |  |/  /          
                |  |  |   |  __  | /  /__\  \  |    /   |      \           
                |  |  |   | |  | | |   __   |  |    \   |  |\   \          
                \     /   | |  | | |  |  |  |  | |\  \  |  | \   \       
                 \___/    |_|  |_| |__|  |__|  |_| \__\ |__|  \__/        
                                                                              
                      - O R C A' S   B I G   F R I E N D -                    
                                      &                                       
                       - I N T E G R A L  F E E D E R -                       
                                                                              
 v1 FN, 2020, v2 2021                                                         
------------------------------------------------------------------------------


Reading SHARK input file Nfer_octanol.SHARKINP.tmp ... ok
----------------------
SHARK INTEGRAL PACKAGE
----------------------

Number of atoms                             ...     38
Number of basis functions                   ...    292
Number of shells                            ...    148
Maximum angular momentum                    ...      2
Integral batch strategy                     ... SHARK/LIBINT Hybrid
RI-J (if used) integral strategy            ... SPLIT-RIJ (Revised 2003 algorithm where possible)
Printlevel                                  ...      1
Contraction scheme used                     ... SEGMENTED contraction
Coulomb Range Separation                    ... NOT USED
Exchange Range Separation                   ... NOT USED
Finite Nucleus Model                        ... NOT USED
Auxiliary Coulomb fitting basis             ... AVAILABLE
   # of basis functions in Aux-J            ...   2284
   # of shells in Aux-J                     ...    872
   Maximum angular momentum in Aux-J        ...      3
Auxiliary J/K fitting basis                 ... AVAILABLE
   # of basis functions in Aux-JK           ...   2284
   # of shells in Aux-JK                    ...    872
   Maximum angular momentum in Aux-JK       ...      3
Auxiliary Correlation fitting basis         ... AVAILABLE
   # of basis functions in Aux-C            ...   2284
   # of shells in Aux-C                     ...    872
   Maximum angular momentum in Aux-C        ...      3
Auxiliary 'external' fitting basis          ... NOT available
Integral threshold                          ...     2.500000e-11
Primitive cut-off                           ...     2.500000e-12
Primitive pair pre-selection threshold      ...     2.500000e-12

Calculating pre-screening integrals         ... done (  0.1 sec) Dimension = 148
Organizing shell pair data                  ... done (  0.7 sec)
Shell pair information
Total number of shell pairs                 ...     11026
Shell pairs after pre-screening             ...      9267
Total number of primitive shell pairs       ...     61863
Primitive shell pairs kept                  ...     29594
          la=0 lb=0:   3612 shell pairs
          la=1 lb=0:   3020 shell pairs
          la=1 lb=1:    630 shell pairs
          la=2 lb=0:   1303 shell pairs
          la=2 lb=1:    575 shell pairs
          la=2 lb=2:    127 shell pairs

Calculating one electron integrals          ... done (  0.0 sec)
Calculating RI/J V-Matrix + Cholesky decomp.... done (  0.3 sec)
Calculating RI/JK V-Matrix + Cholesky decomp... done (  0.4 sec)
Calculating RI/C V-Matrix + Cholesky decomp.... done (  0.3 sec)
Calculating Nuclear repulsion               ... done (  0.0 sec) ENN=   1404.007709709377 Eh

SHARK setup successfully completed in   2.3 seconds

Maximum memory used throughout the entire GTOINT-calculation: 44.9 MB


           ************************************************************
           *        Program running with 4 parallel MPI-processes     *
           *              working on a common directory               *
           ************************************************************
-------------------------------------------------------------------------------
                                 ORCA SCF
-------------------------------------------------------------------------------

------------
SCF SETTINGS
------------
Hamiltonian:
 Density Functional     Method          .... DFT(GTOs)
 Exchange Functional    Exchange        .... B88
   X-Alpha parameter    XAlpha          ....  0.666667
   Becke's b parameter  XBeta           ....  0.004200
 Correlation Functional Correlation     .... LYP
 LDA part of GGA corr.  LDAOpt          .... VWN-5
 Gradients option       PostSCFGGA      .... off
 Hybrid DFT is turned on
   Fraction HF Exchange ScalHFX         ....  0.200000
   Scaling of DF-GGA-X  ScalDFX         ....  0.720000
   Scaling of DF-GGA-C  ScalDFC         ....  0.810000
   Scaling of DF-LDA-C  ScalLDAC        ....  1.000000
   Perturbative correction              ....  0.000000
   Density functional embedding theory  .... OFF
   NL short-range parameter             ....  4.800000
 RI-approximation to the Coulomb term is turned on
   Number of AuxJ basis functions       .... 2284
   RIJ-COSX (HFX calculated with COS-X)).... on


General Settings:
 Integral files         IntName         .... Nfer_octanol
 Hartree-Fock type      HFTyp           .... RHF
 Total Charge           Charge          ....    0
 Multiplicity           Mult            ....    1
 Number of Electrons    NEL             ....  134
 Basis Dimension        Dim             ....  292
 Nuclear Repulsion      ENuc            ....   1404.0077097094 Eh

Convergence Acceleration:
 DIIS                   CNVDIIS         .... on
   Start iteration      DIISMaxIt       ....    12
   Startup error        DIISStart       ....  0.200000
   # of expansion vecs  DIISMaxEq       ....     5
   Bias factor          DIISBfac        ....   1.050
   Max. coefficient     DIISMaxC        ....  10.000
 Trust-Rad. Augm. Hess. CNVTRAH         .... auto
   Auto Start mean grad. ratio tolernc. ....  1.125000
   Auto Start start iteration           ....    20
   Auto Start num. interpolation iter.  ....    10
   Max. Number of Micro iterations      ....    16
   Max. Number of Macro iterations      .... Maxiter - #DIIS iter
   Number of Davidson start vectors     ....     2
   Converg. threshold I  (grad. norm)   ....   1.000e-05
   Converg. threshold II (energy diff.) ....   1.000e-08
   Grad. Scal. Fac. for Micro threshold ....   0.100
   Minimum threshold for Micro iter.    ....   0.010
   NR start threshold (gradient norm)   ....   0.001
   Initial trust radius                 ....   0.400
   Minimum AH scaling param. (alpha)    ....   1.000
   Maximum AH scaling param. (alpha)    .... 1000.000
   Orbital update algorithm             .... Taylor
   White noise on init. David. guess    .... on
   Maximum white noise                  ....   0.010
   Quad. conv. algorithm                .... NR
 SOSCF                  CNVSOSCF        .... on
   Start iteration      SOSCFMaxIt      ....   150
   Startup grad/error   SOSCFStart      ....  0.003300
 Level Shifting         CNVShift        .... on
   Level shift para.    LevelShift      ....    0.2500
   Turn off err/grad.   ShiftErr        ....    0.0010
 Zerner damping         CNVZerner       .... off
 Static damping         CNVDamp         .... on
   Fraction old density DampFac         ....    0.7000
   Max. Damping (<1)    DampMax         ....    0.9800
   Min. Damping (>=0)   DampMin         ....    0.0000
   Turn off err/grad.   DampErr         ....    0.1000
 Fernandez-Rico         CNVRico         .... off

SCF Procedure:
 Maximum # iterations   MaxIter         ....   125
 SCF integral mode      SCFMode         .... Direct
   Integral package                     .... SHARK and LIBINT hybrid scheme
 Reset frequency        DirectResetFreq ....    20
 Integral Threshold     Thresh          ....  2.500e-11 Eh
 Primitive CutOff       TCut            ....  2.500e-12 Eh

Convergence Tolerance:
 Convergence Check Mode ConvCheckMode   .... Total+1el-Energy
 Convergence forced     ConvForced      .... 0
 Energy Change          TolE            ....  1.000e-08 Eh
 1-El. energy change                    ....  1.000e-05 Eh
 Orbital Gradient       TolG            ....  1.000e-05
 Orbital Rotation angle TolX            ....  1.000e-05
 DIIS Error             TolErr          ....  5.000e-07


Diagonalization of the overlap matrix:
Smallest eigenvalue                        ... 4.788e-04
Time for diagonalization                   ...    0.019 sec
Threshold for overlap eigenvalues          ... 1.000e-08
Number of eigenvalues below threshold      ... 0
Time for construction of square roots      ...    0.007 sec
Total time needed                          ...    0.028 sec

Time for model grid setup =    0.344 sec

------------------------------
INITIAL GUESS: MODEL POTENTIAL
------------------------------
Loading Hartree-Fock densities                     ... done
Calculating cut-offs                               ... done
Initializing the effective Hamiltonian             ... done
Setting up the integral package (SHARK)            ... done
Starting the Coulomb interaction                   ... done (   0.3 sec)
Reading the grid                                   ... done
Mapping shells                                     ... done
Starting the XC term evaluation                    ... done (   0.2 sec)
  promolecular density results
     # of electrons  =    133.987691645
     EX              =   -107.482778686
     EC              =     -4.513739913
     EX+EC           =   -111.996518599
Transforming the Hamiltonian                       ... done (   0.0 sec)
Diagonalizing the Hamiltonian                      ... done (   0.0 sec)
Back transforming the eigenvectors                 ... done (   0.0 sec)
Now organizing SCF variables                       ... done
                      ------------------
                      INITIAL GUESS DONE (   0.9 sec)
                      ------------------
-------------------
DFT GRID GENERATION
-------------------

General Integration Accuracy     IntAcc      ... 4.388
Radial Grid Type                 RadialGrid  ... OptM3 with GC (2021)
Angular Grid (max. ang.)         AngularGrid ... 4 (Lebedev-302)
Angular grid pruning method      GridPruning ... 4 (adaptive)
Weight generation scheme         WeightScheme... Becke
Basis function cutoff            BFCut       ... 1.0000e-11
Integration weight cutoff        WCut        ... 1.0000e-14
Angular grids for H and He will be reduced by one unit
Partially contracted basis set               ... off
Rotationally invariant grid construction     ... off

Total number of grid points                  ...   170594
Total number of batches                      ...     2684
Average number of points per batch           ...       63
Average number of grid points per atom       ...     4489
Time for grid setup =    1.588 sec

--------------------
COSX GRID GENERATION
--------------------

GRIDX 1
-------
General Integration Accuracy     IntAcc      ... 3.816
Radial Grid Type                 RadialGrid  ... OptM3 with GC (2021)
Angular Grid (max. ang.)         AngularGrid ... 1 (Lebedev-50)
Angular grid pruning method      GridPruning ... 4 (adaptive)
Weight generation scheme         WeightScheme... Becke
Basis function cutoff            BFCut       ... 1.0000e-11
Integration weight cutoff        WCut        ... 1.0000e-14
Angular grids for H and He will be reduced by one unit
Partially contracted basis set               ... on
Rotationally invariant grid construction     ... off

Total number of grid points                  ...    21713
Total number of batches                      ...      360
Average number of points per batch           ...       60
Average number of grid points per atom       ...      571
UseSFitting                                  ... on

GRIDX 2
-------
General Integration Accuracy     IntAcc      ... 4.020
Radial Grid Type                 RadialGrid  ... OptM3 with GC (2021)
Angular Grid (max. ang.)         AngularGrid ... 2 (Lebedev-110)
Angular grid pruning method      GridPruning ... 4 (adaptive)
Weight generation scheme         WeightScheme... Becke
Basis function cutoff            BFCut       ... 1.0000e-11
Integration weight cutoff        WCut        ... 1.0000e-14
Angular grids for H and He will be reduced by one unit
Partially contracted basis set               ... on
Rotationally invariant grid construction     ... off

Total number of grid points                  ...    46055
Total number of batches                      ...      740
Average number of points per batch           ...       62
Average number of grid points per atom       ...     1212
UseSFitting                                  ... on

GRIDX 3
-------
General Integration Accuracy     IntAcc      ... 4.338
Radial Grid Type                 RadialGrid  ... OptM3 with GC (2021)
Angular Grid (max. ang.)         AngularGrid ... 3 (Lebedev-194)
Angular grid pruning method      GridPruning ... 4 (adaptive)
Weight generation scheme         WeightScheme... Becke
Basis function cutoff            BFCut       ... 1.0000e-11
Integration weight cutoff        WCut        ... 1.0000e-14
Angular grids for H and He will be reduced by one unit
Partially contracted basis set               ... on
Rotationally invariant grid construction     ... off

Total number of grid points                  ...   100269
Total number of batches                      ...     1587
Average number of points per batch           ...       63
Average number of grid points per atom       ...     2639
UseSFitting                                  ... on

Time for X-Grid setup             =    1.597 sec


--------------------
CPCM SOLVATION MODEL
--------------------
CPCM parameters:
  Epsilon                                         ...       9.8629
  Refrac                                          ...       1.4295
  Rsolv                                           ...       1.3000
  Surface type                                    ... GAUSSIAN VDW
  Epsilon function type                           ...         CPCM
Radii:
 Radius for C  used is    3.8550 Bohr (=   2.0400 Ang.)
 Radius for H  used is    2.4944 Bohr (=   1.3200 Ang.)
 Radius for N  used is    3.5149 Bohr (=   1.8600 Ang.)
 Radius for O  used is    3.4469 Bohr (=   1.8240 Ang.)
Calculating surface                               ...        done! (  0.0s)
GEPOL surface points                              ...         1920
GEPOL Volume                                      ...    2103.1574
GEPOL Surface-area                                ...    1054.9054
Calculating surface distance matrix               ...        done! (  0.0s)
Performing Cholesky decomposition & store         ...        done! (  0.1s)
Overall time for CPCM initialization              ...                 0.2s
--------------
SCF ITERATIONS
--------------
ITER       Energy         Delta-E        Max-DP      RMS-DP      [F,P]     Damp
               ***  Starting incremental Fock matrix formation  ***
  0   -804.5124744621   0.000000000000 0.09197168  0.00185564  0.2732337 0.7000
  1   -804.7399372600  -0.227462797880 0.05129377  0.00125049  0.1076212 0.7000
                               ***Turning on DIIS***
  2   -804.8305567593  -0.090619499264 0.06495490  0.00199976  0.0392708 0.0000
  3   -804.9743881886  -0.143831429324 0.03518477  0.00085300  0.0551201 0.0000
  4   -805.0035324744  -0.029144285811 0.00903941  0.00028261  0.0116166 0.0000
  5   -805.0055873463  -0.002054871867 0.00365544  0.00008830  0.0060196 0.0000
                      *** Initiating the SOSCF procedure ***
                           *** Shutting down DIIS ***
                      *** Re-Reading the Fockian *** 
                      *** Removing any level shift *** 
ITER      Energy       Delta-E        Grad      Rot      Max-DP    RMS-DP
  6   -805.00572555  -0.0001382034  0.000214  0.000214  0.001510  0.000038
               *** Restarting incremental Fock matrix formation ***
  7   -805.00568646   0.0000390858  0.000280  0.001093  0.001858  0.000025
  8   -805.00567868   0.0000077797  0.000544  0.000762  0.001223  0.000017
  9   -805.00569038  -0.0000117000  0.000056  0.000156  0.000333  0.000006
 10   -805.00568992   0.0000004683  0.000110  0.000103  0.000227  0.000004
 11   -805.00569054  -0.0000006273  0.000004  0.000007  0.000033  0.000001
 12   -805.00569055  -0.0000000034  0.000003  0.000005  0.000018  0.000000
                  ***Gradient check signals convergence***
              ***Rediagonalizing the Fockian in SOSCF/NRSCF***

               *****************************************************
               *                     SUCCESS                       *
               *           SCF CONVERGED AFTER  13 CYCLES          *
               *****************************************************

Old exchange energy                            =    -21.901772059 Eh
New exchange energy                            =    -21.901805277 Eh
Exchange energy change after final integration =     -0.000033218 Eh
Total energy after final integration           =   -805.005723761 Eh
Final COS-X integration done in                =    15.485 sec

----------------
TOTAL SCF ENERGY
----------------

Total Energy       :         -805.00572376 Eh          -21905.31939 eV

Components:
Nuclear Repulsion  :         1404.00770971 Eh           38204.99209 eV
Electronic Energy  :        -2209.01343347 Eh          -60110.31147 eV
One Electron Energy:        -3882.08263464 Eh         -105636.83896 eV
Two Electron Energy:         1673.06920117 Eh           45526.52749 eV
Max COSX asymmetry :            0.00000335 Eh               0.00009 eV
CPCM Dielectric    :           -0.01842794 Eh              -0.50145 eV

Virial components:
Potential Energy   :        -1605.29479116 Eh          -43682.29203 eV
Kinetic Energy     :          800.28906740 Eh           21776.97264 eV
Virial Ratio       :            2.00589369


DFT components:
N(Alpha)           :       67.000047997841 electrons
N(Beta)            :       67.000047997841 electrons
N(Total)           :      134.000095995683 electrons
E(X)               :      -86.946646258726 Eh       
E(C)               :       -5.318481269854 Eh       
E(XC)              :      -92.265127528580 Eh       
DFET-embed. en.    :        0.000000000000 Eh       
CPCM Solvation Model Properties:
Surface-charge          :           -0.02223467
Charge-correction       :           -0.00017612 Eh              -0.00479 eV
Free-energy (cav+disp)  :  This term is not implemented in the current solvation scheme

---------------
SCF CONVERGENCE
---------------

  Last Energy change         ...    3.8299e-09  Tolerance :   1.0000e-08
  Last MAX-Density change    ...    3.1086e-15  Tolerance :   1.0000e-07
  Last RMS-Density change    ...    3.8997e-17  Tolerance :   5.0000e-09
  Last Orbital Gradient      ...    1.0499e-06  Tolerance :   1.0000e-05
  Last Orbital Rotation      ...    3.9243e-06  Tolerance :   1.0000e-05

             **** THE GBW FILE WAS UPDATED (Nfer_octanol.gbw) ****
             **** DENSITY Nfer_octanol.scfp WAS UPDATED ****
             **** ENERGY FILE WAS UPDATED (Nfer_octanol.en.tmp) ****
             **** THE GBW FILE WAS UPDATED (Nfer_octanol.gbw) ****
             **** DENSITY Nfer_octanol.scfp WAS UPDATED ****
----------------
ORBITAL ENERGIES
----------------

  NO   OCC          E(Eh)            E(eV) 
   0   2.0000     -19.109324      -519.9912 
   1   2.0000     -19.107866      -519.9515 
   2   2.0000     -14.359647      -390.7459 
   3   2.0000     -14.357294      -390.6818 
   4   2.0000     -10.283651      -279.8324 
   5   2.0000     -10.282963      -279.8137 
   6   2.0000     -10.218604      -278.0624 
   7   2.0000     -10.212942      -277.9083 
   8   2.0000     -10.198968      -277.5280 
   9   2.0000     -10.195824      -277.4425 
  10   2.0000     -10.187038      -277.2034 
  11   2.0000     -10.181566      -277.0545 
  12   2.0000     -10.181123      -277.0425 
  13   2.0000     -10.180860      -277.0353 
  14   2.0000     -10.180481      -277.0250 
  15   2.0000     -10.178484      -276.9706 
  16   2.0000     -10.170028      -276.7405 
  17   2.0000     -10.164583      -276.5924 
  18   2.0000      -1.031395       -28.0657 
  19   2.0000      -1.025868       -27.9153 
  20   2.0000      -0.935379       -25.4529 
  21   2.0000      -0.926324       -25.2066 
  22   2.0000      -0.851696       -23.1758 
  23   2.0000      -0.785033       -21.3618 
  24   2.0000      -0.743319       -20.2267 
  25   2.0000      -0.740132       -20.1400 
  26   2.0000      -0.732246       -19.9254 
  27   2.0000      -0.713284       -19.4094 
  28   2.0000      -0.711287       -19.3551 
  29   2.0000      -0.678836       -18.4721 
  30   2.0000      -0.634820       -17.2743 
  31   2.0000      -0.600034       -16.3278 
  32   2.0000      -0.582255       -15.8440 
  33   2.0000      -0.559451       -15.2234 
  34   2.0000      -0.535282       -14.5658 
  35   2.0000      -0.514841       -14.0095 
  36   2.0000      -0.493565       -13.4306 
  37   2.0000      -0.480444       -13.0736 
  38   2.0000      -0.478697       -13.0260 
  39   2.0000      -0.463322       -12.6076 
  40   2.0000      -0.457207       -12.4412 
  41   2.0000      -0.453478       -12.3398 
  42   2.0000      -0.447812       -12.1856 
  43   2.0000      -0.441122       -12.0035 
  44   2.0000      -0.424517       -11.5517 
  45   2.0000      -0.416272       -11.3273 
  46   2.0000      -0.413331       -11.2473 
  47   2.0000      -0.406487       -11.0611 
  48   2.0000      -0.401243       -10.9184 
  49   2.0000      -0.398751       -10.8506 
  50   2.0000      -0.396331       -10.7847 
  51   2.0000      -0.391619       -10.6565 
  52   2.0000      -0.379778       -10.3343 
  53   2.0000      -0.376714       -10.2509 
  54   2.0000      -0.372559       -10.1378 
  55   2.0000      -0.361516        -9.8374 
  56   2.0000      -0.354344        -9.6422 
  57   2.0000      -0.352474        -9.5913 
  58   2.0000      -0.347301        -9.4505 
  59   2.0000      -0.331866        -9.0305 
  60   2.0000      -0.329051        -8.9539 
  61   2.0000      -0.256736        -6.9861 
  62   2.0000      -0.254633        -6.9289 
  63   2.0000      -0.249650        -6.7933 
  64   2.0000      -0.243558        -6.6275 
  65   2.0000      -0.237956        -6.4751 
  66   2.0000      -0.232587        -6.3290 
  67   0.0000      -0.004441        -0.1208 
  68   0.0000      -0.001780        -0.0484 
  69   0.0000       0.017942         0.4882 
  70   0.0000       0.023360         0.6357 
  71   0.0000       0.088169         2.3992 
  72   0.0000       0.100865         2.7447 
  73   0.0000       0.112012         3.0480 
  74   0.0000       0.128060         3.4847 
  75   0.0000       0.139601         3.7987 
  76   0.0000       0.142715         3.8835 
  77   0.0000       0.145895         3.9700 
  78   0.0000       0.154452         4.2029 
  79   0.0000       0.157080         4.2744 
  80   0.0000       0.163041         4.4366 
  81   0.0000       0.165543         4.5047 
  82   0.0000       0.169579         4.6145 
  83   0.0000       0.171345         4.6625 
  84   0.0000       0.175574         4.7776 
  85   0.0000       0.180446         4.9102 
  86   0.0000       0.183907         5.0044 
  87   0.0000       0.190066         5.1720 
  88   0.0000       0.193058         5.2534 
  89   0.0000       0.198919         5.4129 
  90   0.0000       0.206393         5.6162 
  91   0.0000       0.215760         5.8711 
  92   0.0000       0.220553         6.0015 
  93   0.0000       0.226483         6.1629 
  94   0.0000       0.233147         6.3443 
  95   0.0000       0.240718         6.5503 
  96   0.0000       0.246609         6.7106 
  97   0.0000       0.258350         7.0301 
  98   0.0000       0.282543         7.6884 
  99   0.0000       0.300575         8.1791 
 100   0.0000       0.310069         8.4374 
 101   0.0000       0.319503         8.6941 
 102   0.0000       0.335951         9.1417 
 103   0.0000       0.338473         9.2103 
 104   0.0000       0.350073         9.5260 
 105   0.0000       0.369715        10.0605 
 106   0.0000       0.375138        10.2080 
 107   0.0000       0.411626        11.2009 
 108   0.0000       0.459776        12.5111 
 109   0.0000       0.471489        12.8299 
 110   0.0000       0.485562        13.2128 
 111   0.0000       0.500052        13.6071 
 112   0.0000       0.513006        13.9596 
 113   0.0000       0.529023        14.3954 
 114   0.0000       0.540871        14.7179 
 115   0.0000       0.541787        14.7428 
 116   0.0000       0.547213        14.8904 
 117   0.0000       0.559248        15.2179 
 118   0.0000       0.561042        15.2667 
 119   0.0000       0.571848        15.5608 
 120   0.0000       0.582217        15.8429 
 121   0.0000       0.588014        16.0007 
 122   0.0000       0.595230        16.1970 
 123   0.0000       0.608892        16.5688 
 124   0.0000       0.610811        16.6210 
 125   0.0000       0.618806        16.8386 
 126   0.0000       0.622958        16.9515 
 127   0.0000       0.624733        16.9999 
 128   0.0000       0.627349        17.0710 
 129   0.0000       0.642437        17.4816 
 130   0.0000       0.656709        17.8699 
 131   0.0000       0.663340        18.0504 
 132   0.0000       0.667239        18.1565 
 133   0.0000       0.673876        18.3371 
 134   0.0000       0.690769        18.7968 
 135   0.0000       0.699224        19.0269 
 136   0.0000       0.703096        19.1322 
 137   0.0000       0.725902        19.7528 
 138   0.0000       0.741686        20.1823 
 139   0.0000       0.755051        20.5460 
 140   0.0000       0.762280        20.7427 
 141   0.0000       0.781599        21.2684 
 142   0.0000       0.799588        21.7579 
 143   0.0000       0.809215        22.0199 
 144   0.0000       0.822565        22.3831 
 145   0.0000       0.825789        22.4709 
 146   0.0000       0.835417        22.7328 
 147   0.0000       0.840909        22.8823 
 148   0.0000       0.844917        22.9914 
 149   0.0000       0.849943        23.1281 
 150   0.0000       0.857654        23.3380 
 151   0.0000       0.863908        23.5081 
 152   0.0000       0.866568        23.5805 
 153   0.0000       0.876584        23.8531 
 154   0.0000       0.884503        24.0685 
 155   0.0000       0.892055        24.2740 
 156   0.0000       0.894874        24.3508 
 157   0.0000       0.900578        24.5060 
 158   0.0000       0.909590        24.7512 
 159   0.0000       0.915874        24.9222 
 160   0.0000       0.920996        25.0616 
 161   0.0000       0.931354        25.3434 
 162   0.0000       0.940404        25.5897 
 163   0.0000       0.958908        26.0932 
 164   0.0000       0.958949        26.0943 
 165   0.0000       0.965657        26.2769 
 166   0.0000       0.979168        26.6445 
 167   0.0000       0.983835        26.7715 
 168   0.0000       0.990469        26.9520 
 169   0.0000       0.993443        27.0330 
 170   0.0000       1.017523        27.6882 
 171   0.0000       1.020000        27.7556 
 172   0.0000       1.034178        28.1414 
 173   0.0000       1.044278        28.4163 
 174   0.0000       1.056269        28.7425 
 175   0.0000       1.075015        29.2527 
 176   0.0000       1.092483        29.7280 
 177   0.0000       1.110330        30.2136 
 178   0.0000       1.119388        30.4601 
 179   0.0000       1.140264        31.0282 
 180   0.0000       1.152843        31.3705 
 181   0.0000       1.153997        31.4019 
 182   0.0000       1.165822        31.7236 
 183   0.0000       1.189588        32.3703 
 184   0.0000       1.192994        32.4630 
 185   0.0000       1.227380        33.3987 
 186   0.0000       1.254750        34.1435 
 187   0.0000       1.262598        34.3570 
 188   0.0000       1.278985        34.8030 
 189   0.0000       1.312730        35.7212 
 190   0.0000       1.337953        36.4075 
 191   0.0000       1.361390        37.0453 
 192   0.0000       1.374845        37.4114 
 193   0.0000       1.396188        37.9922 
 194   0.0000       1.424059        38.7506 
 195   0.0000       1.430999        38.9395 
 196   0.0000       1.434860        39.0445 
 197   0.0000       1.448959        39.4282 
 198   0.0000       1.449649        39.4470 
 199   0.0000       1.463269        39.8176 
 200   0.0000       1.485384        40.4194 
 201   0.0000       1.494235        40.6602 
 202   0.0000       1.504527        40.9403 
 203   0.0000       1.517485        41.2929 
 204   0.0000       1.525377        41.5076 
 205   0.0000       1.563766        42.5522 
 206   0.0000       1.589246        43.2456 
 207   0.0000       1.616906        43.9982 
 208   0.0000       1.636135        44.5215 
 209   0.0000       1.689810        45.9821 
 210   0.0000       1.698727        46.2247 
 211   0.0000       1.712933        46.6113 
 212   0.0000       1.749229        47.5989 
 213   0.0000       1.762732        47.9664 
 214   0.0000       1.780804        48.4581 
 215   0.0000       1.805468        49.1293 
 216   0.0000       1.812245        49.3137 
 217   0.0000       1.819371        49.5076 
 218   0.0000       1.829218        49.7756 
 219   0.0000       1.845650        50.2227 
 220   0.0000       1.862712        50.6870 
 221   0.0000       1.869446        50.8702 
 222   0.0000       1.886310        51.3291 
 223   0.0000       1.911653        52.0187 
 224   0.0000       1.917683        52.1828 
 225   0.0000       1.923746        52.3478 
 226   0.0000       1.927226        52.4425 
 227   0.0000       1.946088        52.9557 
 228   0.0000       1.953915        53.1687 
 229   0.0000       1.977988        53.8238 
 230   0.0000       1.980571        53.8941 
 231   0.0000       1.989001        54.1235 
 232   0.0000       1.991857        54.2012 
 233   0.0000       2.011607        54.7386 
 234   0.0000       2.020575        54.9827 
 235   0.0000       2.045603        55.6637 
 236   0.0000       2.059447        56.0404 
 237   0.0000       2.074847        56.4595 
 238   0.0000       2.082294        56.6621 
 239   0.0000       2.100751        57.1643 
 240   0.0000       2.104410        57.2639 
 241   0.0000       2.118125        57.6371 
 242   0.0000       2.124756        57.8175 
 243   0.0000       2.136262        58.1307 
 244   0.0000       2.149272        58.4847 
 245   0.0000       2.171774        59.0970 
 246   0.0000       2.183522        59.4167 
 247   0.0000       2.205054        60.0026 
 248   0.0000       2.224635        60.5354 
 249   0.0000       2.232787        60.7572 
 250   0.0000       2.245196        61.0949 
 251   0.0000       2.259125        61.4739 
 252   0.0000       2.271485        61.8103 
 253   0.0000       2.304393        62.7057 
 254   0.0000       2.306724        62.7691 
 255   0.0000       2.317418        63.0601 
 256   0.0000       2.317618        63.0656 
 257   0.0000       2.338480        63.6333 
 258   0.0000       2.344374        63.7937 
 259   0.0000       2.365620        64.3718 
 260   0.0000       2.380645        64.7806 
 261   0.0000       2.403803        65.4108 
 262   0.0000       2.417361        65.7797 
 263   0.0000       2.438234        66.3477 
 264   0.0000       2.475768        67.3691 
 265   0.0000       2.493414        67.8493 
 266   0.0000       2.504920        68.1623 
 267   0.0000       2.563130        69.7463 
 268   0.0000       2.583423        70.2985 
 269   0.0000       2.588858        70.4464 
 270   0.0000       2.598382        70.7056 
 271   0.0000       2.607736        70.9601 
 272   0.0000       2.634305        71.6831 
 273   0.0000       2.647587        72.0445 
 274   0.0000       2.659942        72.3807 
 275   0.0000       2.670519        72.6685 
 276   0.0000       2.698112        73.4194 
 277   0.0000       2.733429        74.3804 
 278   0.0000       2.747535        74.7642 
 279   0.0000       2.757052        75.0232 
 280   0.0000       2.765941        75.2651 
 281   0.0000       2.795294        76.0638 
 282   0.0000       2.833631        77.1070 
 283   0.0000       2.886358        78.5418 
 284   0.0000       2.931720        79.7762 
 285   0.0000       2.963393        80.6380 
 286   0.0000       3.003335        81.7249 
 287   0.0000       3.034345        82.5687 
 288   0.0000       3.079601        83.8002 
 289   0.0000       3.164083        86.0991 
 290   0.0000       3.187376        86.7329 
 291   0.0000       3.415029        92.9277 

                    ********************************
                    * MULLIKEN POPULATION ANALYSIS *
                    ********************************

-----------------------
MULLIKEN ATOMIC CHARGES
-----------------------
   0 C :   -0.568286
   1 H :    0.192160
   2 H :    0.181522
   3 H :    0.200852
   4 C :    0.536826
   5 N :   -0.382523
   6 C :   -0.077774
   7 H :    0.184015
   8 C :    0.146894
   9 C :   -0.185386
  10 C :   -0.200842
  11 C :   -0.147004
  12 H :    0.151323
  13 C :   -0.148694
  14 H :    0.154094
  15 C :   -0.145930
  16 H :    0.151340
  17 H :    0.151282
  18 H :    0.150497
  19 C :   -0.259015
  20 H :    0.187815
  21 H :    0.202066
  22 C :    0.519600
  23 N :   -0.357216
  24 O :   -0.538206
  25 O :   -0.528465
  26 C :   -0.333790
  27 H :    0.172323
  28 H :    0.172216
  29 H :    0.193230
  30 C :   -0.332037
  31 H :    0.171409
  32 H :    0.171133
  33 H :    0.187681
  34 C :   -0.467564
  35 H :    0.163126
  36 H :    0.165524
  37 H :    0.165802
Sum of atomic charges:   -0.0000000

--------------------------------
MULLIKEN REDUCED ORBITAL CHARGES
--------------------------------
  0 C s       :     3.325749  s :     3.325749
      pz      :     1.114495  p :     3.210530
      px      :     0.984671
      py      :     1.111363
      dz2     :     0.006644  d :     0.032007
      dxz     :     0.006232
      dyz     :     0.006054
      dx2y2   :     0.009193
      dxy     :     0.003884
  1 H s       :     0.807840  s :     0.807840
  2 H s       :     0.818478  s :     0.818478
  3 H s       :     0.799148  s :     0.799148
  4 C s       :     2.985039  s :     2.985039
      pz      :     0.766087  p :     2.371161
      px      :     0.830980
      py      :     0.774094
      dz2     :     0.029985  d :     0.106975
      dxz     :     0.024528
      dyz     :     0.017471
      dx2y2   :     0.017348
      dxy     :     0.017642
  5 N s       :     3.543081  s :     3.543081
      pz      :     1.222451  p :     3.803424
      px      :     1.141122
      py      :     1.439851
      dz2     :     0.007165  d :     0.036019
      dxz     :     0.009363
      dyz     :     0.006219
      dx2y2   :     0.005455
      dxy     :     0.007816
  6 C s       :     3.206697  s :     3.206697
      pz      :     1.032230  p :     2.812228
      px      :     0.797618
      py      :     0.982381
      dz2     :     0.010920  d :     0.058848
      dxz     :     0.006943
      dyz     :     0.013155
      dx2y2   :     0.012984
      dxy     :     0.014846
  7 H s       :     0.815985  s :     0.815985
  8 C s       :     3.138282  s :     3.138282
[...]
    107       0.000096  -0.000004  -0.000599   0.000129  -0.000684   0.000182
    108       0.002442  -0.000100   0.001397  -0.003291   0.001874  -0.001166
    109      -0.000610   0.000048  -0.000253   0.000737  -0.000383   0.000437
    110       0.000547  -0.000008   0.000411  -0.000812   0.000601  -0.000156
    111       0.002635  -0.000026   0.001650  -0.003098   0.001989  -0.000208
    112      -0.012347   0.000128  -0.009885   0.017876  -0.013882   0.001758
    113      -0.016834   0.000199  -0.011879   0.022782  -0.016897   0.002191


-----------
IR SPECTRUM
-----------

 Mode   freq       eps      Int      T**2         TX        TY        TZ
       cm**-1   L/(mol*cm) km/mol    a.u.
----------------------------------------------------------------------------
  6:     34.28   0.000321    1.62  0.002924  ( 0.031139  0.008804 -0.043318)
  7:     49.74   0.000788    3.98  0.004947  (-0.030736 -0.052210 -0.035723)
  8:     51.81   0.000103    0.52  0.000623  ( 0.021954  0.009734  0.006793)
  9:     67.00   0.000425    2.15  0.001978  (-0.013950 -0.040519 -0.011889)
 10:     70.18   0.001253    6.33  0.005573  (-0.014837  0.063433 -0.036454)
 11:     88.28   0.000393    1.99  0.001391  (-0.011433  0.019918 -0.029385)
 12:     99.80   0.000745    3.76  0.002329  ( 0.011922  0.044265 -0.015083)
 13:    118.96   0.000329    1.66  0.000863  ( 0.014644 -0.004868 -0.024996)
 14:    154.99   0.000946    4.78  0.001905  ( 0.010990  0.041963  0.004800)
 15:    171.42   0.000953    4.81  0.001734  ( 0.035563  0.017372  0.012950)
 16:    187.29   0.000308    1.56  0.000513  ( 0.000620  0.019675 -0.011196)
 17:    201.49   0.000672    3.40  0.001041  ( 0.027171  0.009066  0.014836)
 18:    210.74   0.000270    1.37  0.000400  ( 0.014778  0.009315  0.009740)
 19:    232.30   0.000167    0.85  0.000225  ( 0.011314 -0.008585 -0.004808)
 20:    244.65   0.002219   11.21  0.002830  ( 0.018743  0.036033  0.034355)
 21:    267.99   0.000425    2.15  0.000494  (-0.016065  0.009204 -0.012315)
 22:    278.16   0.000291    1.47  0.000326  ( 0.013040 -0.007896  0.009697)
 23:    314.63   0.001780    9.00  0.001766  (-0.013306 -0.031810  0.024017)
 24:    324.06   0.000176    0.89  0.000170  (-0.002553  0.004991  0.011768)
 25:    354.57   0.000845    4.27  0.000744  ( 0.007662  0.025175  0.007154)
 26:    404.19   0.001521    7.68  0.001174  (-0.010044  0.023721 -0.022592)
 27:    417.07   0.000106    0.53  0.000079  (-0.005009 -0.007248  0.001256)
 28:    441.89   0.000871    4.40  0.000615  ( 0.005532  0.024179  0.000011)
 29:    457.47   0.002554   12.91  0.001743  (-0.032486  0.020785 -0.015975)
 30:    516.78   0.001106    5.59  0.000668  ( 0.012087  0.022224  0.005288)
 31:    550.74   0.006938   35.06  0.003931  ( 0.049020 -0.020433  0.033325)
 32:    581.03   0.005019   25.37  0.002696  (-0.020554  0.028167  0.038471)
 33:    595.55   0.001005    5.08  0.000526  ( 0.012413 -0.019298  0.000093)
 34:    615.59   0.008290   41.89  0.004203  ( 0.023304  0.060119 -0.006718)
 35:    630.07   0.000139    0.70  0.000069  (-0.003043  0.005178 -0.005732)
 36:    636.45   0.000375    1.89  0.000184  (-0.000636  0.013095 -0.003433)
 37:    682.18   0.002288   11.56  0.001047  ( 0.028394  0.015085 -0.003569)
 38:    718.27   0.010868   54.92  0.004722  ( 0.052341 -0.044490  0.001670)
 39:    757.72   0.003370   17.03  0.001388  ( 0.023249  0.029038 -0.002089)
 40:    777.51   0.004451   22.50  0.001787  (-0.011999  0.040522  0.000759)
 41:    795.93   0.000183    0.92  0.000072  ( 0.003769 -0.007546 -0.000646)
 42:    819.13   0.005331   26.94  0.002031  (-0.043076 -0.004864  0.012315)
 43:    868.57   0.000002    0.01  0.000001  (-0.000818 -0.000297  0.000047)
 44:    927.63   0.000315    1.59  0.000106  (-0.009658  0.003534  0.000318)
 45:    938.50   0.002124   10.74  0.000706  (-0.022418  0.013578  0.004409)
 46:    981.93   0.000032    0.16  0.000010  (-0.002715  0.000443  0.001642)
 47:    999.03   0.004355   22.01  0.001360  ( 0.018147  0.032032 -0.002235)
 48:   1005.37   0.000701    3.54  0.000218  (-0.007831  0.010230 -0.007183)
 49:   1009.97   0.008280   41.84  0.002558  (-0.005554  0.019561 -0.046314)
 50:   1016.14   0.000164    0.83  0.000050  ( 0.005293 -0.004710 -0.000102)
 51:   1022.79   0.002687   13.58  0.000820  (-0.001855 -0.024834  0.014126)
 52:   1056.56   0.002365   11.95  0.000698  ( 0.022997  0.012581  0.003369)
 53:   1060.36   0.003581   18.10  0.001054  (-0.003805 -0.032160 -0.002268)
 54:   1064.87   0.000970    4.90  0.000284  (-0.002179  0.006054 -0.015583)
 55:   1085.77   0.005331   26.94  0.001532  (-0.026656 -0.018338 -0.022030)
 56:   1088.77   0.001725    8.72  0.000495  (-0.019550  0.007040  0.007921)
 57:   1101.03   0.001220    6.16  0.000346  (-0.004527  0.006011 -0.017002)
 58:   1136.06   0.000705    3.56  0.000194  (-0.010004 -0.003922  0.008846)
 59:   1149.11   0.002990   15.11  0.000812  ( 0.020986 -0.016771 -0.009502)
 60:   1177.50   0.001431    7.23  0.000379  ( 0.015740  0.010363 -0.004908)
 61:   1184.66   0.000022    0.11  0.000006  (-0.000619  0.000475  0.002250)
 62:   1196.07   0.017087   86.35  0.004458  ( 0.016808  0.050923 -0.039780)
 63:   1202.29   0.023934  120.95  0.006212  ( 0.075369 -0.006572  0.022106)
 64:   1211.58   0.001022    5.17  0.000263  ( 0.015157 -0.002596  0.005175)
 65:   1241.12   0.009559   48.31  0.002403  ( 0.043369  0.021085  0.008829)
 66:   1292.67   0.009930   50.18  0.002397  (-0.014278  0.046753 -0.002744)
 67:   1306.45   0.003974   20.08  0.000949  ( 0.029224 -0.009608 -0.001682)
 68:   1332.32   0.046768  236.35  0.010954  (-0.046010 -0.032242 -0.088306)
 69:   1336.22   0.001853    9.36  0.000433  (-0.015952 -0.013320  0.000875)
 70:   1367.00   0.000071    0.36  0.000016  (-0.001839  0.000947 -0.003453)
 71:   1385.77   0.004099   20.71  0.000923  (-0.014956  0.004848  0.025998)
 72:   1408.29   0.001218    6.15  0.000270  ( 0.012684  0.010438 -0.000054)
 73:   1416.97   0.003698   18.69  0.000815  ( 0.023500 -0.011551  0.011350)
 74:   1433.05   0.002022   10.22  0.000440  ( 0.009935  0.018103  0.003732)
 75:   1441.50   0.016538   83.57  0.003580  ( 0.014854  0.046259 -0.034924)
 76:   1454.89   0.025993  131.36  0.005575  (-0.040626  0.012332 -0.061423)
 77:   1463.86   0.021687  109.60  0.004623  ( 0.025722  0.055873  0.028980)
 78:   1486.45   0.003292   16.64  0.000691  ( 0.023357  0.008184  0.008868)
 79:   1494.98   0.003464   17.50  0.000723  (-0.020930  0.013892  0.009588)
 80:   1500.10   0.001506    7.61  0.000313  ( 0.007505 -0.002264 -0.015870)
 81:   1504.16   0.003294   16.64  0.000683  ( 0.013367 -0.017435  0.014166)
 82:   1508.33   0.005912   29.88  0.001223  ( 0.022870  0.026083 -0.004458)
 83:   1510.33   0.004589   23.19  0.000948  (-0.016299 -0.013274 -0.022503)
 84:   1511.98   0.002584   13.06  0.000533  (-0.018401  0.013416  0.003829)
 85:   1516.42   0.004682   23.66  0.000964  (-0.001709 -0.018682 -0.024730)
 86:   1523.15   0.005503   27.81  0.001127  (-0.028469  0.003880 -0.017375)
 87:   1525.70   0.004846   24.49  0.000991  ( 0.011406  0.001727  0.029294)
 88:   1544.75   0.003422   17.29  0.000691  (-0.016553 -0.020424 -0.000356)
 89:   1553.87   0.015378   77.71  0.003088  (-0.015480  0.047288 -0.024748)
 90:   1641.29   0.001014    5.13  0.000193  ( 0.001466 -0.009435 -0.010084)
 91:   1661.49   0.000701    3.54  0.000132  ( 0.008920  0.006988  0.001791)
 92:   1705.68   0.106703  539.23  0.019522  (-0.035333  0.067831  0.116930)
 93:   1716.40   0.103095  521.00  0.018744  ( 0.101900  0.056347 -0.072010)
 94:   3044.01   0.008711   44.02  0.000893  ( 0.015594 -0.025304  0.003094)
 95:   3051.91   0.012179   61.55  0.001245  (-0.012474 -0.017989  0.027678)
 96:   3058.15   0.003251   16.43  0.000332  ( 0.003845 -0.011482  0.013605)
 97:   3068.84   0.006020   30.42  0.000612  ( 0.008374  0.001965 -0.023199)
 98:   3070.59   0.000852    4.30  0.000087  (-0.006250  0.000868 -0.006836)
 99:   3097.77   0.009487   47.95  0.000956  ( 0.006347  0.018764  0.023735)
100:   3110.67   0.005676   28.69  0.000569  (-0.002894 -0.023522 -0.002791)
101:   3112.19   0.001925    9.73  0.000193  ( 0.007675  0.004936 -0.010476)
102:   3123.63   0.006012   30.38  0.000601  ( 0.005817  0.018764  0.014653)
103:   3128.56   0.006701   33.86  0.000668  ( 0.025052  0.006239 -0.001362)
104:   3141.51   0.002037   10.30  0.000202  (-0.007676 -0.011648  0.002790)
105:   3144.33   0.003998   20.20  0.000397  ( 0.014978 -0.012955 -0.002147)
106:   3169.23   0.001908    9.64  0.000188  ( 0.000984  0.006736  0.011897)
107:   3185.20   0.000276    1.40  0.000027  ( 0.003622  0.003514 -0.001263)
108:   3191.70   0.000607    3.07  0.000059  (-0.000400  0.001291 -0.007585)
109:   3193.70   0.000835    4.22  0.000082  (-0.008961  0.000060  0.001114)
110:   3200.00   0.004712   23.81  0.000459  (-0.011712 -0.014550 -0.010516)
111:   3207.55   0.008702   43.98  0.000847  ( 0.009033  0.008250 -0.026400)
112:   3214.27   0.003135   15.85  0.000304  ( 0.011860  0.011132  0.006311)
113:   3218.54   0.000912    4.61  0.000088  ( 0.000771  0.000353 -0.009367)

* The epsilon (eps) is given for a Dirac delta lineshape.
** The dipole moment derivative (T) already includes vibrational overlap.

The first frequency considered to be a vibration is 6
The total number of vibrations considered is 108


--------------------------
THERMOCHEMISTRY AT 298.15K
--------------------------

Temperature         ... 298.15 K
Pressure            ... 1.00 atm
Total Mass          ... 248.33 AMU

Throughout the following assumptions are being made:
  (1) The electronic state is orbitally nondegenerate
  (2) There are no thermally accessible electronically excited states
  (3) Hindered rotations indicated by low frequency modes are not
      treated as such but are treated as vibrations and this may
      cause some error
  (4) All equations used are the standard statistical mechanics
      equations for an ideal gas
  (5) All vibrations are strictly harmonic

freq.      34.28  E(vib)   ...       0.54 
freq.      49.74  E(vib)   ...       0.52 
freq.      51.81  E(vib)   ...       0.52 
freq.      67.00  E(vib)   ...       0.50 
freq.      70.18  E(vib)   ...       0.50 
freq.      88.28  E(vib)   ...       0.48 
freq.      99.80  E(vib)   ...       0.46 
freq.     118.96  E(vib)   ...       0.44 
freq.     154.99  E(vib)   ...       0.40 
freq.     171.42  E(vib)   ...       0.38 
freq.     187.29  E(vib)   ...       0.36 
freq.     201.49  E(vib)   ...       0.35 
freq.     210.74  E(vib)   ...       0.34 
freq.     232.30  E(vib)   ...       0.32 
freq.     244.65  E(vib)   ...       0.31 
freq.     267.99  E(vib)   ...       0.29 
freq.     278.16  E(vib)   ...       0.28 
freq.     314.63  E(vib)   ...       0.25 
freq.     324.06  E(vib)   ...       0.25 
freq.     354.57  E(vib)   ...       0.22 
freq.     404.19  E(vib)   ...       0.19 
freq.     417.07  E(vib)   ...       0.18 
freq.     441.89  E(vib)   ...       0.17 
freq.     457.47  E(vib)   ...       0.16 
freq.     516.78  E(vib)   ...       0.13 
freq.     550.74  E(vib)   ...       0.12 
freq.     581.03  E(vib)   ...       0.11 
freq.     595.55  E(vib)   ...       0.10 
freq.     615.59  E(vib)   ...       0.10 
freq.     630.07  E(vib)   ...       0.09 
freq.     636.45  E(vib)   ...       0.09 
freq.     682.18  E(vib)   ...       0.08 
freq.     718.27  E(vib)   ...       0.07 
freq.     757.72  E(vib)   ...       0.06 
freq.     777.51  E(vib)   ...       0.05 
freq.     795.93  E(vib)   ...       0.05 
freq.     819.13  E(vib)   ...       0.05 
freq.     868.57  E(vib)   ...       0.04 
freq.     927.63  E(vib)   ...       0.03 
freq.     938.50  E(vib)   ...       0.03 
freq.     981.93  E(vib)   ...       0.02 
freq.     999.03  E(vib)   ...       0.02 
freq.    1005.37  E(vib)   ...       0.02 
freq.    1009.97  E(vib)   ...       0.02 
freq.    1016.14  E(vib)   ...       0.02 
freq.    1022.79  E(vib)   ...       0.02 
freq.    1056.56  E(vib)   ...       0.02 
freq.    1060.36  E(vib)   ...       0.02 
freq.    1064.87  E(vib)   ...       0.02 
freq.    1085.77  E(vib)   ...       0.02 
freq.    1088.77  E(vib)   ...       0.02 
freq.    1101.03  E(vib)   ...       0.02 
freq.    1136.06  E(vib)   ...       0.01 
freq.    1149.11  E(vib)   ...       0.01 
freq.    1177.50  E(vib)   ...       0.01 
freq.    1184.66  E(vib)   ...       0.01 
freq.    1196.07  E(vib)   ...       0.01 
freq.    1202.29  E(vib)   ...       0.01 
freq.    1211.58  E(vib)   ...       0.01 
freq.    1241.12  E(vib)   ...       0.01 
freq.    1292.67  E(vib)   ...       0.01 
freq.    1306.45  E(vib)   ...       0.01 
freq.    1332.32  E(vib)   ...       0.01 
freq.    1336.22  E(vib)   ...       0.01 
freq.    1367.00  E(vib)   ...       0.01 
freq.    1385.77  E(vib)   ...       0.00 
freq.    1408.29  E(vib)   ...       0.00 
freq.    1416.97  E(vib)   ...       0.00 
freq.    1433.05  E(vib)   ...       0.00 
freq.    1441.50  E(vib)   ...       0.00 
freq.    1454.89  E(vib)   ...       0.00 
freq.    1463.86  E(vib)   ...       0.00 
freq.    1486.45  E(vib)   ...       0.00 
freq.    1494.98  E(vib)   ...       0.00 
freq.    1500.10  E(vib)   ...       0.00 
freq.    1504.16  E(vib)   ...       0.00 
freq.    1508.33  E(vib)   ...       0.00 
freq.    1510.33  E(vib)   ...       0.00 
freq.    1511.98  E(vib)   ...       0.00 
freq.    1516.42  E(vib)   ...       0.00 
freq.    1523.15  E(vib)   ...       0.00 
freq.    1525.70  E(vib)   ...       0.00 
freq.    1544.75  E(vib)   ...       0.00 
freq.    1553.87  E(vib)   ...       0.00 
freq.    1641.29  E(vib)   ...       0.00 
freq.    1661.49  E(vib)   ...       0.00 
freq.    1705.68  E(vib)   ...       0.00 
freq.    1716.40  E(vib)   ...       0.00 
freq.    3044.01  E(vib)   ...       0.00 
freq.    3051.91  E(vib)   ...       0.00 
freq.    3058.15  E(vib)   ...       0.00 
freq.    3068.84  E(vib)   ...       0.00 
freq.    3070.59  E(vib)   ...       0.00 
freq.    3097.77  E(vib)   ...       0.00 
freq.    3110.67  E(vib)   ...       0.00 
freq.    3112.19  E(vib)   ...       0.00 
freq.    3123.63  E(vib)   ...       0.00 
freq.    3128.56  E(vib)   ...       0.00 
freq.    3141.51  E(vib)   ...       0.00 
freq.    3144.33  E(vib)   ...       0.00 
freq.    3169.23  E(vib)   ...       0.00 
freq.    3185.20  E(vib)   ...       0.00 
freq.    3191.70  E(vib)   ...       0.00 
freq.    3193.70  E(vib)   ...       0.00 
freq.    3200.00  E(vib)   ...       0.00 
freq.    3207.55  E(vib)   ...       0.00 
freq.    3214.27  E(vib)   ...       0.00 
freq.    3218.54  E(vib)   ...       0.00 

------------
INNER ENERGY
------------

The inner energy is: U= E(el) + E(ZPE) + E(vib) + E(rot) + E(trans)
    E(el)   - is the total energy from the electronic structure calculation
              = E(kin-el) + E(nuc-el) + E(el-el) + E(nuc-nuc)
    E(ZPE)  - the the zero temperature vibrational energy from the frequency calculation
    E(vib)  - the the finite temperature correction to E(ZPE) due to population
              of excited vibrational states
    E(rot)  - is the rotational thermal energy
    E(trans)- is the translational thermal energy

Summary of contributions to the inner energy U:
Electronic energy                ...   -805.08324488 Eh
Zero point energy                ...      0.32560033 Eh     204.32 kcal/mol
Thermal vibrational correction   ...      0.01600337 Eh      10.04 kcal/mol
Thermal rotational correction    ...      0.00141627 Eh       0.89 kcal/mol
Thermal translational correction ...      0.00141627 Eh       0.89 kcal/mol
-----------------------------------------------------------------------
Total thermal energy                   -804.73880864 Eh


Summary of corrections to the electronic energy:
(perhaps to be used in another calculation)
Total thermal correction                  0.01883591 Eh      11.82 kcal/mol
Non-thermal (ZPE) correction              0.32560033 Eh     204.32 kcal/mol
-----------------------------------------------------------------------
Total correction                          0.34443624 Eh     216.14 kcal/mol


--------
ENTHALPY
--------

The enthalpy is H = U + kB*T
                kB is Boltzmann's constant
Total free energy                 ...   -804.73880864 Eh 
Thermal Enthalpy correction       ...      0.00094421 Eh       0.59 kcal/mol
-----------------------------------------------------------------------
Total Enthalpy                    ...   -804.73786443 Eh


Note: Only C1 symmetry has been detected, increase convergence thresholds 
      if your molecule has a higher symmetry. Symmetry factor of 1.0 is   
      used for the rotational entropy correction. 
 

Note: Rotational entropy computed according to Herzberg 
Infrared and Raman Spectra, Chapter V,1, Van Nostrand Reinhold, 1945 
Point Group:  C1, Symmetry Number:   1  
Rotational constants in cm-1:     0.018999     0.011075     0.009310 

Vibrational entropy computed according to the QRRHO of S. Grimme
Chem.Eur.J. 2012 18 9955


-------
ENTROPY
-------

The entropy contributions are T*S = T*(S(el)+S(vib)+S(rot)+S(trans))
     S(el)   - electronic entropy
     S(vib)  - vibrational entropy
     S(rot)  - rotational entropy
     S(trans)- translational entropy
The entropies will be listed as multiplied by the temperature to get
units of energy

Electronic entropy                ...      0.00000000 Eh      0.00 kcal/mol
Vibrational entropy               ...      0.02836824 Eh     17.80 kcal/mol
Rotational entropy                ...      0.01571556 Eh      9.86 kcal/mol
Translational entropy             ...      0.02015944 Eh     12.65 kcal/mol
-----------------------------------------------------------------------
Final entropy term                ...      0.06424324 Eh     40.31 kcal/mol

In case the symmetry of your molecule has not been determined correctly
or in case you have a reason to use a different symmetry number we print 
out the resulting rotational entropy values for sn=1,12 :
 --------------------------------------------------------
|  sn= 1 | S(rot)=       0.01571556 Eh      9.86 kcal/mol|
|  sn= 2 | S(rot)=       0.01506110 Eh      9.45 kcal/mol|
|  sn= 3 | S(rot)=       0.01467827 Eh      9.21 kcal/mol|
|  sn= 4 | S(rot)=       0.01440664 Eh      9.04 kcal/mol|
|  sn= 5 | S(rot)=       0.01419596 Eh      8.91 kcal/mol|
|  sn= 6 | S(rot)=       0.01402381 Eh      8.80 kcal/mol|
|  sn= 7 | S(rot)=       0.01387827 Eh      8.71 kcal/mol|
|  sn= 8 | S(rot)=       0.01375219 Eh      8.63 kcal/mol|
|  sn= 9 | S(rot)=       0.01364098 Eh      8.56 kcal/mol|
|  sn=10 | S(rot)=       0.01354150 Eh      8.50 kcal/mol|
|  sn=11 | S(rot)=       0.01345151 Eh      8.44 kcal/mol|
|  sn=12 | S(rot)=       0.01336936 Eh      8.39 kcal/mol|
 --------------------------------------------------------


-------------------
GIBBS FREE ENERGY
-------------------

The Gibbs free energy is G = H - T*S

Total enthalpy                    ...   -804.73786443 Eh 
Total entropy correction          ...     -0.06424324 Eh    -40.31 kcal/mol
-----------------------------------------------------------------------
Final Gibbs free energy         ...   -804.80210768 Eh

For completeness - the Gibbs free energy minus the electronic energy
G-E(el)                           ...      0.28113721 Eh    176.42 kcal/mol


Timings for individual modules:

Sum of individual times         ...     2967.721 sec (=  49.462 min)
GTO integral calculation        ...       30.967 sec (=   0.516 min)   1.0 %
SCF iterations                  ...     1546.633 sec (=  25.777 min)  52.1 %
SCF Gradient evaluation         ...      481.600 sec (=   8.027 min)  16.2 %
Geometry relaxation             ...        1.933 sec (=   0.032 min)   0.1 %
Analytical frequency calculation...      906.588 sec (=  15.110 min)  30.5 %
                             ****ORCA TERMINATED NORMALLY****
TOTAL RUN TIME: 0 days 0 hours 49 minutes 35 seconds 754 msec
