
                                 *****************
                                 * O   R   C   A *
                                 *****************

                                            #,                                       
                                            ###                                      
                                            ####                                     
                                            #####                                    
                                            ######                                   
                                           ########,                                 
                                     ,,################,,,,,                         
                               ,,#################################,,                 
                          ,,##########################################,,             
                       ,#########################################, ''#####,          
                    ,#############################################,,   '####,        
                  ,##################################################,,,,####,       
                ,###########''''           ''''###############################       
              ,#####''   ,,,,##########,,,,          '''####'''          '####       
            ,##' ,,,,###########################,,,                        '##       
           ' ,,###''''                  '''############,,,                           
         ,,##''                                '''############,,,,        ,,,,,,###''
      ,#''                                            '''#######################'''  
     '                                                          ''''####''''         
             ,#######,   #######,   ,#######,      ##                                
            ,#'     '#,  ##    ##  ,#'     '#,    #''#        ######   ,####,        
            ##       ##  ##   ,#'  ##            #'  '#       #        #'  '#        
            ##       ##  #######   ##           ,######,      #####,   #    #        
            '#,     ,#'  ##    ##  '#,     ,#' ,#      #,         ##   #,  ,#        
             '#######'   ##     ##  '#######'  #'      '#     #####' # '####'        



                  #######################################################
                  #                        -***-                        #
                  #          Department of theory and spectroscopy      #
                  #    Directorship and core code : Frank Neese         #
                  #        Max Planck Institute fuer Kohlenforschung    #
                  #                Kaiser Wilhelm Platz 1               #
                  #                 D-45470 Muelheim/Ruhr               #
                  #                      Germany                        #
                  #                                                     #
                  #                  All rights reserved                #
                  #                        -***-                        #
                  #######################################################


                         Program Version 5.0.4 -  RELEASE  -


 With contributions from (in alphabetic order):
   Daniel Aravena         : Magnetic Suceptibility
   Michael Atanasov       : Ab Initio Ligand Field Theory (pilot matlab implementation)
   Alexander A. Auer      : GIAO ZORA, VPT2 properties, NMR spectrum
   Ute Becker             : Parallelization
   Giovanni Bistoni       : ED, misc. LED, open-shell LED, HFLD
   Martin Brehm           : Molecular dynamics
   Dmytro Bykov           : SCF Hessian
   Vijay G. Chilkuri      : MRCI spin determinant printing, contributions to CSF-ICE
   Dipayan Datta          : RHF DLPNO-CCSD density
   Achintya Kumar Dutta   : EOM-CC, STEOM-CC
   Dmitry Ganyushin       : Spin-Orbit,Spin-Spin,Magnetic field MRCI
   Miquel Garcia          : C-PCM and meta-GGA Hessian, CC/C-PCM, Gaussian charge scheme
   Yang Guo               : DLPNO-NEVPT2, F12-NEVPT2, CIM, IAO-localization
   Andreas Hansen         : Spin unrestricted coupled pair/coupled cluster methods
   Benjamin Helmich-Paris : MC-RPA, TRAH-SCF, COSX integrals
   Lee Huntington         : MR-EOM, pCC
   Robert Izsak           : Overlap fitted RIJCOSX, COSX-SCS-MP3, EOM
   Marcus Kettner         : VPT2
   Christian Kollmar      : KDIIS, OOCD, Brueckner-CCSD(T), CCSD density, CASPT2, CASPT2-K
   Simone Kossmann        : Meta GGA functionals, TD-DFT gradient, OOMP2, MP2 Hessian
   Martin Krupicka        : Initial AUTO-CI
   Lucas Lang             : DCDCAS
   Marvin Lechner         : AUTO-CI (C++ implementation), FIC-MRCC
   Dagmar Lenk            : GEPOL surface, SMD
   Dimitrios Liakos       : Extrapolation schemes; Compound Job, initial MDCI parallelization
   Dimitrios Manganas     : Further ROCIS development; embedding schemes
   Dimitrios Pantazis     : SARC Basis sets
   Anastasios Papadopoulos: AUTO-CI, single reference methods and gradients
   Taras Petrenko         : DFT Hessian,TD-DFT gradient, ASA, ECA, R-Raman, ABS, FL, XAS/XES, NRVS
   Peter Pinski           : DLPNO-MP2, DLPNO-MP2 Gradient
   Christoph Reimann      : Effective Core Potentials
   Marius Retegan         : Local ZFS, SOC
   Christoph Riplinger    : Optimizer, TS searches, QM/MM, DLPNO-CCSD(T), (RO)-DLPNO pert. Triples
   Tobias Risthaus        : Range-separated hybrids, TD-DFT gradient, RPA, STAB
   Michael Roemelt        : Original ROCIS implementation
   Masaaki Saitow         : Open-shell DLPNO-CCSD energy and density
   Barbara Sandhoefer     : DKH picture change effects
   Avijit Sen             : IP-ROCIS
   Kantharuban Sivalingam : CASSCF convergence, NEVPT2, FIC-MRCI
   Bernardo de Souza      : ESD, SOC TD-DFT
   Georgi Stoychev        : AutoAux, RI-MP2 NMR, DLPNO-MP2 response
   Willem Van den Heuvel  : Paramagnetic NMR
   Boris Wezisla          : Elementary symmetry handling
   Frank Wennmohs         : Technical directorship


 We gratefully acknowledge several colleagues who have allowed us to
 interface, adapt or use parts of their codes:
   Stefan Grimme, W. Hujo, H. Kruse, P. Pracht,  : VdW corrections, initial TS optimization,
                  C. Bannwarth, S. Ehlert          DFT functionals, gCP, sTDA/sTD-DF
   Ed Valeev, F. Pavosevic, A. Kumar             : LibInt (2-el integral package), F12 methods
   Garnet Chan, S. Sharma, J. Yang, R. Olivares  : DMRG
   Ulf Ekstrom                                   : XCFun DFT Library
   Mihaly Kallay                                 : mrcc  (arbitrary order and MRCC methods)
   Jiri Pittner, Ondrej Demel                    : Mk-CCSD
   Frank Weinhold                                : gennbo (NPA and NBO analysis)
   Christopher J. Cramer and Donald G. Truhlar   : smd solvation model
   Lars Goerigk                                  : TD-DFT with DH, B97 family of functionals
   V. Asgeirsson, H. Jonsson                     : NEB implementation
   FAccTs GmbH                                   : IRC, NEB, NEB-TS, DLPNO-Multilevel, CI-OPT
                                                   MM, QMMM, 2- and 3-layer-ONIOM, Crystal-QMMM,
                                                   LR-CPCM, SF, NACMEs, symmetry and pop. for TD-DFT,
                                                   nearIR, NL-DFT gradient (VV10), updates on ESD,
                                                   ML-optimized integration grids
   S Lehtola, MJT Oliveira, MAL Marques          : LibXC Library
   Liviu Ungur et al                             : ANISO software


 Your calculation uses the libint2 library for the computation of 2-el integrals
 For citations please refer to: http://libint.valeyev.net

 Your ORCA version has been built with support for libXC version: 5.1.0
 For citations please refer to: https://tddft.org/programs/libxc/

 This ORCA versions uses:
   CBLAS   interface :  Fast vector & matrix operations
   LAPACKE interface :  Fast linear algebra routines
   SCALAPACK package :  Parallel linear algebra routines
   Shared memory     :  Shared parallel matrices
   BLAS/LAPACK       :  OpenBLAS 0.3.15  USE64BITINT DYNAMIC_ARCH NO_AFFINITY SkylakeX SINGLE_THREADED
        Core in use  :  SkylakeX
   Copyright (c) 2011-2014, The OpenBLAS Project




***************************************
The coordinates will be read from file: /users/fjb15167/WWenergy/structures/Nm.xyz
***************************************


Your calculation utilizes the atom-pairwise dispersion correction
based on tight binding partial charges (D4)
Cite in your paper:
E.Caldeweyher, C.Bannwarth, S.Grimme, J.Chem.Phys., (2017), 147, 034112.
E.Caldeweyher, S.Ehlert, A.Hansen, H.Neugebauer, S.Grimme, J.Chem.Phys., (2018), in progress.
   

================================================================================

----- Orbital basis set information -----
Your calculation utilizes the basis: 6-31G(d)
   H-He, Li-Ne : W. J. Hehre, R. Ditchfield and J.A. Pople, J. Chem. Phys. 56, 2257 (1972).
                 Note: He and Ne are unpublished basis sets taken from the Gaussian program.
                 Note: Li and B from J. D. Dill and J. A. Pople, J. Chem. Phys. 62, 2921 (1975).
   Na - Ar     : M. M. Francl, W. J. Pietro, W. J. Hehre, J. S. Binkley, M. S. Gordon, 
                 D. J. DeFrees and J. A. Pople, J. Chem. Phys. 77, 3654 (1982).
   K - Zn      : V. A. Rassolov, J. A. Pople, M. A. Ratner, and T. L. Windus, J. Chem. Phys. 109, 1223 (1998).

----- AuxJ basis set information -----
Your calculation utilizes the AutoAux generation procedure.
  G. L. Stoychev, A. A. Auer, F. Neese, J. Chem. Theory Comput. 13, 554 (2017)

----- AuxC basis set information -----
Your calculation utilizes the AutoAux generation procedure.
  G. L. Stoychev, A. A. Auer, F. Neese, J. Chem. Theory Comput. 13, 554 (2017)

----- AuxJK basis set information -----
Your calculation utilizes the AutoAux generation procedure.
  G. L. Stoychev, A. A. Auer, F. Neese, J. Chem. Theory Comput. 13, 554 (2017)

================================================================================
                                        WARNINGS
                       Please study these warnings very carefully!
================================================================================


WARNING: Geometry Optimization
  ===> : Switching off AutoStart
         For restart on a previous wavefunction, please use MOREAD

INFO   : the flag for use of the SHARK integral package has been found!

================================================================================
                                       INPUT FILE
================================================================================
NAME = Nm_octanol.inp
|  1> ! OPT FREQ B3LYP 6-31G(d) D4 AUTOAUX
|  2> ! CPCM
|  3> 
|  4> %cpcm
|  5> epsilon 9.8629 
|  6> refrac  1.4295 
|  7> end
|  8> 
|  9> %PAL NPROCS 4 END
| 10> 
| 11> %maxcore 3375
| 12> 
| 13> *xyzfile 0 1 /users/fjb15167/WWenergy/structures/Nm.xyz
| 14> 
| 15>                          ****END OF INPUT****
================================================================================

                       *****************************
                       * Geometry Optimization Run *
                       *****************************

Geometry optimization settings:
Update method            Update   .... BFGS
Choice of coordinates    CoordSys .... Z-matrix Internals
Initial Hessian          InHess   .... Almoef's Model

Convergence Tolerances:
Energy Change            TolE     ....  5.0000e-06 Eh
Max. Gradient            TolMAXG  ....  3.0000e-04 Eh/bohr
RMS Gradient             TolRMSG  ....  1.0000e-04 Eh/bohr
Max. Displacement        TolMAXD  ....  4.0000e-03 bohr
RMS Displacement         TolRMSD  ....  2.0000e-03 bohr
Strict Convergence                ....  False
------------------------------------------------------------------------------
                        ORCA OPTIMIZATION COORDINATE SETUP
------------------------------------------------------------------------------

The optimization will be done in new redundant internal coordinates
Making redundant internal coordinates   ...  (new redundants) done
Evaluating the initial hessian          ...  (Almloef) done
Evaluating the coordinates              ...  done
Calculating the B-matrix                .... done
Calculating the G-matrix                .... done
Diagonalizing the G-matrix              .... done
Small eigenvalue found = 4.590e-03
Small eigenvalue found = 5.730e-03
Small eigenvalue found = 1.112e-02
Small eigenvalue found = 1.399e-02
Small eigenvalue found = 1.847e-02
Small eigenvalue found = 2.962e-02
The first mode is                       ....   55
The number of degrees of freedom        ....   90

    -----------------------------------------------------------------
                    Redundant Internal Coordinates


    -----------------------------------------------------------------
         Definition                    Initial Value    Approx d2E/dq
    -----------------------------------------------------------------
      1. B(H   1,C   0)                  1.0926         0.356639   
      2. B(H   2,C   0)                  1.0948         0.353742   
      3. B(H   3,C   0)                  1.0898         0.360303   
      4. B(C   4,C   0)                  1.5146         0.395376   
      5. B(O   5,C   4)                  1.2397         0.972173   
      6. B(N   6,C   4)                  1.3740         0.593573   
      7. B(C   7,N   6)                  1.4602         0.432461   
      8. B(H   8,C   7)                  1.0945         0.354134   
      9. B(H   9,C   7)                  1.0905         0.359498   
     10. B(C  10,N   6)                  1.4629         0.428062   
     11. B(H  11,C  10)                  1.0934         0.355624   
     12. B(H  12,C  10)                  1.0930         0.356117   
     13. B(C  13,C  10)                  1.5290         0.374951   
     14. B(H  14,C  13)                  1.0926         0.356674   
     15. B(H  15,C  13)                  1.0944         0.354267   
     16. B(C  16,C   7)                  1.5247         0.380945   
     17. B(N  17,C  16)                  1.3637         0.616364   
     18. B(O  18,C  16)                  1.2425         0.961998   
     19. B(C  19,N  17)                  1.4553         0.440220   
     20. B(H  20,C  19)                  1.0971         0.350859   
     21. B(H  21,C  19)                  1.0950         0.353575   
     22. B(H  22,C  19)                  1.0878         0.362994   
     23. B(C  23,N  17)                  1.4560         0.439083   
     24. B(H  24,C  23)                  1.0968         0.351163   
     25. B(H  25,C  23)                  1.0877         0.363097   
     26. B(H  26,C  23)                  1.0941         0.354732   
     27. B(S  27,C  13)                  1.8113         0.358337   
     28. B(C  28,S  27)                  1.8144         0.354331   
     29. B(H  29,C  28)                  1.0924         0.356964   
     30. B(H  30,C  28)                  1.0917         0.357800   
     31. B(H  31,C  28)                  1.0912         0.358523   
     32. A(H   1,C   0,C   4)          112.6276         0.326839   
     33. A(H   2,C   0,H   3)          108.8670         0.290053   
     34. A(H   3,C   0,C   4)          107.1536         0.327390   
     35. A(H   1,C   0,H   3)          109.3811         0.290424   
     36. A(H   1,C   0,H   2)          107.9335         0.289588   
     37. A(H   2,C   0,C   4)          110.8205         0.326400   
     38. A(C   0,C   4,O   5)          121.0397         0.431221   
     39. A(O   5,C   4,N   6)          121.8532         0.461100   
     40. A(C   0,C   4,N   6)          117.1031         0.395062   
     41. A(C   4,N   6,C  10)          124.4882         0.398050   
     42. A(C   7,N   6,C  10)          116.2418         0.376675   
     43. A(C   4,N   6,C   7)          119.0850         0.398767   
     44. A(H   8,C   7,H   9)          108.9995         0.290002   
     45. A(N   6,C   7,H   9)          107.8552         0.330153   
     46. A(H   9,C   7,C  16)          113.7132         0.325272   
     47. A(H   8,C   7,C  16)          105.4582         0.324470   
     48. A(N   6,C   7,C  16)          111.0529         0.371506   
     49. A(N   6,C   7,H   8)          109.7036         0.329334   
     50. A(H  12,C  10,C  13)          109.7334         0.323923   
     51. A(H  11,C  10,C  13)          109.7984         0.323849   
     52. A(N   6,C  10,C  13)          112.6458         0.369843   
     53. A(H  11,C  10,H  12)          107.2932         0.289763   
     54. A(N   6,C  10,H  12)          106.7744         0.329081   
     55. A(N   6,C  10,H  11)          110.4145         0.329006   
     56. A(H  14,C  13,H  15)          107.6585         0.289660   
     57. A(H  15,C  13,S  27)          106.2677         0.337556   
     58. A(C  10,C  13,H  15)          110.1785         0.323646   
     59. A(C  10,C  13,H  14)          110.4076         0.324006   
     60. A(H  14,C  13,S  27)          109.1838         0.337937   
     61. A(C  10,C  13,S  27)          112.9352         0.380100   
     62. A(N  17,C  16,O  18)          122.7023         0.463394   
     63. A(C   7,C  16,O  18)          119.1803         0.427546   
     64. A(C   7,C  16,N  17)          118.0916         0.395097   
     65. A(C  16,N  17,C  19)          125.2406         0.402679   
     66. A(C  19,N  17,C  23)          115.4360         0.379502   
     67. A(C  16,N  17,C  23)          118.2592         0.402496   
     68. A(H  21,C  19,H  22)          108.7882         0.290370   
     69. A(H  20,C  19,H  22)          108.5467         0.290019   
     70. A(N  17,C  19,H  22)          111.9700         0.331656   
     71. A(H  20,C  19,H  21)          108.2169         0.288826   
     72. A(N  17,C  19,H  21)          109.0065         0.330216   
     73. A(N  17,C  19,H  20)          110.2291         0.329796   
     74. A(H  25,C  23,H  26)          110.1659         0.290532   
     75. A(H  24,C  23,H  26)          108.6762         0.289013   
     76. A(N  17,C  23,H  26)          109.1579         0.330254   
     77. A(H  24,C  23,H  25)          109.3442         0.290071   
     78. A(N  17,C  23,H  25)          108.6566         0.331530   
     79. A(N  17,C  23,H  24)          110.8352         0.329702   
     80. A(C  13,S  27,C  28)           99.2859         0.396573   
     81. A(H  29,C  28,H  31)          108.9725         0.290240   
     82. A(S  27,C  28,H  31)          112.1235         0.337595   
     83. A(H  29,C  28,H  30)          109.1716         0.290148   
     84. A(S  27,C  28,H  30)          107.4577         0.337482   
     85. A(H  30,C  28,H  31)          108.6433         0.290347   
     86. A(S  27,C  28,H  29)          110.4097         0.337350   
     87. D(O   5,C   4,C   0,H   2)    110.8342         0.011614   
     88. D(O   5,C   4,C   0,H   1)   -128.1412         0.011614   
     89. D(N   6,C   4,C   0,H   1)     52.5728         0.011614   
     90. D(N   6,C   4,C   0,H   2)    -68.4518         0.011614   
     91. D(O   5,C   4,C   0,H   3)     -7.8151         0.011614   
     92. D(N   6,C   4,C   0,H   3)    172.8989         0.011614   
     93. D(C   7,N   6,C   4,C   0)    173.2596         0.028347   
     94. D(C  10,N   6,C   4,C   0)     -1.6035         0.028347   
     95. D(C   7,N   6,C   4,O   5)     -6.0202         0.028347   
     96. D(C  10,N   6,C   4,O   5)    179.1167         0.028347   
     97. D(C  16,C   7,N   6,C   4)    127.0440         0.015945   
     98. D(H   9,C   7,N   6,C   4)      1.8235         0.015945   
     99. D(H   8,C   7,N   6,C  10)     58.5056         0.015945   
    100. D(H   9,C   7,N   6,C  10)    177.1039         0.015945   
    101. D(H   8,C   7,N   6,C   4)   -116.7749         0.015945   
    102. D(C  16,C   7,N   6,C  10)    -57.6756         0.015945   
    103. D(C  13,C  10,N   6,C   7)     95.1324         0.015622   
    104. D(C  13,C  10,N   6,C   4)    -89.8722         0.015622   
    105. D(H  12,C  10,N   6,C   7)    -25.3893         0.015622   
    106. D(H  12,C  10,N   6,C   4)    149.6061         0.015622   
    107. D(H  11,C  10,N   6,C   7)   -141.7146         0.015622   
    108. D(H  11,C  10,N   6,C   4)     33.2808         0.015622   
    109. D(S  27,C  13,C  10,H  11)     62.1398         0.011221   
    110. D(S  27,C  13,C  10,N   6)   -174.3642         0.011221   
    111. D(H  15,C  13,C  10,H  12)   -174.2132         0.011221   
    112. D(H  15,C  13,C  10,H  11)    -56.5172         0.011221   
    113. D(H  15,C  13,C  10,N   6)     66.9788         0.011221   
    114. D(H  14,C  13,C  10,H  12)     67.0001         0.011221   
    115. D(H  14,C  13,C  10,H  11)   -175.3039         0.011221   
    116. D(S  27,C  13,C  10,H  12)    -55.5562         0.011221   
    117. D(H  14,C  13,C  10,N   6)    -51.8079         0.011221   
    118. D(O  18,C  16,C   7,H   9)   -138.0701         0.010826   
    119. D(O  18,C  16,C   7,H   8)    -18.7035         0.010826   
    120. D(O  18,C  16,C   7,N   6)    100.0651         0.010826   
    121. D(N  17,C  16,C   7,H   9)     43.7286         0.010826   
    122. D(N  17,C  16,C   7,H   8)    163.0951         0.010826   
    123. D(N  17,C  16,C   7,N   6)    -78.1362         0.010826   
    124. D(C  23,N  17,C  16,O  18)     -2.5670         0.030735   
    125. D(C  23,N  17,C  16,C   7)    175.5667         0.030735   
    126. D(C  19,N  17,C  16,O  18)   -170.1980         0.030735   
    127. D(C  19,N  17,C  16,C   7)      7.9358         0.030735   
    128. D(H  22,C  19,N  17,C  16)    -15.3935         0.016525   
    129. D(H  21,C  19,N  17,C  23)     56.2500         0.016525   
    130. D(H  21,C  19,N  17,C  16)   -135.8096         0.016525   
    131. D(H  20,C  19,N  17,C  23)    -62.3903         0.016525   
    132. D(H  22,C  19,N  17,C  23)    176.6661         0.016525   
    133. D(H  20,C  19,N  17,C  16)    105.5501         0.016525   
    134. D(H  26,C  23,N  17,C  19)    -51.9179         0.016439   
    135. D(H  26,C  23,N  17,C  16)    139.2526         0.016439   
    136. D(H  25,C  23,N  17,C  19)   -172.0829         0.016439   
    137. D(H  25,C  23,N  17,C  16)     19.0876         0.016439   
    138. D(H  24,C  23,N  17,C  19)     67.7470         0.016439   
    139. D(H  24,C  23,N  17,C  16)   -101.0825         0.016439   
    140. D(C  28,S  27,C  13,H  15)   -170.6734         0.003554   
    141. D(C  28,S  27,C  13,H  14)    -54.8182         0.003554   
    142. D(C  28,S  27,C  13,C  10)     68.4191         0.003554   
    143. D(H  31,C  28,S  27,C  13)    -83.0799         0.003507   
    144. D(H  30,C  28,S  27,C  13)    157.6061         0.003507   
    145. D(H  29,C  28,S  27,C  13)     38.6375         0.003507   
    -----------------------------------------------------------------

Number of atoms                         .... 32
Number of degrees of freedom            .... 145

         *************************************************************
         *                GEOMETRY OPTIMIZATION CYCLE   1            *
         *************************************************************
---------------------------------
CARTESIAN COORDINATES (ANGSTROEM)
---------------------------------
  C     -1.391000    3.054000   -0.526000
  H     -0.616000    2.912000   -1.283000
  H     -0.998000    3.736000    0.235000
  H     -2.268000    3.508000   -0.987000
  C     -1.840000    1.750000    0.100000
  O     -3.041000    1.448000    0.156000
  N     -0.862000    0.932000    0.612000
  C     -1.253000   -0.262000    1.356000
  H     -0.906000   -0.182000    2.391000
  H     -2.342000   -0.318000    1.350000
  C      0.571000    1.222000    0.561000
  H      0.745000    2.299000    0.634000
  H      1.018000    0.760000    1.445000
  C      1.238000    0.674000   -0.701000
  H      1.001000   -0.385000   -0.828000
  H      0.869000    1.205000   -1.584000
  C     -0.572000   -1.505000    0.794000
  N     -1.076000   -2.052000   -0.349000
  O      0.432000   -1.958000    1.369000
  C     -2.115000   -1.458000   -1.177000
  H     -1.679000   -1.047000   -2.096000
  H     -2.835000   -2.234000   -1.457000
  H     -2.643000   -0.661000   -0.658000
  C     -0.371000   -3.179000   -0.943000
  H      0.238000   -2.853000   -1.795000
  H      0.274000   -3.623000   -0.188000
  H     -1.101000   -3.914000   -1.295000
  S      3.037000    0.885000   -0.697000
  C      3.465000   -0.276000    0.630000
  H      2.837000   -1.168000    0.573000
  H      4.509000   -0.563000    0.490000
  H      3.356000    0.172000    1.619000

----------------------------
CARTESIAN COORDINATES (A.U.)
----------------------------
  NO LB      ZA    FRAG     MASS         X           Y           Z
   0 C     6.0000    0    12.011   -2.628609    5.771224   -0.993996
   1 H     1.0000    0     1.008   -1.164071    5.502883   -2.424519
   2 H     1.0000    0     1.008   -1.885947    7.060017    0.444086
   3 H     1.0000    0     1.008   -4.285899    6.629159   -1.865160
   4 C     6.0000    0    12.011   -3.477096    3.307021    0.188973
   5 O     8.0000    0    15.999   -5.746657    2.736323    0.294797
   6 N     7.0000    0    14.007   -1.628944    1.761225    1.156512
   7 C     6.0000    0    12.011   -2.367827   -0.495108    2.562469
   8 H     1.0000    0     1.008   -1.712092   -0.343930    4.518335
   9 H     1.0000    0     1.008   -4.425739   -0.600933    2.551130
  10 C     6.0000    0    12.011    1.079034    2.309245    1.060136
  11 H     1.0000    0     1.008    1.407846    4.344480    1.198086
  12 H     1.0000    0     1.008    1.923741    1.436192    2.730654
  13 C     6.0000    0    12.011    2.339481    1.273675   -1.324698
  14 H     1.0000    0     1.008    1.891616   -0.727545   -1.564693
  15 H     1.0000    0     1.008    1.642172    2.277120   -2.993326
  16 C     6.0000    0    12.011   -1.080923   -2.844038    1.500443
  17 N     7.0000    0    14.007   -2.033345   -3.877718   -0.659514
  18 O     8.0000    0    15.999    0.816362   -3.700084    2.587035
  19 C     6.0000    0    12.011   -3.996771   -2.755221   -2.224208
  20 H     1.0000    0     1.008   -3.172850   -1.978543   -3.960866
  21 H     1.0000    0     1.008   -5.357374   -4.221648   -2.753331
  22 H     1.0000    0     1.008   -4.994546   -1.249109   -1.243440
  23 C     6.0000    0    12.011   -0.701088   -6.007439   -1.782012
  24 H     1.0000    0     1.008    0.449755   -5.391389   -3.392058
  25 H     1.0000    0     1.008    0.517785   -6.846478   -0.355269
  26 H     1.0000    0     1.008   -2.080588   -7.396388   -2.447195
  27 S    16.0000    0    32.060    5.739098    1.672408   -1.317139
  28 C     6.0000    0    12.011    6.547901   -0.521564    1.190527
  29 H     1.0000    0     1.008    5.361153   -2.207200    1.082813
  30 H     1.0000    0     1.008    8.520775   -1.063916    0.925966
  31 H     1.0000    0     1.008    6.341921    0.325033    3.059467

--------------------------------
INTERNAL COORDINATES (ANGSTROEM)
--------------------------------
 C      0   0   0     0.000000000000     0.00000000     0.00000000
 H      1   0   0     1.092628939760     0.00000000     0.00000000
 H      1   2   0     1.094848848015   107.93354870     0.00000000
 H      1   2   3     1.089846778222   109.38108315   118.30433246
 C      1   2   3     1.514560332242   112.62764017   237.34021331
 O      5   1   2     1.239653580643   121.03965039   231.85884241
 N      5   1   2     1.373954875533   117.10313923    52.57282836
 C      7   5   1     1.460155128745   119.08503632   173.25960461
 H      8   7   5     1.094547395045   109.70359188   243.22513273
 H      8   7   5     1.090455409451   107.85520719     1.82348773
 C      7   5   1     1.462938823054   124.48819608   358.39649400
 H     11   7   5     1.093404774089   110.41447033    33.28077731
 H     11   7   5     1.093027447048   106.77439371   149.60606502
 C     11   7   5     1.528998691955   112.64576229   270.12777853
 H     14  11   7     1.092601940324   110.40757801   308.19213183
 H     14  11   7     1.094445521714   110.17851304    66.97876184
 C      8   7   5     1.524681606107   111.05289948   127.04398397
 N     17   8   7     1.363698647062   118.09163320   281.86380486
 O     17   8   7     1.242517605509   119.18026433   100.06514918
 C     18  17   8     1.455314742590   125.24057758     7.93577414
 H     20  18  17     1.097077025555   110.22912228   105.55007400
 H     20  18  17     1.094977625342   109.00650551   224.19038636
 H     20  18  17     1.087820757294   111.96995547   344.60647338
 C     18  17   8     1.456018543838   118.25921921   175.56673788
 H     24  18  17     1.096841374128   110.83521925   258.91750667
 H     24  18  17     1.087743535950   108.65662749    19.08763279
 H     24  18  17     1.094088204854   109.15789249   139.25262386
 S     14  11   7     1.811335971045   112.93518304   185.63582123
 C     28  14  11     1.814396318338    99.28588624    68.41910366
 H     29  28  14     1.092381343671   110.40970881    38.63748136
 H     29  28  14     1.091744017616   107.45766686   157.60613997
 H     29  28  14     1.091194758052   112.12348139   276.92014276

---------------------------
INTERNAL COORDINATES (A.U.)
---------------------------
 C      0   0   0     0.000000000000     0.00000000     0.00000000
 H      1   0   0     2.064769462142     0.00000000     0.00000000
 H      1   2   0     2.068964480788   107.93354870     0.00000000
 H      1   2   3     2.059511938775   109.38108315   118.30433246
 C      1   2   3     2.862104241238   112.62764017   237.34021331
 O      5   1   2     2.342605768349   121.03965039   231.85884241
 N      5   1   2     2.596398435123   117.10313923    52.57282836
 C      7   5   1     2.759293306368   119.08503632   173.25960461
 H      8   7   5     2.068394817232   109.70359188   243.22513273
 H      8   7   5     2.060662085115   107.85520719     1.82348773
 C      7   5   1     2.764553726254   124.48819608   358.39649400
 H     11   7   5     2.066235576550   110.41447033    33.28077731
 H     11   7   5     2.065522531780   106.77439371   149.60606502
 C     11   7   5     2.889388786919   112.64576229   270.12777853
 H     14  11   7     2.064718440604   110.40757801   308.19213183
 H     14  11   7     2.068202304536   110.17851304    66.97876184
 C      8   7   5     2.881230676969   111.05289948   127.04398397
 N     17   8   7     2.577016972147   118.09163320   281.86380486
 O     17   8   7     2.348017990988   119.18026433   100.06514918
 C     18  17   8     2.750146302153   125.24057758     7.93577414
 H     20  18  17     2.073175126115   110.22912228   105.55007400
 H     20  18  17     2.069207834668   109.00650551   224.19038636
 H     20  18  17     2.055683314081   111.96995547   344.60647338
 C     18  17   8     2.751476293765   118.25921921   175.56673788
 H     24  18  17     2.072729809457   110.83521925   258.91750667
 H     24  18  17     2.055537386888   108.65662749    19.08763279
 H     24  18  17     2.067527073527   109.15789249   139.25262386
 S     14  11   7     3.422928921795   112.93518304   185.63582123
 C     28  14  11     3.428712140055    99.28588624    68.41910366
 H     29  28  14     2.064301573343   110.40970881    38.63748136
 H     29  28  14     2.063097201641   107.45766686   157.60613997
 H     29  28  14     2.062059251489   112.12348139   276.92014276

---------------------
BASIS SET INFORMATION
---------------------
There are 5 groups of distinct atoms

 Group   1 Type C   : 10s4p1d contracted to 3s2p1d pattern {631/31/1}
 Group   2 Type H   : 4s contracted to 2s pattern {31}
 Group   3 Type O   : 10s4p1d contracted to 3s2p1d pattern {631/31/1}
 Group   4 Type N   : 10s4p1d contracted to 3s2p1d pattern {631/31/1}
 Group   5 Type S   : 16s10p1d contracted to 4s3p1d pattern {6631/631/1}

Atom   0C    basis set group =>   1
Atom   1H    basis set group =>   2
Atom   2H    basis set group =>   2
Atom   3H    basis set group =>   2
Atom   4C    basis set group =>   1
Atom   5O    basis set group =>   3
Atom   6N    basis set group =>   4
Atom   7C    basis set group =>   1
Atom   8H    basis set group =>   2
Atom   9H    basis set group =>   2
Atom  10C    basis set group =>   1
Atom  11H    basis set group =>   2
Atom  12H    basis set group =>   2
Atom  13C    basis set group =>   1
Atom  14H    basis set group =>   2
Atom  15H    basis set group =>   2
Atom  16C    basis set group =>   1
Atom  17N    basis set group =>   4
Atom  18O    basis set group =>   3
Atom  19C    basis set group =>   1
Atom  20H    basis set group =>   2
Atom  21H    basis set group =>   2
Atom  22H    basis set group =>   2
Atom  23C    basis set group =>   1
Atom  24H    basis set group =>   2
Atom  25H    basis set group =>   2
Atom  26H    basis set group =>   2
Atom  27S    basis set group =>   5
Atom  28C    basis set group =>   1
Atom  29H    basis set group =>   2
Atom  30H    basis set group =>   2
Atom  31H    basis set group =>   2
---------------------------------
AUXILIARY/J BASIS SET INFORMATION
---------------------------------
There are 5 groups of distinct atoms

 Group   1 Type C   : 13s11p10d2f contracted to 13s11p10d2f pattern {1111111111111/11111111111/1111111111/11}
 Group   2 Type H   : 9s2p contracted to 9s2p pattern {111111111/11}
 Group   3 Type O   : 14s11p10d2f contracted to 14s11p10d2f pattern {11111111111111/11111111111/1111111111/11}
 Group   4 Type N   : 14s11p10d2f contracted to 14s11p10d2f pattern {11111111111111/11111111111/1111111111/11}
 Group   5 Type S   : 17s15p14d4f contracted to 17s15p14d4f pattern {11111111111111111/111111111111111/11111111111111/1111}

Atom   0C    basis set group =>   1
Atom   1H    basis set group =>   2
Atom   2H    basis set group =>   2
Atom   3H    basis set group =>   2
Atom   4C    basis set group =>   1
Atom   5O    basis set group =>   3
Atom   6N    basis set group =>   4
Atom   7C    basis set group =>   1
Atom   8H    basis set group =>   2
Atom   9H    basis set group =>   2
Atom  10C    basis set group =>   1
Atom  11H    basis set group =>   2
Atom  12H    basis set group =>   2
Atom  13C    basis set group =>   1
Atom  14H    basis set group =>   2
Atom  15H    basis set group =>   2
Atom  16C    basis set group =>   1
Atom  17N    basis set group =>   4
Atom  18O    basis set group =>   3
Atom  19C    basis set group =>   1
Atom  20H    basis set group =>   2
Atom  21H    basis set group =>   2
Atom  22H    basis set group =>   2
Atom  23C    basis set group =>   1
Atom  24H    basis set group =>   2
Atom  25H    basis set group =>   2
Atom  26H    basis set group =>   2
Atom  27S    basis set group =>   5
Atom  28C    basis set group =>   1
Atom  29H    basis set group =>   2
Atom  30H    basis set group =>   2
Atom  31H    basis set group =>   2
---------------------------------
AUXILIARY/C BASIS SET INFORMATION
---------------------------------
There are 5 groups of distinct atoms

 Group   1 Type C   : 13s11p10d2f contracted to 13s11p10d2f pattern {1111111111111/11111111111/1111111111/11}
 Group   2 Type H   : 9s2p contracted to 9s2p pattern {111111111/11}
 Group   3 Type O   : 14s11p10d2f contracted to 14s11p10d2f pattern {11111111111111/11111111111/1111111111/11}
 Group   4 Type N   : 14s11p10d2f contracted to 14s11p10d2f pattern {11111111111111/11111111111/1111111111/11}
 Group   5 Type S   : 17s15p14d4f contracted to 17s15p14d4f pattern {11111111111111111/111111111111111/11111111111111/1111}

Atom   0C    basis set group =>   1
Atom   1H    basis set group =>   2
Atom   2H    basis set group =>   2
Atom   3H    basis set group =>   2
Atom   4C    basis set group =>   1
Atom   5O    basis set group =>   3
Atom   6N    basis set group =>   4
Atom   7C    basis set group =>   1
Atom   8H    basis set group =>   2
Atom   9H    basis set group =>   2
Atom  10C    basis set group =>   1
Atom  11H    basis set group =>   2
Atom  12H    basis set group =>   2
Atom  13C    basis set group =>   1
Atom  14H    basis set group =>   2
Atom  15H    basis set group =>   2
Atom  16C    basis set group =>   1
Atom  17N    basis set group =>   4
Atom  18O    basis set group =>   3
Atom  19C    basis set group =>   1
Atom  20H    basis set group =>   2
Atom  21H    basis set group =>   2
Atom  22H    basis set group =>   2
Atom  23C    basis set group =>   1
Atom  24H    basis set group =>   2
Atom  25H    basis set group =>   2
Atom  26H    basis set group =>   2
Atom  27S    basis set group =>   5
Atom  28C    basis set group =>   1
Atom  29H    basis set group =>   2
Atom  30H    basis set group =>   2
Atom  31H    basis set group =>   2
----------------------------------
AUXILIARY/JK BASIS SET INFORMATION
----------------------------------
There are 5 groups of distinct atoms

 Group   1 Type C   : 13s11p10d2f contracted to 13s11p10d2f pattern {1111111111111/11111111111/1111111111/11}
 Group   2 Type H   : 9s2p contracted to 9s2p pattern {111111111/11}
 Group   3 Type O   : 14s11p10d2f contracted to 14s11p10d2f pattern {11111111111111/11111111111/1111111111/11}
 Group   4 Type N   : 14s11p10d2f contracted to 14s11p10d2f pattern {11111111111111/11111111111/1111111111/11}
 Group   5 Type S   : 17s15p14d4f contracted to 17s15p14d4f pattern {11111111111111111/111111111111111/11111111111111/1111}

Atom   0C    basis set group =>   1
Atom   1H    basis set group =>   2
Atom   2H    basis set group =>   2
Atom   3H    basis set group =>   2
Atom   4C    basis set group =>   1
Atom   5O    basis set group =>   3
Atom   6N    basis set group =>   4
Atom   7C    basis set group =>   1
Atom   8H    basis set group =>   2
Atom   9H    basis set group =>   2
Atom  10C    basis set group =>   1
Atom  11H    basis set group =>   2
Atom  12H    basis set group =>   2
Atom  13C    basis set group =>   1
Atom  14H    basis set group =>   2
Atom  15H    basis set group =>   2
Atom  16C    basis set group =>   1
Atom  17N    basis set group =>   4
Atom  18O    basis set group =>   3
Atom  19C    basis set group =>   1
Atom  20H    basis set group =>   2
Atom  21H    basis set group =>   2
Atom  22H    basis set group =>   2
Atom  23C    basis set group =>   1
Atom  24H    basis set group =>   2
Atom  25H    basis set group =>   2
Atom  26H    basis set group =>   2
Atom  27S    basis set group =>   5
Atom  28C    basis set group =>   1
Atom  29H    basis set group =>   2
Atom  30H    basis set group =>   2
Atom  31H    basis set group =>   2


           ************************************************************
           *        Program running with 4 parallel MPI-processes     *
           *              working on a common directory               *
           ************************************************************
------------------------------------------------------------------------------
                           ORCA GTO INTEGRAL CALCULATION
                           -- RI-GTO INTEGRALS CHOSEN --
------------------------------------------------------------------------------
------------------------------------------------------------------------------
                   ___                                                        
                  /   \      - P O W E R E D   B Y -                         
                 /     \                                                     
                 |  |  |   _    _      __       _____    __    __             
                 |  |  |  | |  | |    /  \     |  _  \  |  |  /  |          
                  \  \/   | |  | |   /    \    | | | |  |  | /  /          
                 / \  \   | |__| |  /  /\  \   | |_| |  |  |/  /          
                |  |  |   |  __  | /  /__\  \  |    /   |      \           
                |  |  |   | |  | | |   __   |  |    \   |  |\   \          
                \     /   | |  | | |  |  |  |  | |\  \  |  | \   \       
                 \___/    |_|  |_| |__|  |__|  |_| \__\ |__|  \__/        
                                                                              
                      - O R C A' S   B I G   F R I E N D -                    
                                      &                                       
                       - I N T E G R A L  F E E D E R -                       
                                                                              
 v1 FN, 2020, v2 2021                                                         
------------------------------------------------------------------------------


Reading SHARK input file Nm_octanol.SHARKINP.tmp ... ok
----------------------
SHARK INTEGRAL PACKAGE
----------------------

Number of atoms                             ...     32
Number of basis functions                   ...    236
Number of shells                            ...    122
Maximum angular momentum                    ...      2
Integral batch strategy                     ... SHARK/LIBINT Hybrid
RI-J (if used) integral strategy            ... SPLIT-RIJ (Revised 2003 algorithm where possible)
Printlevel                                  ...      1
Contraction scheme used                     ... SEGMENTED contraction
Coulomb Range Separation                    ... NOT USED
Exchange Range Separation                   ... NOT USED
Finite Nucleus Model                        ... NOT USED
Auxiliary Coulomb fitting basis             ... AVAILABLE
   # of basis functions in Aux-J            ...   1864
   # of shells in Aux-J                     ...    720
   Maximum angular momentum in Aux-J        ...      3
Auxiliary J/K fitting basis                 ... AVAILABLE
   # of basis functions in Aux-JK           ...   1864
   # of shells in Aux-JK                    ...    720
   Maximum angular momentum in Aux-JK       ...      3
Auxiliary Correlation fitting basis         ... AVAILABLE
   # of basis functions in Aux-C            ...   1864
   # of shells in Aux-C                     ...    720
   Maximum angular momentum in Aux-C        ...      3
Auxiliary 'external' fitting basis          ... NOT available
Integral threshold                          ...     2.500000e-11
Primitive cut-off                           ...     2.500000e-12
Primitive pair pre-selection threshold      ...     2.500000e-12

Calculating pre-screening integrals         ... done (  0.1 sec) Dimension = 122
Organizing shell pair data                  ... done (  0.2 sec)
Shell pair information
Total number of shell pairs                 ...      7503
Shell pairs after pre-screening             ...      6525
Total number of primitive shell pairs       ...     43743
Primitive shell pairs kept                  ...     21887
          la=0 lb=0:   2653 shell pairs
          la=1 lb=0:   2085 shell pairs
          la=1 lb=1:    415 shell pairs
          la=2 lb=0:    912 shell pairs
          la=2 lb=1:    370 shell pairs
          la=2 lb=2:     90 shell pairs

Calculating one electron integrals          ... done (  0.0 sec)
Calculating RI/J V-Matrix + Cholesky decomp.... done (  0.4 sec)
Calculating RI/JK V-Matrix + Cholesky decomp... done (  0.2 sec)
Calculating RI/C V-Matrix + Cholesky decomp.... done (  0.2 sec)
Calculating Nuclear repulsion               ... done (  0.0 sec) ENN=   1104.911730166790 Eh

SHARK setup successfully completed in   1.6 seconds

Maximum memory used throughout the entire GTOINT-calculation: 31.3 MB


           ************************************************************
           *        Program running with 4 parallel MPI-processes     *
           *              working on a common directory               *
           ************************************************************
-------------------------------------------------------------------------------
                                 ORCA SCF
-------------------------------------------------------------------------------

------------
SCF SETTINGS
------------
Hamiltonian:
 Density Functional     Method          .... DFT(GTOs)
 Exchange Functional    Exchange        .... B88
   X-Alpha parameter    XAlpha          ....  0.666667
   Becke's b parameter  XBeta           ....  0.004200
 Correlation Functional Correlation     .... LYP
 LDA part of GGA corr.  LDAOpt          .... VWN-5
 Gradients option       PostSCFGGA      .... off
 Hybrid DFT is turned on
   Fraction HF Exchange ScalHFX         ....  0.200000
   Scaling of DF-GGA-X  ScalDFX         ....  0.720000
   Scaling of DF-GGA-C  ScalDFC         ....  0.810000
   Scaling of DF-LDA-C  ScalLDAC        ....  1.000000
   Perturbative correction              ....  0.000000
   Density functional embedding theory  .... OFF
   NL short-range parameter             ....  4.800000
 RI-approximation to the Coulomb term is turned on
   Number of AuxJ basis functions       .... 1864
   RIJ-COSX (HFX calculated with COS-X)).... on


General Settings:
 Integral files         IntName         .... Nm_octanol
 Hartree-Fock type      HFTyp           .... RHF
 Total Charge           Charge          ....    0
 Multiplicity           Mult            ....    1
 Number of Electrons    NEL             ....  118
 Basis Dimension        Dim             ....  236
 Nuclear Repulsion      ENuc            ....   1104.9117301668 Eh

Convergence Acceleration:
 DIIS                   CNVDIIS         .... on
   Start iteration      DIISMaxIt       ....    12
   Startup error        DIISStart       ....  0.200000
   # of expansion vecs  DIISMaxEq       ....     5
   Bias factor          DIISBfac        ....   1.050
   Max. coefficient     DIISMaxC        ....  10.000
 Trust-Rad. Augm. Hess. CNVTRAH         .... auto
   Auto Start mean grad. ratio tolernc. ....  1.125000
   Auto Start start iteration           ....    20
   Auto Start num. interpolation iter.  ....    10
   Max. Number of Micro iterations      ....    16
   Max. Number of Macro iterations      .... Maxiter - #DIIS iter
   Number of Davidson start vectors     ....     2
   Converg. threshold I  (grad. norm)   ....   1.000e-05
   Converg. threshold II (energy diff.) ....   1.000e-08
   Grad. Scal. Fac. for Micro threshold ....   0.100
   Minimum threshold for Micro iter.    ....   0.010
   NR start threshold (gradient norm)   ....   0.001
   Initial trust radius                 ....   0.400
   Minimum AH scaling param. (alpha)    ....   1.000
   Maximum AH scaling param. (alpha)    .... 1000.000
   Orbital update algorithm             .... Taylor
   White noise on init. David. guess    .... on
   Maximum white noise                  ....   0.010
   Quad. conv. algorithm                .... NR
 SOSCF                  CNVSOSCF        .... on
   Start iteration      SOSCFMaxIt      ....   150
   Startup grad/error   SOSCFStart      ....  0.003300
 Level Shifting         CNVShift        .... on
   Level shift para.    LevelShift      ....    0.2500
   Turn off err/grad.   ShiftErr        ....    0.0010
 Zerner damping         CNVZerner       .... off
 Static damping         CNVDamp         .... on
   Fraction old density DampFac         ....    0.7000
   Max. Damping (<1)    DampMax         ....    0.9800
   Min. Damping (>=0)   DampMin         ....    0.0000
   Turn off err/grad.   DampErr         ....    0.1000
 Fernandez-Rico         CNVRico         .... off

SCF Procedure:
 Maximum # iterations   MaxIter         ....   125
 SCF integral mode      SCFMode         .... Direct
   Integral package                     .... SHARK and LIBINT hybrid scheme
 Reset frequency        DirectResetFreq ....    20
 Integral Threshold     Thresh          ....  2.500e-11 Eh
 Primitive CutOff       TCut            ....  2.500e-12 Eh

Convergence Tolerance:
 Convergence Check Mode ConvCheckMode   .... Total+1el-Energy
 Convergence forced     ConvForced      .... 0
 Energy Change          TolE            ....  1.000e-08 Eh
 1-El. energy change                    ....  1.000e-05 Eh
 Orbital Gradient       TolG            ....  1.000e-05
 Orbital Rotation angle TolX            ....  1.000e-05
 DIIS Error             TolErr          ....  5.000e-07


Diagonalization of the overlap matrix:
Smallest eigenvalue                        ... 3.272e-03
Time for diagonalization                   ...    0.009 sec
Threshold for overlap eigenvalues          ... 1.000e-08
Number of eigenvalues below threshold      ... 0
Time for construction of square roots      ...    0.008 sec
Total time needed                          ...    0.018 sec

Time for model grid setup =    0.265 sec

------------------------------
INITIAL GUESS: MODEL POTENTIAL
------------------------------
Loading Hartree-Fock densities                     ... done
Calculating cut-offs                               ... done
Initializing the effective Hamiltonian             ... done
Setting up the integral package (SHARK)            ... done
Starting the Coulomb interaction                   ... done (   0.2 sec)
Reading the grid                                   ... done
Mapping shells                                     ... done
Starting the XC term evaluation                    ... done (   0.2 sec)
  promolecular density results
     # of electrons  =    117.984518834
     EX              =   -106.208635533
     EC              =     -4.086289889
     EX+EC           =   -110.294925422
Transforming the Hamiltonian                       ... done (   0.0 sec)
Diagonalizing the Hamiltonian                      ... done (   0.0 sec)
Back transforming the eigenvectors                 ... done (   0.0 sec)
Now organizing SCF variables                       ... done
                      ------------------
                      INITIAL GUESS DONE (   0.7 sec)
                      ------------------
-------------------
DFT GRID GENERATION
-------------------

General Integration Accuracy     IntAcc      ... 4.388
Radial Grid Type                 RadialGrid  ... OptM3 with GC (2021)
Angular Grid (max. ang.)         AngularGrid ... 4 (Lebedev-302)
Angular grid pruning method      GridPruning ... 4 (adaptive)
Weight generation scheme         WeightScheme... Becke
Basis function cutoff            BFCut       ... 1.0000e-11
Integration weight cutoff        WCut        ... 1.0000e-14
Angular grids for H and He will be reduced by one unit
Partially contracted basis set               ... off
Rotationally invariant grid construction     ... off

Total number of grid points                  ...   142195
Total number of batches                      ...     2239
Average number of points per batch           ...       63
Average number of grid points per atom       ...     4444
Time for grid setup =    1.152 sec

--------------------
COSX GRID GENERATION
--------------------

GRIDX 1
-------
General Integration Accuracy     IntAcc      ... 3.816
Radial Grid Type                 RadialGrid  ... OptM3 with GC (2021)
Angular Grid (max. ang.)         AngularGrid ... 1 (Lebedev-50)
Angular grid pruning method      GridPruning ... 4 (adaptive)
Weight generation scheme         WeightScheme... Becke
Basis function cutoff            BFCut       ... 1.0000e-11
Integration weight cutoff        WCut        ... 1.0000e-14
Angular grids for H and He will be reduced by one unit
Partially contracted basis set               ... on
Rotationally invariant grid construction     ... off

Total number of grid points                  ...    18054
Total number of batches                      ...      301
Average number of points per batch           ...       59
Average number of grid points per atom       ...      564
UseSFitting                                  ... on

GRIDX 2
-------
General Integration Accuracy     IntAcc      ... 4.020
Radial Grid Type                 RadialGrid  ... OptM3 with GC (2021)
Angular Grid (max. ang.)         AngularGrid ... 2 (Lebedev-110)
Angular grid pruning method      GridPruning ... 4 (adaptive)
Weight generation scheme         WeightScheme... Becke
Basis function cutoff            BFCut       ... 1.0000e-11
Integration weight cutoff        WCut        ... 1.0000e-14
Angular grids for H and He will be reduced by one unit
Partially contracted basis set               ... on
Rotationally invariant grid construction     ... off

Total number of grid points                  ...    38040
Total number of batches                      ...      612
Average number of points per batch           ...       62
Average number of grid points per atom       ...     1189
UseSFitting                                  ... on

GRIDX 3
-------
General Integration Accuracy     IntAcc      ... 4.338
Radial Grid Type                 RadialGrid  ... OptM3 with GC (2021)
Angular Grid (max. ang.)         AngularGrid ... 3 (Lebedev-194)
Angular grid pruning method      GridPruning ... 4 (adaptive)
Weight generation scheme         WeightScheme... Becke
Basis function cutoff            BFCut       ... 1.0000e-11
Integration weight cutoff        WCut        ... 1.0000e-14
Angular grids for H and He will be reduced by one unit
Partially contracted basis set               ... on
Rotationally invariant grid construction     ... off

Total number of grid points                  ...    83359
Total number of batches                      ...     1322
Average number of points per batch           ...       63
Average number of grid points per atom       ...     2605
UseSFitting                                  ... on

Time for X-Grid setup             =    2.317 sec


--------------------
CPCM SOLVATION MODEL
--------------------
CPCM parameters:
  Epsilon                                         ...       9.8629
  Refrac                                          ...       1.4295
  Rsolv                                           ...       1.3000
  Surface type                                    ... GAUSSIAN VDW
  Epsilon function type                           ...         CPCM
Radii:
 Radius for C  used is    3.8550 Bohr (=   2.0400 Ang.)
 Radius for H  used is    2.4944 Bohr (=   1.3200 Ang.)
 Radius for O  used is    3.4469 Bohr (=   1.8240 Ang.)
 Radius for N  used is    3.5149 Bohr (=   1.8600 Ang.)
 Radius for S  used is    4.0818 Bohr (=   2.1600 Ang.)
Calculating surface                               ...        done! (  0.0s)
GEPOL surface points                              ...         1667
GEPOL Volume                                      ...    1825.8902
GEPOL Surface-area                                ...     950.7175
Calculating surface distance matrix               ...        done! (  0.0s)
Performing Cholesky decomposition & store         ...        done! (  0.1s)
Overall time for CPCM initialization              ...                 0.1s
--------------
SCF ITERATIONS
--------------
ITER       Energy         Delta-E        Max-DP      RMS-DP      [F,P]     Damp
               ***  Starting incremental Fock matrix formation  ***
  0  -1011.1096548766   0.000000000000 0.09665524  0.00210038  0.2741301 0.7000
  1  -1011.3034856637  -0.193830787077 0.05565782  0.00140113  0.1112228 0.7000
                               ***Turning on DIIS***
  2  -1011.3769341434  -0.073448479777 0.07311565  0.00219320  0.0373991 0.0000
  3  -1011.4953183582  -0.118384214773 0.03708256  0.00095024  0.0553233 0.0000
  4  -1011.5200118881  -0.024693529876 0.00906118  0.00031302  0.0122159 0.0000
  5  -1011.5216089790  -0.001597090925 0.00374399  0.00009978  0.0059387 0.0000
                      *** Initiating the SOSCF procedure ***
                           *** Shutting down DIIS ***
                      *** Re-Reading the Fockian *** 
                      *** Removing any level shift *** 
ITER      Energy       Delta-E        Grad      Rot      Max-DP    RMS-DP
  6  -1011.52173897  -0.0001299866  0.000234  0.000234  0.001321  0.000042
               *** Restarting incremental Fock matrix formation ***
  7  -1011.52176979  -0.0000308255  0.000204  0.000822  0.001441  0.000024
  8  -1011.52176582   0.0000039727  0.000377  0.000575  0.000976  0.000015
  9  -1011.52177253  -0.0000067125  0.000048  0.000136  0.000223  0.000005
 10  -1011.52177230   0.0000002346  0.000098  0.000091  0.000168  0.000003
 11  -1011.52177262  -0.0000003214  0.000007  0.000008  0.000029  0.000001
 12  -1011.52177262  -0.0000000065  0.000007  0.000004  0.000013  0.000000
                  ***Gradient check signals convergence***
              ***Rediagonalizing the Fockian in SOSCF/NRSCF***

               *****************************************************
               *                     SUCCESS                       *
               *           SCF CONVERGED AFTER  13 CYCLES          *
               *****************************************************

Old exchange energy                            =    -21.576156164 Eh
New exchange energy                            =    -21.576138710 Eh
Exchange energy change after final integration =      0.000017454 Eh
Total energy after final integration           =  -1011.521755169 Eh
Final COS-X integration done in                =     9.741 sec

----------------
TOTAL SCF ENERGY
----------------

Total Energy       :        -1011.52175517 Eh          -27524.90630 eV

Components:
Nuclear Repulsion  :         1104.91173017 Eh           30066.17671 eV
Electronic Energy  :        -2116.43348534 Eh          -57591.08301 eV
One Electron Energy:        -3579.08763608 Eh          -97391.92589 eV
Two Electron Energy:         1462.65415075 Eh           39800.84288 eV
Max COSX asymmetry :            0.00000238 Eh               0.00006 eV
CPCM Dielectric    :           -0.01819258 Eh              -0.49505 eV

Virial components:
Potential Energy   :        -2018.75007839 Eh          -54932.98237 eV
Kinetic Energy     :         1007.22832322 Eh           27408.07607 eV
Virial Ratio       :            2.00426262


DFT components:
N(Alpha)           :       58.999991240122 electrons
N(Beta)            :       58.999991240122 electrons
N(Total)           :      117.999982480243 electrons
E(X)               :      -85.646022844414 Eh       
E(C)               :       -4.808222736212 Eh       
E(XC)              :      -90.454245580626 Eh       
DFET-embed. en.    :        0.000000000000 Eh       
CPCM Solvation Model Properties:
Surface-charge          :           -0.02259196
Charge-correction       :           -0.00013966 Eh              -0.00380 eV
Free-energy (cav+disp)  :  This term is not implemented in the current solvation scheme

---------------
SCF CONVERGENCE
---------------

  Last Energy change         ...    1.1486e-09  Tolerance :   1.0000e-08
  Last MAX-Density change    ...    3.5527e-15  Tolerance :   1.0000e-07
  Last RMS-Density change    ...    5.0577e-17  Tolerance :   5.0000e-09
  Last Orbital Gradient      ...    5.7703e-07  Tolerance :   1.0000e-05
  Last Orbital Rotation      ...    1.0892e-06  Tolerance :   1.0000e-05

             **** THE GBW FILE WAS UPDATED (Nm_octanol.gbw) ****
             **** DENSITY Nm_octanol.scfp WAS UPDATED ****
             **** ENERGY FILE WAS UPDATED (Nm_octanol.en.tmp) ****
             **** THE GBW FILE WAS UPDATED (Nm_octanol.gbw) ****
             **** DENSITY Nm_octanol.scfp WAS UPDATED ****
----------------
ORBITAL ENERGIES
----------------

  NO   OCC          E(Eh)            E(eV) 
   0   2.0000     -88.849831     -2417.7268 
   1   2.0000     -19.112580      -520.0798 
   2   2.0000     -19.110385      -520.0200 
   3   2.0000     -14.363908      -390.8618 
   4   2.0000     -14.361426      -390.7943 
   5   2.0000     -10.286796      -279.9180 
   6   2.0000     -10.281381      -279.7706 
   7   2.0000     -10.215422      -277.9758 
   8   2.0000     -10.212358      -277.8924 
   9   2.0000     -10.201040      -277.5844 
  10   2.0000     -10.199665      -277.5470 
  11   2.0000     -10.196359      -277.4570 
  12   2.0000     -10.187786      -277.2238 
  13   2.0000     -10.174803      -276.8705 
  14   2.0000      -7.926271      -215.6848 
  15   2.0000      -5.890604      -160.2915 
  16   2.0000      -5.886911      -160.1910 
  17   2.0000      -5.880228      -160.0091 
  18   2.0000      -1.034150       -28.1406 
  19   2.0000      -1.026538       -27.9335 
  20   2.0000      -0.937550       -25.5120 
  21   2.0000      -0.929353       -25.2890 
  22   2.0000      -0.807713       -21.9790 
  23   2.0000      -0.762306       -20.7434 
  24   2.0000      -0.736451       -20.0398 
  25   2.0000      -0.718858       -19.5611 
  26   2.0000      -0.707769       -19.2594 
  27   2.0000      -0.672607       -18.3026 
  28   2.0000      -0.661436       -17.9986 
  29   2.0000      -0.587054       -15.9746 
  30   2.0000      -0.554062       -15.0768 
  31   2.0000      -0.539103       -14.6697 
  32   2.0000      -0.514317       -13.9953 
  33   2.0000      -0.490797       -13.3553 
  34   2.0000      -0.481129       -13.0922 
  35   2.0000      -0.466196       -12.6858 
  36   2.0000      -0.458406       -12.4739 
  37   2.0000      -0.452423       -12.3111 
  38   2.0000      -0.446896       -12.1607 
  39   2.0000      -0.425035       -11.5658 
  40   2.0000      -0.416792       -11.3415 
  41   2.0000      -0.413179       -11.2432 
  42   2.0000      -0.404260       -11.0005 
  43   2.0000      -0.399105       -10.8602 
  44   2.0000      -0.396681       -10.7942 
  45   2.0000      -0.394722       -10.7409 
  46   2.0000      -0.389408       -10.5963 
  47   2.0000      -0.388526       -10.5723 
  48   2.0000      -0.376215       -10.2373 
  49   2.0000      -0.371716       -10.1149 
  50   2.0000      -0.359278        -9.7765 
  51   2.0000      -0.351888        -9.5754 
  52   2.0000      -0.347253        -9.4492 
  53   2.0000      -0.310203        -8.4411 
  54   2.0000      -0.261547        -7.1171 
  55   2.0000      -0.254896        -6.9361 
  56   2.0000      -0.242114        -6.5882 
  57   2.0000      -0.238565        -6.4917 
  58   2.0000      -0.220256        -5.9935 
  59   0.0000       0.009225         0.2510 
  60   0.0000       0.024452         0.6654 
  61   0.0000       0.048801         1.3279 
  62   0.0000       0.082010         2.2316 
  63   0.0000       0.091935         2.5017 
  64   0.0000       0.100264         2.7283 
  65   0.0000       0.115956         3.1553 
  66   0.0000       0.125238         3.4079 
  67   0.0000       0.133773         3.6401 
  68   0.0000       0.146050         3.9742 
  69   0.0000       0.149451         4.0668 
  70   0.0000       0.153988         4.1902 
  71   0.0000       0.163641         4.4529 
  72   0.0000       0.166400         4.5280 
  73   0.0000       0.169801         4.6205 
  74   0.0000       0.174654         4.7526 
  75   0.0000       0.182938         4.9780 
  76   0.0000       0.189896         5.1673 
  77   0.0000       0.192390         5.2352 
  78   0.0000       0.201358         5.4792 
  79   0.0000       0.208445         5.6721 
  80   0.0000       0.211545         5.7564 
  81   0.0000       0.222196         6.0463 
  82   0.0000       0.229236         6.2378 
  83   0.0000       0.235008         6.3949 
  84   0.0000       0.247541         6.7359 
  85   0.0000       0.253970         6.9109 
  86   0.0000       0.258887         7.0447 
  87   0.0000       0.283487         7.7141 
  88   0.0000       0.327703         8.9173 
  89   0.0000       0.355478         9.6731 
  90   0.0000       0.368068        10.0156 
  91   0.0000       0.370202        10.0737 
  92   0.0000       0.395151        10.7526 
  93   0.0000       0.400926        10.9098 
  94   0.0000       0.420655        11.4466 
  95   0.0000       0.437045        11.8926 
  96   0.0000       0.467437        12.7196 
  97   0.0000       0.481824        13.1111 
  98   0.0000       0.505932        13.7671 
  99   0.0000       0.514412        13.9979 
 100   0.0000       0.521818        14.1994 
 101   0.0000       0.531576        14.4649 
 102   0.0000       0.536952        14.6112 
 103   0.0000       0.547107        14.8875 
 104   0.0000       0.574352        15.6289 
 105   0.0000       0.587329        15.9820 
 106   0.0000       0.594017        16.1640 
 107   0.0000       0.600192        16.3321 
 108   0.0000       0.605109        16.4659 
 109   0.0000       0.614208        16.7134 
 110   0.0000       0.635376        17.2895 
 111   0.0000       0.645629        17.5685 
 112   0.0000       0.657002        17.8779 
 113   0.0000       0.672197        18.2914 
 114   0.0000       0.682324        18.5670 
 115   0.0000       0.703798        19.1513 
 116   0.0000       0.721175        19.6242 
 117   0.0000       0.723836        19.6966 
 118   0.0000       0.755709        20.5639 
 119   0.0000       0.763624        20.7793 
 120   0.0000       0.789020        21.4703 
 121   0.0000       0.797582        21.7033 
 122   0.0000       0.807687        21.9783 
 123   0.0000       0.826121        22.4799 
 124   0.0000       0.837148        22.7800 
 125   0.0000       0.840128        22.8611 
 126   0.0000       0.846619        23.0377 
 127   0.0000       0.859332        23.3836 
 128   0.0000       0.861742        23.4492 
 129   0.0000       0.873943        23.7812 
 130   0.0000       0.882146        24.0044 
 131   0.0000       0.886243        24.1159 
 132   0.0000       0.888919        24.1887 
 133   0.0000       0.893408        24.3109 
 134   0.0000       0.898061        24.4375 
 135   0.0000       0.911787        24.8110 
 136   0.0000       0.919635        25.0246 
 137   0.0000       0.925596        25.1868 
 138   0.0000       0.929838        25.3022 
 139   0.0000       0.944298        25.6957 
 140   0.0000       0.950150        25.8549 
 141   0.0000       0.964609        26.2484 
 142   0.0000       0.971371        26.4323 
 143   0.0000       0.978540        26.6274 
 144   0.0000       0.992413        27.0049 
 145   0.0000       1.004418        27.3316 
 146   0.0000       1.011000        27.5107 
 147   0.0000       1.017240        27.6805 
 148   0.0000       1.035986        28.1906 
 149   0.0000       1.051109        28.6021 
 150   0.0000       1.054193        28.6860 
 151   0.0000       1.078929        29.3592 
 152   0.0000       1.105869        30.0922 
 153   0.0000       1.128387        30.7050 
 154   0.0000       1.177411        32.0390 
 155   0.0000       1.181838        32.1594 
 156   0.0000       1.217507        33.1301 
 157   0.0000       1.237681        33.6790 
 158   0.0000       1.253489        34.1092 
 159   0.0000       1.285932        34.9920 
 160   0.0000       1.295138        35.2425 
 161   0.0000       1.318809        35.8866 
 162   0.0000       1.341072        36.4924 
 163   0.0000       1.362712        37.0813 
 164   0.0000       1.379987        37.5514 
 165   0.0000       1.406614        38.2759 
 166   0.0000       1.430914        38.9371 
 167   0.0000       1.434003        39.0212 
 168   0.0000       1.450072        39.4585 
 169   0.0000       1.461267        39.7631 
 170   0.0000       1.486192        40.4414 
 171   0.0000       1.556162        42.3453 
 172   0.0000       1.593829        43.3703 
 173   0.0000       1.644245        44.7422 
 174   0.0000       1.661805        45.2200 
 175   0.0000       1.711393        46.5694 
 176   0.0000       1.726521        46.9810 
 177   0.0000       1.732863        47.1536 
 178   0.0000       1.744500        47.4702 
 179   0.0000       1.759180        47.8697 
 180   0.0000       1.785869        48.5960 
 181   0.0000       1.803294        49.0701 
 182   0.0000       1.820482        49.5378 
 183   0.0000       1.838794        50.0361 
 184   0.0000       1.857418        50.5429 
 185   0.0000       1.867006        50.8038 
 186   0.0000       1.893971        51.5376 
 187   0.0000       1.897114        51.6231 
 188   0.0000       1.917962        52.1904 
 189   0.0000       1.937655        52.7263 
 190   0.0000       1.947176        52.9853 
 191   0.0000       1.958427        53.2915 
 192   0.0000       1.978684        53.8427 
 193   0.0000       1.981065        53.9075 
 194   0.0000       2.019136        54.9435 
 195   0.0000       2.035974        55.4017 
 196   0.0000       2.046305        55.6828 
 197   0.0000       2.076124        56.4942 
 198   0.0000       2.083249        56.6881 
 199   0.0000       2.088025        56.8180 
 200   0.0000       2.104309        57.2612 
 201   0.0000       2.124420        57.8084 
 202   0.0000       2.145111        58.3714 
 203   0.0000       2.188834        59.5612 
 204   0.0000       2.201696        59.9112 
 205   0.0000       2.208347        60.0922 
 206   0.0000       2.227491        60.6131 
 207   0.0000       2.252993        61.3071 
 208   0.0000       2.264807        61.6285 
 209   0.0000       2.268081        61.7176 
 210   0.0000       2.280017        62.0424 
 211   0.0000       2.287215        62.2383 
 212   0.0000       2.332833        63.4796 
 213   0.0000       2.334570        63.5269 
 214   0.0000       2.346905        63.8625 
 215   0.0000       2.368394        64.4473 
 216   0.0000       2.376278        64.6618 
 217   0.0000       2.416618        65.7595 
 218   0.0000       2.432375        66.1883 
 219   0.0000       2.474655        67.3388 
 220   0.0000       2.516545        68.4787 
 221   0.0000       2.549294        69.3698 
 222   0.0000       2.573160        70.0192 
 223   0.0000       2.617751        71.2326 
 224   0.0000       2.630374        71.5761 
 225   0.0000       2.643362        71.9295 
 226   0.0000       2.669299        72.6353 
 227   0.0000       2.706346        73.6434 
 228   0.0000       2.727046        74.2067 
 229   0.0000       2.749159        74.8084 
 230   0.0000       2.935879        79.8893 
 231   0.0000       2.951781        80.3220 
 232   0.0000       2.995766        81.5189 
 233   0.0000       3.009245        81.8857 
 234   0.0000       3.162018        86.0429 
 235   0.0000       3.181309        86.5678 

                    ********************************
                    * MULLIKEN POPULATION ANALYSIS *
                    ********************************

-----------------------
MULLIKEN ATOMIC CHARGES
-----------------------
   0 C :   -0.561109
   1 H :    0.192699
   2 H :    0.199077
   3 H :    0.183899
   4 C :    0.531928
   5 O :   -0.528217
   6 N :   -0.374358
   7 C :   -0.246006
   8 H :    0.183420
   9 H :    0.206542
  10 C :   -0.165904
  11 H :    0.185883
  12 H :    0.188726
  13 C :   -0.434293
  14 H :    0.203633
  15 H :    0.197347
  16 C :    0.517641
  17 N :   -0.358744
  18 O :   -0.535812
  19 C :   -0.348813
  20 H :    0.170711
  21 H :    0.172673
  22 H :    0.199308
  23 C :   -0.330608
  24 H :    0.171231
  25 H :    0.187432
  26 H :    0.171606
  27 S :    0.035724
  28 C :   -0.604932
  29 H :    0.200546
  30 H :    0.194747
  31 H :    0.194024
Sum of atomic charges:   -0.0000000

--------------------------------
MULLIKEN REDUCED ORBITAL CHARGES
--------------------------------
  0 C s       :     3.323649  s :     3.323649
      pz      :     1.079816  p :     3.205530
      px      :     1.111728
      py      :     1.013986
      dz2     :     0.002294  d :     0.031929
      dxz     :     0.009719
      dyz     :     0.008073
      dx2y2   :     0.005935
      dxy     :     0.005907
  1 H s       :     0.807301  s :     0.807301
  2 H s       :     0.800923  s :     0.800923
  3 H s       :     0.816101  s :     0.816101
  4 C s       :     2.983511  s :     2.983511
      pz      :     0.799096  p :     2.376729
      px      :     0.759725
      py      :     0.817908
      dz2     :     0.008856  d :     0.107832
      dxz     :     0.027944
      dyz     :     0.007408
      dx2y2   :     0.026342
      dxy     :     0.037283
  5 O s       :     3.865162  s :     3.865162
      pz      :     1.555344  p :     4.637981
      px      :     1.383103
      py      :     1.699534
      dz2     :     0.002412  d :     0.025074
      dxz     :     0.007952
      dyz     :     0.000628
      dx2y2   :     0.007421
      dxy     :     0.006661
  6 N s       :     3.533563  s :     3.533563
      pz      :     1.478348  p :     3.804290
      px      :     1.093896
      py      :     1.232047
      dz2     :     0.004858  d :     0.036504
      dxz     :     0.007007
      dyz     :     0.004917
      dx2y2   :     0.009836
      dxy     :     0.009886
  7 C s       :     3.249738  s :     3.249738
      pz      :     1.012785  p :     2.944395
      px      :     1.093991
      py      :     0.837620
      dz2     :     0.014409  d :     0.051873
      dxz     :     0.005008
      dyz     :     0.011137
      dx2y2   :     0.014233
      dxy     :     0.007086
  8 H s       :     0.816580  s :     0.816580
  9 H s       :     0.793458  s :     0.793458
 10 C s       :     3.217326  s :     3.217326
      pz      :     1.019169  p :     2.894403
      px      :     0.789780
      py      :     1.085454
      dz2     :     0.011225  d :     0.054175
      dxz     :     0.012961
      dyz     :     0.006167
      dx2y2   :     0.016489
      dxy     :     0.007332
 11 H s       :     0.814117  s :     0.814117
 12 H s       :     0.811274  s :     0.811274
 13 C s       :     3.332362  s :     3.332362
      pz      :     1.036845  p :     3.061528
      px      :     0.906824
      py      :     1.117859
      dz2     :     0.009127  d :     0.040402
      dxz     :     0.007703
      dyz     :     0.007174
      dx2y2   :     0.010560
      dxy     :     0.005838
 14 H s       :     0.796367  s :     0.796367
 15 H s       :     0.802653  s :     0.802653
 16 C s       :     2.988558  s :     2.988558
      pz      :     0.780716  p :     2.386439
      px      :     0.768705
      py      :     0.837017
      dz2     :     0.027821  d :     0.107363
      dxz     :     0.023219
      dyz     :     0.016260
      dx2y2   :     0.016741
      dxy     :     0.023322
 17 N s       :     3.532906  s :     3.532906
      pz      :     1.195921  p :     3.788031
      px      :     1.315889
      py      :     1.276221
      dz2     :     0.008144  d :     0.037807
      dxz     :     0.007994
      dyz     :     0.008256
      dx2y2   :     0.005628
      dxy     :     0.007785
 18 O s       :     3.865842  s :     3.865842
      pz      :     1.630968  p :     4.645168
      px      :     1.383314
      py      :     1.630886
      dz2     :     0.003887  d :     0.024802
      dxz     :     0.006118
      dyz     :     0.003159
      dx2y2   :     0.006515
      dxy     :     0.005123
 19 C s       :     3.270033  s :     3.270033
      pz      :     1.010172  p :     3.030649
      px      :     0.945105
      py      :     1.075372
      dz2     :     0.007526  d :     0.048130
      dxz     :     0.011872
      dyz     :     0.010696
      dx2y2   :     0.005029
      dxy     :     0.013007
 20 H s       :     0.829289  s :     0.829289
 21 H s       :     0.827327  s :     0.827327
 22 H s       :     0.800692  s :     0.800692
 23 C s       :     3.259613  s :     3.259613
      pz      :     1.064536  p :     3.023170
      px      :     1.038640
      py      :     0.919993
      dz2     :     0.005532  d :     0.047825
      dxz     :     0.013444
      dyz     :     0.009421
      dx2y2   :     0.006151
      dxy     :     0.013277
 24 H s       :     0.828769  s :     0.828769
 25 H s       :     0.812568  s :     0.812568
 26 H s       :     0.828394  s :     0.828394
 27 S s       :     5.838806  s :     5.838806
      pz      :     3.463260  p :    10.057281
      px      :     3.019928
      py      :     3.574093
      dz2     :     0.012679  d :     0.068189
      dxz     :     0.009189
      dyz     :     0.015372
      dx2y2   :     0.021438
      dxy     :     0.009512
 28 C s       :     3.377922  s :     3.377922
      pz      :     1.024347  p :     3.192772
      px      :     1.121927
      py      :     1.046498
      dz2     :     0.011962  d :     0.034238
      dxz     :     0.001878
      dyz     :     0.007244
      dx2y2   :     0.006276
      dxy     :     0.006878
 29 H s       :     0.799454  s :     0.799454
 30 H s       :     0.805253  s :     0.805253
 31 H s       :     0.805976  s :     0.805976


                     *******************************
                     * LOEWDIN POPULATION ANALYSIS *
                     *******************************

----------------------
LOEWDIN ATOMIC CHARGES
----------------------
   0 C :   -0.392296
   1 H :    0.152782
   2 H :    0.159214
   3 H :    0.151944
   4 C :    0.119231
   5 O :   -0.331527
   6 N :   -0.070282
   7 C :   -0.177895
   8 H :    0.146053
   9 H :    0.160061
  10 C :   -0.169122
  11 H :    0.145877
  12 H :    0.145421
  13 C :   -0.348498
  14 H :    0.146071
  15 H :    0.150737
  16 C :    0.096268
  17 N :   -0.068310
  18 O :   -0.336667
  19 C :   -0.286633
  20 H :    0.132711
  21 H :    0.136234
  22 H :    0.150776
  23 C :   -0.280740
  24 H :    0.131957
  25 H :    0.148516
  26 H :    0.136889
  27 S :    0.087365
  28 C :   -0.478117
  29 H :    0.148185
  30 H :    0.153054
  31 H :    0.140738

-------------------------------
LOEWDIN REDUCED ORBITAL CHARGES
-------------------------------
  0 C s       :     2.981385  s :     2.981385
      pz      :     1.126143  p :     3.348087
      px      :     1.144417
      py      :     1.077528
      dz2     :     0.004225  d :     0.062823
      dxz     :     0.017937
      dyz     :     0.016435
      dx2y2   :     0.012179
      dxy     :     0.012047
  1 H s       :     0.847218  s :     0.847218
  2 H s       :     0.840786  s :     0.840786
  3 H s       :     0.848056  s :     0.848056
  4 C s       :     2.850213  s :     2.850213
      pz      :     0.839950  p :     2.776444
      px      :     0.979688
      py      :     0.956806
      dz2     :     0.020104  d :     0.254112
      dxz     :     0.063203
      dyz     :     0.015116
      dx2y2   :     0.064065
      dxy     :     0.091624
  5 O s       :     3.565934  s :     3.565934
      pz      :     1.546768  p :     4.714199
      px      :     1.466043
      py      :     1.701388
      dz2     :     0.006276  d :     0.051394
      dxz     :     0.012185
      dyz     :     0.001035
      dx2y2   :     0.018125
      dxy     :     0.013773
  6 N s       :     3.095562  s :     3.095562
      pz      :     1.461428  p :     3.879550
      px      :     1.159901
      py      :     1.258222
      dz2     :     0.010871  d :     0.095169
      dxz     :     0.017274
      dyz     :     0.012129
      dx2y2   :     0.026848
      dxy     :     0.028047
  7 C s       :     2.930810  s :     2.930810
      pz      :     1.064522  p :     3.137306
      px      :     1.126387
      py      :     0.946397
      dz2     :     0.029475  d :     0.109779
      dxz     :     0.009012
      dyz     :     0.024856
      dx2y2   :     0.030475
      dxy     :     0.015960
  8 H s       :     0.853947  s :     0.853947
  9 H s       :     0.839939  s :     0.839939
 10 C s       :     2.925525  s :     2.925525
      pz      :     1.096692  p :     3.128243
      px      :     0.906784
      py      :     1.124767
      dz2     :     0.023235  d :     0.115354
      dxz     :     0.029844
      dyz     :     0.011936
      dx2y2   :     0.034300
      dxy     :     0.016039
 11 H s       :     0.854123  s :     0.854123
 12 H s       :     0.854579  s :     0.854579
 13 C s       :     2.993002  s :     2.993002
      pz      :     1.104912  p :     3.270432
      px      :     1.020268
      py      :     1.145251
      dz2     :     0.019447  d :     0.085064
      dxz     :     0.017093
      dyz     :     0.014012
      dx2y2   :     0.022622
      dxy     :     0.011891
 14 H s       :     0.853929  s :     0.853929
 15 H s       :     0.849263  s :     0.849263
[...]
     61       0.000726   0.000116   0.014952   0.000373  -0.017102  -0.072152
     62      -0.001132  -0.000169  -0.021573  -0.000463   0.023425   0.104356
     63       0.000748   0.000399  -0.025673  -0.001253   0.035193   0.132863
     64       0.000746   0.000451  -0.027852  -0.001316   0.038343   0.152613
     65       0.000341   0.000226  -0.010432  -0.000502   0.015680   0.060140
     66      -0.002694  -0.000099   0.087151   0.003765  -0.115331  -0.482601
     67       0.003646   0.000121  -0.115791  -0.005173   0.150810   0.627213
     68       0.002700   0.000095  -0.085521  -0.003726   0.112087   0.465576
     69      -0.000654   0.000046   0.000405   0.000073  -0.051255   0.011821
     70      -0.000242  -0.000173  -0.000267   0.000009   0.023122  -0.005469
     71       0.000226   0.000245   0.000103   0.000010  -0.068148   0.016401
     72       0.003962   0.000889  -0.001064  -0.000232  -0.086680   0.021367
     73       0.002079   0.000532  -0.000301  -0.000130  -0.042823   0.010981
     74      -0.005060  -0.001114   0.001604   0.000324   0.091346  -0.023419
     75       0.001225  -0.001586  -0.002779  -0.000303   0.522994  -0.127258
     76      -0.000923   0.001258   0.002195   0.000247  -0.396545   0.097171
     77       0.001579  -0.001983  -0.003169  -0.000355   0.649304  -0.157580
     78       0.002131   0.000300  -0.000154  -0.000284   0.175241  -0.039804
     79       0.002044   0.000272  -0.000049  -0.000285   0.172012  -0.037510
     80       0.001065   0.000192   0.000017  -0.000142   0.081222  -0.018136
     81       0.000097   0.000084   0.000007  -0.000009   0.000002   0.000003
     82      -0.000012  -0.000073  -0.000005  -0.000006  -0.000002  -0.000004
     83       0.000035   0.000064  -0.000003  -0.000005  -0.000001  -0.000003
     84      -0.008085   0.090054  -0.000150  -0.000036   0.000211  -0.000077
     85       0.017639   0.028208   0.000194  -0.000251   0.000206  -0.000069
     86       0.020507  -0.001536   0.000259  -0.000251   0.000097  -0.000028
     87      -0.072667  -0.317859  -0.000673   0.001354  -0.001573   0.000546
     88      -0.105015  -0.521709  -0.000850   0.001899  -0.002472   0.000832
     89      -0.022279  -0.122404  -0.000154   0.000502  -0.000529   0.000185
     90       0.117186  -0.753163   0.001796   0.000013  -0.001179   0.000465
     91      -0.018010   0.149039  -0.000289  -0.000184   0.000242  -0.000118
     92      -0.006402   0.063472  -0.000125   0.000023   0.000129  -0.000046
     93       0.050143  -0.000111   0.000645  -0.000728   0.000197  -0.000068
     94      -0.082741   0.036493  -0.001104   0.001040  -0.000244   0.000051
     95      -0.217712   0.078403  -0.002848   0.002745  -0.000689   0.000172


-----------
IR SPECTRUM
-----------

 Mode   freq       eps      Int      T**2         TX        TY        TZ
       cm**-1   L/(mol*cm) km/mol    a.u.
----------------------------------------------------------------------------
  6:     34.55   0.000376    1.90  0.003397  ( 0.028777  0.003255 -0.050577)
  7:     47.99   0.000847    4.28  0.005505  ( 0.044022  0.057223 -0.017114)
  8:     53.84   0.000306    1.55  0.001773  (-0.026515  0.025325 -0.020701)
  9:     62.90   0.000410    2.07  0.002034  (-0.033336  0.025589 -0.016374)
 10:     74.26   0.001394    7.04  0.005856  (-0.053166 -0.018560  0.051819)
 11:     85.55   0.000558    2.82  0.002036  (-0.003944  0.037929 -0.024130)
 12:    102.96   0.002741   13.85  0.008309  ( 0.018411 -0.068025 -0.057818)
 13:    123.38   0.001233    6.23  0.003119  ( 0.012645  0.038534  0.038402)
 14:    135.10   0.001165    5.89  0.002692  (-0.007803 -0.051296 -0.000114)
 15:    151.32   0.000167    0.85  0.000345  ( 0.010542  0.014809  0.003827)
 16:    159.37   0.000317    1.60  0.000621  ( 0.001407  0.020660 -0.013871)
 17:    167.17   0.000002    0.01  0.000005  ( 0.001660  0.000798  0.001072)
 18:    208.45   0.000788    3.98  0.001179  (-0.009827 -0.032651 -0.004056)
 19:    227.51   0.000178    0.90  0.000244  ( 0.011674 -0.004810 -0.009204)
 20:    257.32   0.001524    7.70  0.001849  (-0.019710 -0.032859  0.019505)
 21:    277.30   0.001372    6.93  0.001544  ( 0.026044  0.029068  0.004529)
 22:    315.52   0.000560    2.83  0.000554  (-0.021772 -0.004709  0.007590)
 23:    352.08   0.002669   13.49  0.002366  (-0.013024 -0.012206 -0.045249)
 24:    374.12   0.003109   15.71  0.002593  (-0.015786  0.043338  0.021578)
 25:    384.58   0.001814    9.17  0.001472  (-0.006917  0.018405  0.032947)
 26:    432.53   0.000094    0.48  0.000068  ( 0.003027  0.007648 -0.000433)
 27:    462.54   0.002707   13.68  0.001827  (-0.042061  0.005495  0.005222)
 28:    493.92   0.004399   22.23  0.002779  ( 0.019646  0.038970 -0.029571)
 29:    579.94   0.003894   19.68  0.002095  (-0.022468  0.035215  0.018715)
 30:    599.62   0.002549   12.88  0.001327  ( 0.025505 -0.022556 -0.012933)
 31:    626.32   0.004571   23.10  0.002277  ( 0.026200  0.004597  0.039622)
 32:    687.53   0.002443   12.35  0.001109  ( 0.011332  0.016560 -0.026574)
 33:    699.48   0.000919    4.64  0.000410  (-0.014953 -0.012876 -0.004547)
 34:    741.50   0.001691    8.54  0.000712  ( 0.015773  0.018752 -0.010540)
 35:    760.58   0.003030   15.31  0.001243  (-0.003931  0.032592  0.012871)
 36:    784.98   0.002451   12.38  0.000974  (-0.029338  0.006167 -0.008690)
 37:    831.67   0.004089   20.66  0.001534  ( 0.016237  0.021420  0.028494)
 38:    958.23   0.000478    2.41  0.000156  (-0.008011  0.000052 -0.009559)
 39:    969.15   0.002631   13.30  0.000847  (-0.014737 -0.021716  0.012590)
 40:    991.81   0.001565    7.91  0.000492  ( 0.007490 -0.008228 -0.019200)
 41:   1002.69   0.005230   26.43  0.001628  ( 0.010442  0.014034  0.036355)
 42:   1010.99   0.007128   36.02  0.002200  (-0.036943  0.026661  0.011165)
 43:   1035.97   0.002452   12.39  0.000739  (-0.003609  0.014711  0.022562)
 44:   1048.64   0.006204   31.35  0.001846  ( 0.040174 -0.012651  0.008494)
 45:   1062.63   0.002101   10.62  0.000617  (-0.004653 -0.011160 -0.021701)
 46:   1088.75   0.002494   12.60  0.000715  ( 0.019733 -0.017346  0.004957)
 47:   1101.92   0.003508   17.73  0.000993  (-0.003012  0.002421 -0.031280)
 48:   1135.32   0.000553    2.79  0.000152  (-0.003163  0.011835 -0.001339)
 49:   1168.12   0.015358   77.61  0.004103  (-0.042406 -0.031441 -0.036278)
 50:   1184.41   0.000961    4.86  0.000253  (-0.008548 -0.007140 -0.011367)
 51:   1218.58   0.009954   50.30  0.002549  (-0.001717  0.016029 -0.047845)
 52:   1250.43   0.015872   80.21  0.003961  ( 0.041729 -0.044941  0.014143)
 53:   1285.09   0.006426   32.47  0.001560  ( 0.002583  0.004136  0.039199)
 54:   1289.13   0.017408   87.97  0.004214  ( 0.040848 -0.050416  0.001921)
 55:   1291.91   0.017260   87.23  0.004169  ( 0.014139 -0.059455  0.020843)
 56:   1340.74   0.005616   28.38  0.001307  ( 0.028067 -0.021618  0.007208)
 57:   1371.40   0.000404    2.04  0.000092  ( 0.006633  0.004638  0.005131)
 58:   1385.83   0.000736    3.72  0.000166  ( 0.003798  0.003228 -0.011866)
 59:   1403.75   0.009486   47.94  0.002109  ( 0.045058 -0.005080 -0.007262)
 60:   1417.00   0.003937   19.89  0.000867  ( 0.010818 -0.022917  0.014991)
 61:   1441.47   0.012757   64.47  0.002762  (-0.015501 -0.024326 -0.043930)
 62:   1457.60   0.018256   92.26  0.003908  ( 0.001562 -0.052009 -0.034657)
 63:   1473.43   0.043009  217.35  0.009109  ( 0.072412 -0.054803  0.029365)
 64:   1479.51   0.007286   36.82  0.001537  ( 0.025899 -0.029422 -0.000628)
 65:   1482.43   0.005279   26.68  0.001111  (-0.032775 -0.001020  0.006009)
 66:   1488.47   0.001478    7.47  0.000310  ( 0.005217 -0.015351 -0.006852)
 67:   1490.87   0.000702    3.55  0.000147  ( 0.002760 -0.006653  0.009753)
 68:   1501.34   0.001776    8.97  0.000369  (-0.015807 -0.009276 -0.005766)
 69:   1504.51   0.003415   17.26  0.000708  ( 0.000348  0.004657 -0.026202)
 70:   1505.48   0.003765   19.03  0.000781  ( 0.005629  0.027269  0.002291)
 71:   1510.64   0.000992    5.02  0.000205  ( 0.007998 -0.011151  0.004087)
 72:   1518.63   0.003852   19.47  0.000792  ( 0.015836  0.022079 -0.007303)
 73:   1529.08   0.009306   47.03  0.001899  (-0.036061  0.005860 -0.023757)
 74:   1533.06   0.005605   28.32  0.001141  (-0.007905 -0.019118  0.026700)
 75:   1556.49   0.016305   82.40  0.003269  ( 0.008192 -0.036168 -0.043518)
 76:   1708.57   0.193894  979.86  0.035414  ( 0.168722 -0.010931  0.082628)
 77:   1712.74   0.033959  171.62  0.006187  (-0.033501 -0.012551  0.070054)
 78:   3034.37   0.005109   25.82  0.000525  (-0.017611  0.012607 -0.007508)
 79:   3039.05   0.018245   92.20  0.001873  (-0.002558  0.008270  0.042409)
 80:   3066.35   0.000682    3.44  0.000069  (-0.004760 -0.006532  0.002014)
 81:   3067.34   0.004318   21.82  0.000439  (-0.004767  0.013337 -0.015449)
 82:   3085.72   0.006056   30.60  0.000612  ( 0.003092 -0.007454  0.023394)
 83:   3091.72   0.000600    3.03  0.000061  (-0.005825  0.001702 -0.004867)
 84:   3095.94   0.011943   60.36  0.001204  ( 0.024454  0.024609  0.000472)
 85:   3102.40   0.005757   29.09  0.000579  (-0.012423 -0.004732 -0.020058)
 86:   3103.43   0.007757   39.20  0.000780  ( 0.019018  0.020148  0.003515)
 87:   3132.01   0.001921    9.71  0.000191  ( 0.001369 -0.004161 -0.013125)
 88:   3138.69   0.000117    0.59  0.000012  ( 0.003184 -0.001212 -0.000028)
 89:   3153.10   0.003341   16.88  0.000331  ( 0.004098 -0.013143 -0.011881)
 90:   3157.50   0.004920   24.86  0.000486  (-0.000090 -0.019310  0.010646)
 91:   3162.16   0.001162    5.87  0.000115  ( 0.010364  0.002686  0.000172)
 92:   3168.50   0.001340    6.77  0.000132  (-0.000996  0.010760  0.003895)
 93:   3173.09   0.002489   12.58  0.000245  ( 0.014633 -0.004645  0.003012)
 94:   3191.06   0.000977    4.94  0.000096  (-0.004550  0.007655 -0.004026)
 95:   3193.77   0.000505    2.55  0.000049  ( 0.004132  0.005669 -0.000409)

* The epsilon (eps) is given for a Dirac delta lineshape.
** The dipole moment derivative (T) already includes vibrational overlap.

The first frequency considered to be a vibration is 6
The total number of vibrations considered is 90


--------------------------
THERMOCHEMISTRY AT 298.15K
--------------------------

Temperature         ... 298.15 K
Pressure            ... 1.00 atm
Total Mass          ... 218.31 AMU

Throughout the following assumptions are being made:
  (1) The electronic state is orbitally nondegenerate
  (2) There are no thermally accessible electronically excited states
  (3) Hindered rotations indicated by low frequency modes are not
      treated as such but are treated as vibrations and this may
      cause some error
  (4) All equations used are the standard statistical mechanics
      equations for an ideal gas
  (5) All vibrations are strictly harmonic

freq.      34.55  E(vib)   ...       0.54 
freq.      47.99  E(vib)   ...       0.53 
freq.      53.84  E(vib)   ...       0.52 
freq.      62.90  E(vib)   ...       0.51 
freq.      74.26  E(vib)   ...       0.49 
freq.      85.55  E(vib)   ...       0.48 
freq.     102.96  E(vib)   ...       0.46 
freq.     123.38  E(vib)   ...       0.43 
freq.     135.10  E(vib)   ...       0.42 
freq.     151.32  E(vib)   ...       0.40 
freq.     159.37  E(vib)   ...       0.39 
freq.     167.17  E(vib)   ...       0.39 
freq.     208.45  E(vib)   ...       0.34 
freq.     227.51  E(vib)   ...       0.33 
freq.     257.32  E(vib)   ...       0.30 
freq.     277.30  E(vib)   ...       0.28 
freq.     315.52  E(vib)   ...       0.25 
freq.     352.08  E(vib)   ...       0.23 
freq.     374.12  E(vib)   ...       0.21 
freq.     384.58  E(vib)   ...       0.20 
freq.     432.53  E(vib)   ...       0.18 
freq.     462.54  E(vib)   ...       0.16 
freq.     493.92  E(vib)   ...       0.14 
freq.     579.94  E(vib)   ...       0.11 
freq.     599.62  E(vib)   ...       0.10 
freq.     626.32  E(vib)   ...       0.09 
freq.     687.53  E(vib)   ...       0.07 
freq.     699.48  E(vib)   ...       0.07 
freq.     741.50  E(vib)   ...       0.06 
freq.     760.58  E(vib)   ...       0.06 
freq.     784.98  E(vib)   ...       0.05 
freq.     831.67  E(vib)   ...       0.04 
freq.     958.23  E(vib)   ...       0.03 
freq.     969.15  E(vib)   ...       0.03 
freq.     991.81  E(vib)   ...       0.02 
freq.    1002.69  E(vib)   ...       0.02 
freq.    1010.99  E(vib)   ...       0.02 
freq.    1035.97  E(vib)   ...       0.02 
freq.    1048.64  E(vib)   ...       0.02 
freq.    1062.63  E(vib)   ...       0.02 
freq.    1088.75  E(vib)   ...       0.02 
freq.    1101.92  E(vib)   ...       0.02 
freq.    1135.32  E(vib)   ...       0.01 
freq.    1168.12  E(vib)   ...       0.01 
freq.    1184.41  E(vib)   ...       0.01 
freq.    1218.58  E(vib)   ...       0.01 
freq.    1250.43  E(vib)   ...       0.01 
freq.    1285.09  E(vib)   ...       0.01 
freq.    1289.13  E(vib)   ...       0.01 
freq.    1291.91  E(vib)   ...       0.01 
freq.    1340.74  E(vib)   ...       0.01 
freq.    1371.40  E(vib)   ...       0.01 
freq.    1385.83  E(vib)   ...       0.00 
freq.    1403.75  E(vib)   ...       0.00 
freq.    1417.00  E(vib)   ...       0.00 
freq.    1441.47  E(vib)   ...       0.00 
freq.    1457.60  E(vib)   ...       0.00 
freq.    1473.43  E(vib)   ...       0.00 
freq.    1479.51  E(vib)   ...       0.00 
freq.    1482.43  E(vib)   ...       0.00 
freq.    1488.47  E(vib)   ...       0.00 
freq.    1490.87  E(vib)   ...       0.00 
freq.    1501.34  E(vib)   ...       0.00 
freq.    1504.51  E(vib)   ...       0.00 
freq.    1505.48  E(vib)   ...       0.00 
freq.    1510.64  E(vib)   ...       0.00 
freq.    1518.63  E(vib)   ...       0.00 
freq.    1529.08  E(vib)   ...       0.00 
freq.    1533.06  E(vib)   ...       0.00 
freq.    1556.49  E(vib)   ...       0.00 
freq.    1708.57  E(vib)   ...       0.00 
freq.    1712.74  E(vib)   ...       0.00 
freq.    3034.37  E(vib)   ...       0.00 
freq.    3039.05  E(vib)   ...       0.00 
freq.    3066.35  E(vib)   ...       0.00 
freq.    3067.34  E(vib)   ...       0.00 
freq.    3085.72  E(vib)   ...       0.00 
freq.    3091.72  E(vib)   ...       0.00 
freq.    3095.94  E(vib)   ...       0.00 
freq.    3102.40  E(vib)   ...       0.00 
freq.    3103.43  E(vib)   ...       0.00 
freq.    3132.01  E(vib)   ...       0.00 
freq.    3138.69  E(vib)   ...       0.00 
freq.    3153.10  E(vib)   ...       0.00 
freq.    3157.50  E(vib)   ...       0.00 
freq.    3162.16  E(vib)   ...       0.00 
freq.    3168.50  E(vib)   ...       0.00 
freq.    3173.09  E(vib)   ...       0.00 
freq.    3191.06  E(vib)   ...       0.00 
freq.    3193.77  E(vib)   ...       0.00 

------------
INNER ENERGY
------------

The inner energy is: U= E(el) + E(ZPE) + E(vib) + E(rot) + E(trans)
    E(el)   - is the total energy from the electronic structure calculation
              = E(kin-el) + E(nuc-el) + E(el-el) + E(nuc-nuc)
    E(ZPE)  - the the zero temperature vibrational energy from the frequency calculation
    E(vib)  - the the finite temperature correction to E(ZPE) due to population
              of excited vibrational states
    E(rot)  - is the rotational thermal energy
    E(trans)- is the translational thermal energy

Summary of contributions to the inner energy U:
Electronic energy                ...  -1011.58033357 Eh
Zero point energy                ...      0.27419774 Eh     172.06 kcal/mol
Thermal vibrational correction   ...      0.01466200 Eh       9.20 kcal/mol
Thermal rotational correction    ...      0.00141627 Eh       0.89 kcal/mol
Thermal translational correction ...      0.00141627 Eh       0.89 kcal/mol
-----------------------------------------------------------------------
Total thermal energy                  -1011.28864129 Eh


Summary of corrections to the electronic energy:
(perhaps to be used in another calculation)
Total thermal correction                  0.01749454 Eh      10.98 kcal/mol
Non-thermal (ZPE) correction              0.27419774 Eh     172.06 kcal/mol
-----------------------------------------------------------------------
Total correction                          0.29169228 Eh     183.04 kcal/mol


--------
ENTHALPY
--------

The enthalpy is H = U + kB*T
                kB is Boltzmann's constant
Total free energy                 ...  -1011.28864129 Eh 
Thermal Enthalpy correction       ...      0.00094421 Eh       0.59 kcal/mol
-----------------------------------------------------------------------
Total Enthalpy                    ...  -1011.28769708 Eh


Note: Only C1 symmetry has been detected, increase convergence thresholds 
      if your molecule has a higher symmetry. Symmetry factor of 1.0 is   
      used for the rotational entropy correction. 
 

Note: Rotational entropy computed according to Herzberg 
Infrared and Raman Spectra, Chapter V,1, Van Nostrand Reinhold, 1945 
Point Group:  C1, Symmetry Number:   1  
Rotational constants in cm-1:     0.021327     0.016608     0.011419 

Vibrational entropy computed according to the QRRHO of S. Grimme
Chem.Eur.J. 2012 18 9955


-------
ENTROPY
-------

The entropy contributions are T*S = T*(S(el)+S(vib)+S(rot)+S(trans))
     S(el)   - electronic entropy
     S(vib)  - vibrational entropy
     S(rot)  - rotational entropy
     S(trans)- translational entropy
The entropies will be listed as multiplied by the temperature to get
units of energy

Electronic entropy                ...      0.00000000 Eh      0.00 kcal/mol
Vibrational entropy               ...      0.02665320 Eh     16.73 kcal/mol
Rotational entropy                ...      0.01537333 Eh      9.65 kcal/mol
Translational entropy             ...      0.01997702 Eh     12.54 kcal/mol
-----------------------------------------------------------------------
Final entropy term                ...      0.06200355 Eh     38.91 kcal/mol

In case the symmetry of your molecule has not been determined correctly
or in case you have a reason to use a different symmetry number we print 
out the resulting rotational entropy values for sn=1,12 :
 --------------------------------------------------------
|  sn= 1 | S(rot)=       0.01537333 Eh      9.65 kcal/mol|
|  sn= 2 | S(rot)=       0.01471887 Eh      9.24 kcal/mol|
|  sn= 3 | S(rot)=       0.01433604 Eh      9.00 kcal/mol|
|  sn= 4 | S(rot)=       0.01406442 Eh      8.83 kcal/mol|
|  sn= 5 | S(rot)=       0.01385373 Eh      8.69 kcal/mol|
|  sn= 6 | S(rot)=       0.01368158 Eh      8.59 kcal/mol|
|  sn= 7 | S(rot)=       0.01353604 Eh      8.49 kcal/mol|
|  sn= 8 | S(rot)=       0.01340996 Eh      8.41 kcal/mol|
|  sn= 9 | S(rot)=       0.01329875 Eh      8.35 kcal/mol|
|  sn=10 | S(rot)=       0.01319927 Eh      8.28 kcal/mol|
|  sn=11 | S(rot)=       0.01310928 Eh      8.23 kcal/mol|
|  sn=12 | S(rot)=       0.01302713 Eh      8.17 kcal/mol|
 --------------------------------------------------------


-------------------
GIBBS FREE ENERGY
-------------------

The Gibbs free energy is G = H - T*S

Total enthalpy                    ...  -1011.28769708 Eh 
Total entropy correction          ...     -0.06200355 Eh    -38.91 kcal/mol
-----------------------------------------------------------------------
Final Gibbs free energy         ...  -1011.34970063 Eh

For completeness - the Gibbs free energy minus the electronic energy
G-E(el)                           ...      0.23063294 Eh    144.72 kcal/mol


Timings for individual modules:

Sum of individual times         ...     1441.444 sec (=  24.024 min)
GTO integral calculation        ...       14.690 sec (=   0.245 min)   1.0 %
SCF iterations                  ...      638.480 sec (=  10.641 min)  44.3 %
SCF Gradient evaluation         ...      186.084 sec (=   3.101 min)  12.9 %
Geometry relaxation             ...        1.032 sec (=   0.017 min)   0.1 %
Analytical frequency calculation...      601.158 sec (=  10.019 min)  41.7 %
                             ****ORCA TERMINATED NORMALLY****
TOTAL RUN TIME: 0 days 0 hours 24 minutes 5 seconds 707 msec
