
                                 *****************
                                 * O   R   C   A *
                                 *****************

                                            #,                                       
                                            ###                                      
                                            ####                                     
                                            #####                                    
                                            ######                                   
                                           ########,                                 
                                     ,,################,,,,,                         
                               ,,#################################,,                 
                          ,,##########################################,,             
                       ,#########################################, ''#####,          
                    ,#############################################,,   '####,        
                  ,##################################################,,,,####,       
                ,###########''''           ''''###############################       
              ,#####''   ,,,,##########,,,,          '''####'''          '####       
            ,##' ,,,,###########################,,,                        '##       
           ' ,,###''''                  '''############,,,                           
         ,,##''                                '''############,,,,        ,,,,,,###''
      ,#''                                            '''#######################'''  
     '                                                          ''''####''''         
             ,#######,   #######,   ,#######,      ##                                
            ,#'     '#,  ##    ##  ,#'     '#,    #''#        ######   ,####,        
            ##       ##  ##   ,#'  ##            #'  '#       #        #'  '#        
            ##       ##  #######   ##           ,######,      #####,   #    #        
            '#,     ,#'  ##    ##  '#,     ,#' ,#      #,         ##   #,  ,#        
             '#######'   ##     ##  '#######'  #'      '#     #####' # '####'        



                  #######################################################
                  #                        -***-                        #
                  #          Department of theory and spectroscopy      #
                  #    Directorship and core code : Frank Neese         #
                  #        Max Planck Institute fuer Kohlenforschung    #
                  #                Kaiser Wilhelm Platz 1               #
                  #                 D-45470 Muelheim/Ruhr               #
                  #                      Germany                        #
                  #                                                     #
                  #                  All rights reserved                #
                  #                        -***-                        #
                  #######################################################


                         Program Version 5.0.4 -  RELEASE  -


 With contributions from (in alphabetic order):
   Daniel Aravena         : Magnetic Suceptibility
   Michael Atanasov       : Ab Initio Ligand Field Theory (pilot matlab implementation)
   Alexander A. Auer      : GIAO ZORA, VPT2 properties, NMR spectrum
   Ute Becker             : Parallelization
   Giovanni Bistoni       : ED, misc. LED, open-shell LED, HFLD
   Martin Brehm           : Molecular dynamics
   Dmytro Bykov           : SCF Hessian
   Vijay G. Chilkuri      : MRCI spin determinant printing, contributions to CSF-ICE
   Dipayan Datta          : RHF DLPNO-CCSD density
   Achintya Kumar Dutta   : EOM-CC, STEOM-CC
   Dmitry Ganyushin       : Spin-Orbit,Spin-Spin,Magnetic field MRCI
   Miquel Garcia          : C-PCM and meta-GGA Hessian, CC/C-PCM, Gaussian charge scheme
   Yang Guo               : DLPNO-NEVPT2, F12-NEVPT2, CIM, IAO-localization
   Andreas Hansen         : Spin unrestricted coupled pair/coupled cluster methods
   Benjamin Helmich-Paris : MC-RPA, TRAH-SCF, COSX integrals
   Lee Huntington         : MR-EOM, pCC
   Robert Izsak           : Overlap fitted RIJCOSX, COSX-SCS-MP3, EOM
   Marcus Kettner         : VPT2
   Christian Kollmar      : KDIIS, OOCD, Brueckner-CCSD(T), CCSD density, CASPT2, CASPT2-K
   Simone Kossmann        : Meta GGA functionals, TD-DFT gradient, OOMP2, MP2 Hessian
   Martin Krupicka        : Initial AUTO-CI
   Lucas Lang             : DCDCAS
   Marvin Lechner         : AUTO-CI (C++ implementation), FIC-MRCC
   Dagmar Lenk            : GEPOL surface, SMD
   Dimitrios Liakos       : Extrapolation schemes; Compound Job, initial MDCI parallelization
   Dimitrios Manganas     : Further ROCIS development; embedding schemes
   Dimitrios Pantazis     : SARC Basis sets
   Anastasios Papadopoulos: AUTO-CI, single reference methods and gradients
   Taras Petrenko         : DFT Hessian,TD-DFT gradient, ASA, ECA, R-Raman, ABS, FL, XAS/XES, NRVS
   Peter Pinski           : DLPNO-MP2, DLPNO-MP2 Gradient
   Christoph Reimann      : Effective Core Potentials
   Marius Retegan         : Local ZFS, SOC
   Christoph Riplinger    : Optimizer, TS searches, QM/MM, DLPNO-CCSD(T), (RO)-DLPNO pert. Triples
   Tobias Risthaus        : Range-separated hybrids, TD-DFT gradient, RPA, STAB
   Michael Roemelt        : Original ROCIS implementation
   Masaaki Saitow         : Open-shell DLPNO-CCSD energy and density
   Barbara Sandhoefer     : DKH picture change effects
   Avijit Sen             : IP-ROCIS
   Kantharuban Sivalingam : CASSCF convergence, NEVPT2, FIC-MRCI
   Bernardo de Souza      : ESD, SOC TD-DFT
   Georgi Stoychev        : AutoAux, RI-MP2 NMR, DLPNO-MP2 response
   Willem Van den Heuvel  : Paramagnetic NMR
   Boris Wezisla          : Elementary symmetry handling
   Frank Wennmohs         : Technical directorship


 We gratefully acknowledge several colleagues who have allowed us to
 interface, adapt or use parts of their codes:
   Stefan Grimme, W. Hujo, H. Kruse, P. Pracht,  : VdW corrections, initial TS optimization,
                  C. Bannwarth, S. Ehlert          DFT functionals, gCP, sTDA/sTD-DF
   Ed Valeev, F. Pavosevic, A. Kumar             : LibInt (2-el integral package), F12 methods
   Garnet Chan, S. Sharma, J. Yang, R. Olivares  : DMRG
   Ulf Ekstrom                                   : XCFun DFT Library
   Mihaly Kallay                                 : mrcc  (arbitrary order and MRCC methods)
   Jiri Pittner, Ondrej Demel                    : Mk-CCSD
   Frank Weinhold                                : gennbo (NPA and NBO analysis)
   Christopher J. Cramer and Donald G. Truhlar   : smd solvation model
   Lars Goerigk                                  : TD-DFT with DH, B97 family of functionals
   V. Asgeirsson, H. Jonsson                     : NEB implementation
   FAccTs GmbH                                   : IRC, NEB, NEB-TS, DLPNO-Multilevel, CI-OPT
                                                   MM, QMMM, 2- and 3-layer-ONIOM, Crystal-QMMM,
                                                   LR-CPCM, SF, NACMEs, symmetry and pop. for TD-DFT,
                                                   nearIR, NL-DFT gradient (VV10), updates on ESD,
                                                   ML-optimized integration grids
   S Lehtola, MJT Oliveira, MAL Marques          : LibXC Library
   Liviu Ungur et al                             : ANISO software


 Your calculation uses the libint2 library for the computation of 2-el integrals
 For citations please refer to: http://libint.valeyev.net

 Your ORCA version has been built with support for libXC version: 5.1.0
 For citations please refer to: https://tddft.org/programs/libxc/

 This ORCA versions uses:
   CBLAS   interface :  Fast vector & matrix operations
   LAPACKE interface :  Fast linear algebra routines
   SCALAPACK package :  Parallel linear algebra routines
   Shared memory     :  Shared parallel matrices
   BLAS/LAPACK       :  OpenBLAS 0.3.15  USE64BITINT DYNAMIC_ARCH NO_AFFINITY SkylakeX SINGLE_THREADED
        Core in use  :  SkylakeX
   Copyright (c) 2011-2014, The OpenBLAS Project




***************************************
The coordinates will be read from file: /users/fjb15167/WWenergy/structures/Nfnap.xyz
***************************************


Your calculation utilizes the atom-pairwise dispersion correction
based on tight binding partial charges (D4)
Cite in your paper:
E.Caldeweyher, C.Bannwarth, S.Grimme, J.Chem.Phys., (2017), 147, 034112.
E.Caldeweyher, S.Ehlert, A.Hansen, H.Neugebauer, S.Grimme, J.Chem.Phys., (2018), in progress.
   

================================================================================

----- Orbital basis set information -----
Your calculation utilizes the basis: 6-31G(d)
   H-He, Li-Ne : W. J. Hehre, R. Ditchfield and J.A. Pople, J. Chem. Phys. 56, 2257 (1972).
                 Note: He and Ne are unpublished basis sets taken from the Gaussian program.
                 Note: Li and B from J. D. Dill and J. A. Pople, J. Chem. Phys. 62, 2921 (1975).
   Na - Ar     : M. M. Francl, W. J. Pietro, W. J. Hehre, J. S. Binkley, M. S. Gordon, 
                 D. J. DeFrees and J. A. Pople, J. Chem. Phys. 77, 3654 (1982).
   K - Zn      : V. A. Rassolov, J. A. Pople, M. A. Ratner, and T. L. Windus, J. Chem. Phys. 109, 1223 (1998).

----- AuxJ basis set information -----
Your calculation utilizes the AutoAux generation procedure.
  G. L. Stoychev, A. A. Auer, F. Neese, J. Chem. Theory Comput. 13, 554 (2017)

----- AuxC basis set information -----
Your calculation utilizes the AutoAux generation procedure.
  G. L. Stoychev, A. A. Auer, F. Neese, J. Chem. Theory Comput. 13, 554 (2017)

----- AuxJK basis set information -----
Your calculation utilizes the AutoAux generation procedure.
  G. L. Stoychev, A. A. Auer, F. Neese, J. Chem. Theory Comput. 13, 554 (2017)

================================================================================
                                        WARNINGS
                       Please study these warnings very carefully!
================================================================================


WARNING: Geometry Optimization
  ===> : Switching off AutoStart
         For restart on a previous wavefunction, please use MOREAD

INFO   : the flag for use of the SHARK integral package has been found!

================================================================================
                                       INPUT FILE
================================================================================
NAME = Nfnap_gas.inp
|  1> ! OPT FREQ B3LYP 6-31G(d) D4 AUTOAUX
|  2> 
|  3> %PAL NPROCS 4 END
|  4> 
|  5> %maxcore 3375
|  6> 
|  7> *xyzfile 0 1 /users/fjb15167/WWenergy/structures/Nfnap.xyz
|  8> 
|  9>                          ****END OF INPUT****
================================================================================

                       *****************************
                       * Geometry Optimization Run *
                       *****************************

Geometry optimization settings:
Update method            Update   .... BFGS
Choice of coordinates    CoordSys .... Z-matrix Internals
Initial Hessian          InHess   .... Almoef's Model

Convergence Tolerances:
Energy Change            TolE     ....  5.0000e-06 Eh
Max. Gradient            TolMAXG  ....  3.0000e-04 Eh/bohr
RMS Gradient             TolRMSG  ....  1.0000e-04 Eh/bohr
Max. Displacement        TolMAXD  ....  4.0000e-03 bohr
RMS Displacement         TolRMSD  ....  2.0000e-03 bohr
Strict Convergence                ....  False
------------------------------------------------------------------------------
                        ORCA OPTIMIZATION COORDINATE SETUP
------------------------------------------------------------------------------

The optimization will be done in new redundant internal coordinates
Making redundant internal coordinates   ...  (new redundants) done
Evaluating the initial hessian          ...  (Almloef) done
Evaluating the coordinates              ...  done
Calculating the B-matrix                .... done
Calculating the G-matrix                .... done
Diagonalizing the G-matrix              .... done
Small eigenvalue found = 2.592e-03
Small eigenvalue found = 8.142e-03
Small eigenvalue found = 1.080e-02
Small eigenvalue found = 1.326e-02
Small eigenvalue found = 2.064e-02
Small eigenvalue found = 2.828e-02
The first mode is                       ....   92
The number of degrees of freedom        ....  117

    -----------------------------------------------------------------
                    Redundant Internal Coordinates


    -----------------------------------------------------------------
         Definition                    Initial Value    Approx d2E/dq
    -----------------------------------------------------------------
      1. B(H   1,C   0)                  1.0940         0.354789   
      2. B(H   2,C   0)                  1.0947         0.353953   
      3. B(H   3,C   0)                  1.0895         0.360814   
      4. B(C   4,C   0)                  1.5169         0.391988   
      5. B(O   5,C   4)                  1.2386         0.975798   
      6. B(N   6,C   4)                  1.3763         0.588583   
      7. B(C   7,N   6)                  1.4598         0.433043   
      8. B(H   8,C   7)                  1.0973         0.350556   
      9. B(H   9,C   7)                  1.0917         0.357815   
     10. B(C  10,C   7)                  1.5306         0.372756   
     11. B(N  11,C  10)                  1.3605         0.623703   
     12. B(O  12,C  10)                  1.2400         0.970770   
     13. B(C  13,N  11)                  1.4535         0.443144   
     14. B(H  14,C  13)                  1.0949         0.353707   
     15. B(H  15,C  13)                  1.0963         0.351861   
     16. B(H  16,C  13)                  1.0869         0.364243   
     17. B(C  17,N  11)                  1.4566         0.438151   
     18. B(H  18,C  17)                  1.0949         0.353707   
     19. B(H  19,C  17)                  1.0876         0.363303   
     20. B(H  20,C  17)                  1.0958         0.352497   
     21. B(C  21,N   6)                  1.4730         0.412576   
     22. B(H  22,C  21)                  1.0927         0.356503   
     23. B(H  23,C  21)                  1.0922         0.357193   
     24. B(C  24,C  21)                  1.5153         0.394361   
     25. B(C  25,C  24)                  1.4307         0.537930   
     26. B(C  26,C  24)                  1.3886         0.628118   
     27. B(C  27,C  25)                  1.4225         0.554431   
     28. B(C  28,C  25)                  1.4403         0.519478   
     29. B(C  29,C  26)                  1.4094         0.581914   
     30. B(H  30,C  26)                  1.0875         0.363420   
     31. B(C  31,C  27)                  1.3814         0.644848   
     32. B(H  32,C  27)                  1.0837         0.368540   
     33. B(C  33,C  28)                  1.4198         0.560050   
     34. B(C  34,C  29)                  1.3790         0.650499   
     35. B(C  34,C  28)                  1.4175         0.564676   
     36. B(H  35,C  29)                  1.0878         0.363058   
     37. B(C  36,H  18)                  3.1178         0.000209   
     38. B(C  36,C  33)                  1.3779         0.653272   
     39. B(C  36,C  31)                  1.4112         0.578069   
     40. B(H  37,C  31)                  1.0879         0.362867   
     41. B(H  38,C  33)                  1.0893         0.360971   
     42. B(H  39,C  34)                  1.0891         0.361274   
     43. B(H  40,C  36)                  1.0888         0.361662   
     44. A(H   2,C   0,H   3)          108.8125         0.290144   
     45. A(H   2,C   0,C   4)          111.7353         0.325970   
     46. A(H   1,C   0,H   2)          108.0521         0.289379   
     47. A(H   1,C   0,H   3)          109.3015         0.290252   
     48. A(H   3,C   0,C   4)          106.9324         0.327002   
     49. A(H   1,C   0,C   4)          111.9482         0.326097   
     50. A(C   0,C   4,O   5)          120.8133         0.430843   
     51. A(C   0,C   4,N   6)          117.5049         0.393884   
     52. A(O   5,C   4,N   6)          121.6708         0.460702   
     53. A(C   4,N   6,C  21)          117.8073         0.394899   
     54. A(C   7,N   6,C  21)          117.0997         0.374372   
     55. A(C   4,N   6,C   7)          122.6305         0.398269   
     56. A(H   8,C   7,C  10)          104.4905         0.322776   
     57. A(N   6,C   7,C  10)          112.9417         0.370205   
     58. A(H   8,C   7,H   9)          108.3384         0.289327   
     59. A(N   6,C   7,H   9)          109.7380         0.329970   
     60. A(N   6,C   7,H   8)          111.3040         0.328855   
     61. A(H   9,C   7,C  10)          109.8356         0.323863   
     62. A(N  11,C  10,O  12)          123.2225         0.465170   
     63. A(C   7,C  10,O  12)          118.4957         0.426578   
     64. A(C   7,C  10,N  11)          118.2626         0.394412   
     65. A(C  13,N  11,C  17)          115.1150         0.379797   
     66. A(C  10,N  11,C  17)          118.9948         0.403186   
     67. A(C  10,N  11,C  13)          125.6816         0.403993   
     68. A(H  15,C  13,H  16)          109.7208         0.290305   
     69. A(H  14,C  13,H  16)          107.8073         0.290544   
     70. A(N  11,C  13,H  16)          110.8825         0.332209   
     71. A(H  14,C  13,H  15)          109.1383         0.288972   
     72. A(N  11,C  13,H  15)          109.8743         0.330313   
     73. A(N  11,C  13,H  14)          109.3737         0.330599   
     74. A(H  18,C  17,H  19)          109.5770         0.290426   
     75. A(N  11,C  17,H  19)          108.4141         0.331444   
     76. A(N  11,C  17,H  18)          110.1821         0.329980   
     77. A(H  19,C  17,H  20)          110.0954         0.290270   
     78. A(H  18,C  17,H  20)          109.3342         0.289054   
     79. A(N  11,C  17,H  20)          109.2250         0.329793   
     80. A(H  23,C  21,C  24)          112.4859         0.326784   
     81. A(H  22,C  21,C  24)          109.5825         0.326680   
     82. A(N   6,C  21,C  24)          111.9399         0.370710   
     83. A(H  22,C  21,H  23)          108.2465         0.290012   
     84. A(N   6,C  21,H  23)          107.5706         0.327250   
     85. A(N   6,C  21,H  22)          106.7860         0.327146   
     86. A(C  25,C  24,C  26)          119.6260         0.424138   
     87. A(C  21,C  24,C  26)          116.9766         0.401396   
     88. A(C  21,C  24,C  25)          123.3735         0.390627   
     89. A(C  27,C  25,C  28)          117.7776         0.412241   
     90. A(C  24,C  25,C  28)          118.4286         0.410038   
     91. A(C  24,C  25,C  27)          123.6650         0.414805   
     92. A(C  29,C  26,H  30)          119.9648         0.349690   
     93. A(C  24,C  26,H  30)          118.4843         0.354237   
     94. A(C  24,C  26,C  29)          121.5289         0.430153   
     95. A(C  31,C  27,H  32)          118.2308         0.356666   
     96. A(C  25,C  27,H  32)          120.6074         0.347669   
     97. A(C  25,C  27,C  31)          121.0491         0.428451   
     98. A(C  33,C  28,C  34)          120.6360         0.419156   
     99. A(C  25,C  28,C  34)          119.8512         0.413583   
    100. A(C  25,C  28,C  33)          119.4525         0.412980   
    101. A(C  34,C  29,H  35)          120.2606         0.356287   
    102. A(C  26,C  29,H  35)          119.6124         0.349631   
    103. A(C  26,C  29,C  34)          120.1133         0.432867   
    104. A(C  27,C  31,C  36)          120.8419         0.431674   
    105. A(C  36,C  31,H  37)          119.8207         0.349210   
    106. A(C  27,C  31,H  37)          119.3220         0.355728   
    107. A(C  28,C  33,C  36)          120.9592         0.430228   
    108. A(C  36,C  33,H  38)          120.4609         0.356196   
    109. A(C  28,C  33,H  38)          118.5144         0.347045   
    110. A(C  28,C  34,C  29)          120.3611         0.430535   
    111. A(C  29,C  34,H  39)          120.6924         0.355990   
    112. A(C  28,C  34,H  39)          118.8665         0.347575   
    113. A(C  33,C  36,H  40)          120.2298         0.356312   
    114. A(C  31,C  36,H  40)          120.0052         0.349014   
    115. A(C  31,C  36,C  33)          119.7493         0.432682   
    116. D(O   5,C   4,C   0,H   1)   -122.2229         0.011426   
    117. D(O   5,C   4,C   0,H   3)     -2.5401         0.011426   
    118. D(N   6,C   4,C   0,H   1)     58.9621         0.011426   
    119. D(N   6,C   4,C   0,H   3)    178.6449         0.011426   
    120. D(N   6,C   4,C   0,H   2)    -62.3916         0.011426   
    121. D(O   5,C   4,C   0,H   2)    116.4235         0.011426   
    122. D(C  21,N   6,C   4,C   0)   -171.3420         0.027840   
    123. D(C   7,N   6,C   4,O   5)    171.5161         0.027840   
    124. D(C   7,N   6,C   4,C   0)     -9.6796         0.027840   
    125. D(C  21,N   6,C   4,O   5)      9.8538         0.027840   
    126. D(C  10,C   7,N   6,C   4)    156.6678         0.015988   
    127. D(H   9,C   7,N   6,C  21)   -164.4596         0.015988   
    128. D(H   8,C   7,N   6,C  21)     75.6260         0.015988   
    129. D(H   8,C   7,N   6,C   4)    -86.1578         0.015988   
    130. D(C  10,C   7,N   6,C  21)    -41.5485         0.015988   
    131. D(H   9,C   7,N   6,C   4)     33.7566         0.015988   
    132. D(O  12,C  10,C   7,N   6)    110.6856         0.010394   
    133. D(O  12,C  10,C   7,H   9)   -126.4574         0.010394   
    134. D(O  12,C  10,C   7,H   8)    -10.4373         0.010394   
    135. D(N  11,C  10,C   7,H   8)    168.0232         0.010394   
    136. D(N  11,C  10,C   7,N   6)    -70.8538         0.010394   
    137. D(N  11,C  10,C   7,H   9)     52.0031         0.010394   
    138. D(C  17,N  11,C  10,O  12)     -1.8076         0.031529   
    139. D(C  17,N  11,C  10,C   7)    179.8097         0.031529   
    140. D(C  13,N  11,C  10,O  12)   -176.2877         0.031529   
    141. D(C  13,N  11,C  10,C   7)      5.3297         0.031529   
    142. D(H  15,C  13,N  11,C  17)     64.3709         0.016747   
    143. D(H  15,C  13,N  11,C  10)   -120.9608         0.016747   
    144. D(H  14,C  13,N  11,C  17)    -55.4078         0.016747   
    145. D(H  16,C  13,N  11,C  10)      0.5021         0.016747   
    146. D(H  14,C  13,N  11,C  10)    119.2606         0.016747   
    147. D(H  16,C  13,N  11,C  17)   -174.1663         0.016747   
    148. D(H  20,C  17,N  11,C  13)    -56.1727         0.016369   
    149. D(H  20,C  17,N  11,C  10)    128.7777         0.016369   
    150. D(H  19,C  17,N  11,C  13)   -176.1472         0.016369   
    151. D(H  19,C  17,N  11,C  10)      8.8031         0.016369   
    152. D(H  18,C  17,N  11,C  13)     63.9432         0.016369   
    153. D(H  18,C  17,N  11,C  10)   -111.1065         0.016369   
    154. D(C  24,C  21,N   6,C   7)     96.9895         0.014519   
    155. D(H  23,C  21,N   6,C   7)    -27.0695         0.014519   
    156. D(C  24,C  21,N   6,C   4)   -100.3261         0.014519   
    157. D(H  22,C  21,N   6,C   7)   -143.0818         0.014519   
    158. D(H  23,C  21,N   6,C   4)    135.6149         0.014519   
    159. D(H  22,C  21,N   6,C   4)     19.6026         0.014519   
    160. D(C  26,C  24,C  21,H  23)   -177.2627         0.011557   
    161. D(C  26,C  24,C  21,H  22)    -56.8036         0.011557   
    162. D(C  26,C  24,C  21,N   6)     61.4746         0.011557   
    163. D(C  25,C  24,C  21,H  22)    124.9835         0.011557   
    164. D(C  25,C  24,C  21,N   6)   -116.7383         0.011557   
    165. D(C  25,C  24,C  21,H  23)      4.5244         0.011557   
    166. D(C  28,C  25,C  24,C  26)      0.2661         0.019768   
    167. D(C  28,C  25,C  24,C  21)    178.4339         0.019768   
    168. D(C  27,C  25,C  24,C  26)    176.0425         0.019768   
    169. D(C  27,C  25,C  24,C  21)     -5.7897         0.019768   
    170. D(H  30,C  26,C  24,C  25)   -178.1116         0.027345   
    171. D(H  30,C  26,C  24,C  21)      3.6052         0.027345   
    172. D(C  29,C  26,C  24,C  25)      0.1789         0.027345   
    173. D(C  29,C  26,C  24,C  21)   -178.1043         0.027345   
    174. D(H  32,C  27,C  25,C  28)   -179.8652         0.021040   
    175. D(H  32,C  27,C  25,C  24)      4.3329         0.021040   
    176. D(C  31,C  27,C  25,C  28)     -3.7929         0.021040   
    177. D(C  31,C  27,C  25,C  24)   -179.5949         0.021040   
    178. D(C  33,C  28,C  25,C  24)   -179.3424         0.018403   
    179. D(C  34,C  28,C  25,C  27)   -178.1759         0.018403   
    180. D(C  34,C  28,C  25,C  24)     -2.1486         0.018403   
    181. D(C  33,C  28,C  25,C  27)      4.6304         0.018403   
    182. D(H  35,C  29,C  26,H  30)     -1.7763         0.023272   
    183. D(H  35,C  29,C  26,C  24)    179.9581         0.023272   
    184. D(C  34,C  29,C  26,H  30)    179.5661         0.023272   
    185. D(C  34,C  29,C  26,C  24)      1.3005         0.023272   
    186. D(H  37,C  31,C  27,H  32)     -3.1216         0.028921   
    187. D(H  37,C  31,C  27,C  25)   -179.2848         0.028921   
    188. D(C  36,C  31,C  27,H  32)    178.3071         0.028921   
    189. D(C  36,C  31,C  27,C  25)      2.1439         0.028921   
    190. D(H  38,C  33,C  28,C  34)      1.8141         0.021485   
    191. D(H  38,C  33,C  28,C  25)    178.9853         0.021485   
    192. D(C  36,C  33,C  28,C  34)    178.8828         0.021485   
    193. D(C  36,C  33,C  28,C  25)     -3.9460         0.021485   
    194. D(H  39,C  34,C  29,H  35)      1.4212         0.029466   
    195. D(H  39,C  34,C  29,C  26)   -179.9300         0.029466   
    196. D(C  28,C  34,C  29,H  35)    178.1339         0.029466   
    197. D(C  28,C  34,C  29,C  26)     -3.2173         0.029466   
    198. D(H  39,C  34,C  28,C  33)     -2.4114         0.021856   
    199. D(H  39,C  34,C  28,C  25)   -179.5714         0.021856   
    200. D(C  29,C  34,C  28,C  33)   -179.1836         0.021856   
    201. D(C  29,C  34,C  28,C  25)      3.6564         0.021856   
    202. D(H  40,C  36,C  33,H  38)     -2.2209         0.032329   
    203. D(H  40,C  36,C  33,C  28)   -179.2326         0.032329   
    204. D(C  31,C  36,C  33,H  38)    179.2196         0.032329   
    205. D(C  31,C  36,C  33,C  28)      2.2078         0.032329   
    206. D(H  40,C  36,C  31,H  37)      1.5948         0.024921   
    207. D(H  40,C  36,C  31,C  27)   -179.8410         0.024921   
    208. D(C  33,C  36,C  31,H  37)   -179.8423         0.024921   
    209. D(C  33,C  36,C  31,C  27)     -1.2781         0.024921   
    -----------------------------------------------------------------

Number of atoms                         .... 41
Number of degrees of freedom            .... 209

         *************************************************************
         *                GEOMETRY OPTIMIZATION CYCLE   1            *
         *************************************************************
---------------------------------
CARTESIAN COORDINATES (ANGSTROEM)
---------------------------------
  C      4.454000    0.044000    0.346000
  H      4.801000   -0.881000   -0.124000
  H      4.196000   -0.180000    1.386000
  H      5.259000    0.778000    0.334000
  C      3.286000    0.657000   -0.403000
  O      3.353000    1.811000   -0.848000
  N      2.150000   -0.107000   -0.544000
  C      2.105000   -1.523000   -0.192000
  H      2.441000   -2.152000   -1.026000
  H      2.756000   -1.711000    0.664000
  C      0.689000   -2.017000    0.114000
  N      0.095000   -1.598000    1.264000
  O      0.151000   -2.801000   -0.682000
  C      0.642000   -0.625000    2.195000
  H     -0.038000    0.230000    2.268000
  H      0.755000   -1.080000    3.186000
  H      1.604000   -0.256000    1.849000
  C     -1.254000   -2.055000    1.569000
  H     -1.960000   -1.221000    1.500000
  H     -1.527000   -2.824000    0.850000
  H     -1.275000   -2.465000    2.585000
  C      1.088000    0.398000   -1.431000
  H      1.552000    1.135000   -2.091000
  H      0.743000   -0.439000   -2.042000
  C     -0.037000    1.050000   -0.653000
  C     -1.379000    0.554000   -0.645000
  C      0.288000    2.163000    0.111000
  C     -1.825000   -0.527000   -1.455000
  C     -2.358000    1.238000    0.160000
  C     -0.675000    2.820000    0.903000
  H      1.306000    2.543000    0.067000
  C     -3.137000   -0.957000   -1.410000
  H     -1.127000   -1.075000   -2.077000
  C     -3.693000    0.756000    0.195000
  C     -1.969000    2.346000    0.954000
  H     -0.386000    3.689000    1.490000
  C     -4.084000   -0.306000   -0.591000
  H     -3.445000   -1.794000   -2.033000
  H     -4.417000    1.275000    0.822000
  H     -2.721000    2.847000    1.562000
  H     -5.114000   -0.658000   -0.564000

----------------------------
CARTESIAN COORDINATES (A.U.)
----------------------------
  NO LB      ZA    FRAG     MASS         X           Y           Z
   0 C     6.0000    0    12.011    8.416840    0.083148    0.653845
   1 H     1.0000    0     1.008    9.072575   -1.664849   -0.234326
   2 H     1.0000    0     1.008    7.929291   -0.340151    2.619160
   3 H     1.0000    0     1.008    9.938070    1.470207    0.631169
   4 C     6.0000    0    12.011    6.209640    1.241550   -0.761560
   5 O     8.0000    0    15.999    6.336252    3.422294   -1.602488
   6 N     7.0000    0    14.007    4.062911   -0.202201   -1.028011
   7 C     6.0000    0    12.011    3.977874   -2.878053   -0.362827
   8 H     1.0000    0     1.008    4.612821   -4.066691   -1.938859
   9 H     1.0000    0     1.008    5.208085   -3.233321    1.254778
  10 C     6.0000    0    12.011    1.302021   -3.811578    0.215429
  11 N     7.0000    0    14.007    0.179524   -3.019782    2.388614
  12 O     8.0000    0    15.999    0.285349   -5.293123   -1.288793
  13 C     6.0000    0    12.011    1.213204   -1.181079    4.147949
  14 H     1.0000    0     1.008   -0.071810    0.434637    4.285899
  15 H     1.0000    0     1.008    1.426743   -2.040904    6.020667
  16 H     1.0000    0     1.008    3.031121   -0.483770    3.494104
  17 C     6.0000    0    12.011   -2.369717   -3.883387    2.964980
  18 H     1.0000    0     1.008   -3.703863   -2.307356    2.834589
  19 H     1.0000    0     1.008   -2.885612   -5.336587    1.606267
  20 H     1.0000    0     1.008   -2.409401   -4.658175    4.884942
  21 C     6.0000    0    12.011    2.056022    0.752111   -2.704198
  22 H     1.0000    0     1.008    2.932855    2.144839   -3.951417
  23 H     1.0000    0     1.008    1.404067   -0.829590   -3.858821
  24 C     6.0000    0    12.011   -0.069920    1.984212   -1.233991
  25 C     6.0000    0    12.011   -2.605932    1.046908   -1.218873
  26 C     6.0000    0    12.011    0.544241    4.087478    0.209760
  27 C     6.0000    0    12.011   -3.448750   -0.995886   -2.749552
  28 C     6.0000    0    12.011   -4.455974    2.339481    0.302356
  29 C     6.0000    0    12.011   -1.275565    5.329028    1.706423
  30 H     1.0000    0     1.008    2.467982    4.805574    0.126612
  31 C     6.0000    0    12.011   -5.928071   -1.808468   -2.664514
  32 H     1.0000    0     1.008   -2.129721   -2.031456   -3.924961
  33 C     6.0000    0    12.011   -6.978759    1.428633    0.368497
  34 C     6.0000    0    12.011   -3.720871    4.433298    1.802799
  35 H     1.0000    0     1.008   -0.729434    6.971200    2.815692
  36 C     6.0000    0    12.011   -7.717642   -0.578256   -1.116828
  37 H     1.0000    0     1.008   -6.510107   -3.390169   -3.841813
  38 H     1.0000    0     1.008   -8.346920    2.409401    1.553355
  39 H     1.0000    0     1.008   -5.141945    5.380050    2.951752
  40 H     1.0000    0     1.008   -9.664059   -1.243440   -1.065806

--------------------------------
INTERNAL COORDINATES (ANGSTROEM)
--------------------------------
 C      0   0   0     0.000000000000     0.00000000     0.00000000
 H      1   0   0     1.094044788846     0.00000000     0.00000000
 H      1   2   0     1.094687169926   108.05211514     0.00000000
 H      1   2   3     1.089460875846   109.30145757   118.26259166
 C      1   2   3     1.516902765506   111.94821572   236.54597979
 O      5   1   2     1.238640383647   120.81332057   237.77708787
 N      5   1   2     1.376253247044   117.50492091    58.96205740
 C      7   5   1     1.459789368368   122.63047292   350.32037015
 H      8   7   5     1.097311715056   111.30400059   273.84224909
 H      8   7   5     1.091733025973   109.73804577    33.75659758
 C      8   7   5     1.530597269042   112.94167997   156.66776293
 N     11   8   7     1.360476754671   118.26263786   289.14615750
 O     11   8   7     1.240046773311   118.49570118   110.68564997
 C     12  11   8     1.453512641844   125.68157989     5.32967964
 H     14  12  11     1.094876248715   109.37371447   119.26055680
 H     14  12  11     1.096300597464   109.87425489   239.03921318
 H     14  12  11     1.086885918577   110.88250955     0.50206859
 C     12  11   8     1.456597061647   118.99477847   179.80974370
 H     18  12  11     1.094875792042   110.18208142   248.89353119
 H     18  12  11     1.087589536544   108.41411101     8.80314449
 H     18  12  11     1.095808833693   109.22500778   128.77767739
 C      7   5   1     1.472969110335   117.80734977   188.65801541
 H     22   7   5     1.092732812722   106.78596333    19.60258086
 H     22   7   5     1.092206482310   107.57061355   135.61492555
 C     22   7   5     1.515260043689   111.93987219   259.67392780
 C     25  22   7     1.430749453958   123.37351257   243.26173647
 C     25  22   7     1.388556804744   116.97664646    61.47462186
 C     26  25  22     1.422524867972   123.66502162   354.21029927
 C     26  25  22     1.440250672626   118.42860204   178.43392961
 C     27  25  22     1.409355171701   121.52885280   181.89573231
 H     27  25  22     1.087501724137   118.48431296     3.60523474
 C     28  26  25     1.381401100333   121.04907358   180.40514087
 H     28  26  25     1.083693683658   120.60739773     4.33285319
 C     29  26  25     1.419779560354   119.45253752   180.65762298
 C     30  27  25     1.379026105627   120.11332559     1.30050267
 H     30  27  25     1.087773413906   119.61237699   179.95806436
 C     34  29  26     1.377868281078   120.95920671   356.05397299
 H     32  28  26     1.087916357079   119.32199861   180.71515937
 H     34  29  26     1.089342003229   118.51437925   178.98532657
 H     35  30  27     1.089113859980   120.69242235   180.06995175
 H     37  34  29     1.088821840339   120.22982170   180.76740426

---------------------------
INTERNAL COORDINATES (A.U.)
---------------------------
 C      0   0   0     0.000000000000     0.00000000     0.00000000
 H      1   0   0     2.067445029162     0.00000000     0.00000000
 H      1   2   0     2.068658953477   108.05211514     0.00000000
 H      1   2   3     2.058782688972   109.30145757   118.26259166
 C      1   2   3     2.866530798594   111.94821572   236.54597979
 O      5   1   2     2.340691103507   120.81332057   237.77708787
 N      5   1   2     2.600741727834   117.50492091    58.96205740
 C      7   5   1     2.758602119425   122.63047292   350.32037015
 H      8   7   5     2.073618625000   111.30400059   273.84224909
 H      8   7   5     2.063076430446   109.73804577    33.75659758
 C      8   7   5     2.892409659818   112.94167997   156.66776293
 N     11   8   7     2.570928477894   118.26263786   289.14615750
 O     11   8   7     2.343348794811   118.49570118   110.68564997
 C     12  11   8     2.746740825277   125.68157989     5.32967964
 H     14  12  11     2.069016260606   109.37371447   119.26055680
 H     14  12  11     2.071707889661   109.87425489   239.03921318
 H     14  12  11     2.053916724925   110.88250955     0.50206859
 C     12  11   8     2.752569533988   118.99477847   179.80974370
 H     18  12  11     2.069015397620   110.18208142   248.89353119
 H     18  12  11     2.055246370187   108.41411101     8.80314449
 H     18  12  11     2.070778590812   109.22500778   128.77767739
 C      7   5   1     2.783508222258   117.80734977   188.65801541
 H     22   7   5     2.064965753595   106.78596333    19.60258086
 H     22   7   5     2.063971133259   107.57061355   135.61492555
 C     22   7   5     2.863426504246   111.93987219   259.67392780
 C     25  22   7     2.703724634237   123.37351257   243.26173647
 C     25  22   7     2.623992082358   116.97664646    61.47462186
 C     26  25  22     2.688182419160   123.66502162   354.21029927
 C     26  25  22     2.721679335459   118.42860204   178.43392961
 C     27  25  22     2.663295299940   121.52885280   181.89573231
 H     27  25  22     2.055080428785   118.48431296     3.60523474
 C     28  26  25     2.610469760726   121.04907358   180.40514087
 H     28  26  25     2.047884275174   120.60739773     4.33285319
 C     29  26  25     2.682994539609   119.45253752   180.65762298
 C     30  27  25     2.605981671162   120.11332559     1.30050267
 H     30  27  25     2.055593848042   119.61237699   179.95806436
 C     34  29  26     2.603793699854   120.95920671   356.05397299
 H     32  28  26     2.055863971493   119.32199861   180.71515937
 H     34  29  26     2.058558052281   118.51437925   178.98532657
 H     35  30  27     2.058126924020   120.69242235   180.06995175
 H     37  34  29     2.057575086874   120.22982170   180.76740426

---------------------
BASIS SET INFORMATION
---------------------
There are 4 groups of distinct atoms

 Group   1 Type C   : 10s4p1d contracted to 3s2p1d pattern {631/31/1}
 Group   2 Type H   : 4s contracted to 2s pattern {31}
 Group   3 Type O   : 10s4p1d contracted to 3s2p1d pattern {631/31/1}
 Group   4 Type N   : 10s4p1d contracted to 3s2p1d pattern {631/31/1}

Atom   0C    basis set group =>   1
Atom   1H    basis set group =>   2
Atom   2H    basis set group =>   2
Atom   3H    basis set group =>   2
Atom   4C    basis set group =>   1
Atom   5O    basis set group =>   3
Atom   6N    basis set group =>   4
Atom   7C    basis set group =>   1
Atom   8H    basis set group =>   2
Atom   9H    basis set group =>   2
Atom  10C    basis set group =>   1
Atom  11N    basis set group =>   4
Atom  12O    basis set group =>   3
Atom  13C    basis set group =>   1
Atom  14H    basis set group =>   2
Atom  15H    basis set group =>   2
Atom  16H    basis set group =>   2
Atom  17C    basis set group =>   1
Atom  18H    basis set group =>   2
Atom  19H    basis set group =>   2
Atom  20H    basis set group =>   2
Atom  21C    basis set group =>   1
Atom  22H    basis set group =>   2
Atom  23H    basis set group =>   2
Atom  24C    basis set group =>   1
Atom  25C    basis set group =>   1
Atom  26C    basis set group =>   1
Atom  27C    basis set group =>   1
Atom  28C    basis set group =>   1
Atom  29C    basis set group =>   1
Atom  30H    basis set group =>   2
Atom  31C    basis set group =>   1
Atom  32H    basis set group =>   2
Atom  33C    basis set group =>   1
Atom  34C    basis set group =>   1
Atom  35H    basis set group =>   2
Atom  36C    basis set group =>   1
Atom  37H    basis set group =>   2
Atom  38H    basis set group =>   2
Atom  39H    basis set group =>   2
Atom  40H    basis set group =>   2
---------------------------------
AUXILIARY/J BASIS SET INFORMATION
---------------------------------
There are 4 groups of distinct atoms

 Group   1 Type C   : 13s11p10d2f contracted to 13s11p10d2f pattern {1111111111111/11111111111/1111111111/11}
 Group   2 Type H   : 9s2p contracted to 9s2p pattern {111111111/11}
 Group   3 Type O   : 14s11p10d2f contracted to 14s11p10d2f pattern {11111111111111/11111111111/1111111111/11}
 Group   4 Type N   : 14s11p10d2f contracted to 14s11p10d2f pattern {11111111111111/11111111111/1111111111/11}

Atom   0C    basis set group =>   1
Atom   1H    basis set group =>   2
Atom   2H    basis set group =>   2
Atom   3H    basis set group =>   2
Atom   4C    basis set group =>   1
Atom   5O    basis set group =>   3
Atom   6N    basis set group =>   4
Atom   7C    basis set group =>   1
Atom   8H    basis set group =>   2
Atom   9H    basis set group =>   2
Atom  10C    basis set group =>   1
Atom  11N    basis set group =>   4
Atom  12O    basis set group =>   3
Atom  13C    basis set group =>   1
Atom  14H    basis set group =>   2
Atom  15H    basis set group =>   2
Atom  16H    basis set group =>   2
Atom  17C    basis set group =>   1
Atom  18H    basis set group =>   2
Atom  19H    basis set group =>   2
Atom  20H    basis set group =>   2
Atom  21C    basis set group =>   1
Atom  22H    basis set group =>   2
Atom  23H    basis set group =>   2
Atom  24C    basis set group =>   1
Atom  25C    basis set group =>   1
Atom  26C    basis set group =>   1
Atom  27C    basis set group =>   1
Atom  28C    basis set group =>   1
Atom  29C    basis set group =>   1
Atom  30H    basis set group =>   2
Atom  31C    basis set group =>   1
Atom  32H    basis set group =>   2
Atom  33C    basis set group =>   1
Atom  34C    basis set group =>   1
Atom  35H    basis set group =>   2
Atom  36C    basis set group =>   1
Atom  37H    basis set group =>   2
Atom  38H    basis set group =>   2
Atom  39H    basis set group =>   2
Atom  40H    basis set group =>   2
---------------------------------
AUXILIARY/C BASIS SET INFORMATION
---------------------------------
There are 4 groups of distinct atoms

 Group   1 Type C   : 13s11p10d2f contracted to 13s11p10d2f pattern {1111111111111/11111111111/1111111111/11}
 Group   2 Type H   : 9s2p contracted to 9s2p pattern {111111111/11}
 Group   3 Type O   : 14s11p10d2f contracted to 14s11p10d2f pattern {11111111111111/11111111111/1111111111/11}
 Group   4 Type N   : 14s11p10d2f contracted to 14s11p10d2f pattern {11111111111111/11111111111/1111111111/11}

Atom   0C    basis set group =>   1
Atom   1H    basis set group =>   2
Atom   2H    basis set group =>   2
Atom   3H    basis set group =>   2
Atom   4C    basis set group =>   1
Atom   5O    basis set group =>   3
Atom   6N    basis set group =>   4
Atom   7C    basis set group =>   1
Atom   8H    basis set group =>   2
Atom   9H    basis set group =>   2
Atom  10C    basis set group =>   1
Atom  11N    basis set group =>   4
Atom  12O    basis set group =>   3
Atom  13C    basis set group =>   1
Atom  14H    basis set group =>   2
Atom  15H    basis set group =>   2
Atom  16H    basis set group =>   2
Atom  17C    basis set group =>   1
Atom  18H    basis set group =>   2
Atom  19H    basis set group =>   2
Atom  20H    basis set group =>   2
Atom  21C    basis set group =>   1
Atom  22H    basis set group =>   2
Atom  23H    basis set group =>   2
Atom  24C    basis set group =>   1
Atom  25C    basis set group =>   1
Atom  26C    basis set group =>   1
Atom  27C    basis set group =>   1
Atom  28C    basis set group =>   1
Atom  29C    basis set group =>   1
Atom  30H    basis set group =>   2
Atom  31C    basis set group =>   1
Atom  32H    basis set group =>   2
Atom  33C    basis set group =>   1
Atom  34C    basis set group =>   1
Atom  35H    basis set group =>   2
Atom  36C    basis set group =>   1
Atom  37H    basis set group =>   2
Atom  38H    basis set group =>   2
Atom  39H    basis set group =>   2
Atom  40H    basis set group =>   2
----------------------------------
AUXILIARY/JK BASIS SET INFORMATION
----------------------------------
There are 4 groups of distinct atoms

 Group   1 Type C   : 13s11p10d2f contracted to 13s11p10d2f pattern {1111111111111/11111111111/1111111111/11}
 Group   2 Type H   : 9s2p contracted to 9s2p pattern {111111111/11}
 Group   3 Type O   : 14s11p10d2f contracted to 14s11p10d2f pattern {11111111111111/11111111111/1111111111/11}
 Group   4 Type N   : 14s11p10d2f contracted to 14s11p10d2f pattern {11111111111111/11111111111/1111111111/11}

Atom   0C    basis set group =>   1
Atom   1H    basis set group =>   2
Atom   2H    basis set group =>   2
Atom   3H    basis set group =>   2
Atom   4C    basis set group =>   1
Atom   5O    basis set group =>   3
Atom   6N    basis set group =>   4
Atom   7C    basis set group =>   1
Atom   8H    basis set group =>   2
Atom   9H    basis set group =>   2
Atom  10C    basis set group =>   1
Atom  11N    basis set group =>   4
Atom  12O    basis set group =>   3
Atom  13C    basis set group =>   1
Atom  14H    basis set group =>   2
Atom  15H    basis set group =>   2
Atom  16H    basis set group =>   2
Atom  17C    basis set group =>   1
Atom  18H    basis set group =>   2
Atom  19H    basis set group =>   2
Atom  20H    basis set group =>   2
Atom  21C    basis set group =>   1
Atom  22H    basis set group =>   2
Atom  23H    basis set group =>   2
Atom  24C    basis set group =>   1
Atom  25C    basis set group =>   1
Atom  26C    basis set group =>   1
Atom  27C    basis set group =>   1
Atom  28C    basis set group =>   1
Atom  29C    basis set group =>   1
Atom  30H    basis set group =>   2
Atom  31C    basis set group =>   1
Atom  32H    basis set group =>   2
Atom  33C    basis set group =>   1
Atom  34C    basis set group =>   1
Atom  35H    basis set group =>   2
Atom  36C    basis set group =>   1
Atom  37H    basis set group =>   2
Atom  38H    basis set group =>   2
Atom  39H    basis set group =>   2
Atom  40H    basis set group =>   2


           ************************************************************
           *        Program running with 4 parallel MPI-processes     *
           *              working on a common directory               *
           ************************************************************
------------------------------------------------------------------------------
                           ORCA GTO INTEGRAL CALCULATION
                           -- RI-GTO INTEGRALS CHOSEN --
------------------------------------------------------------------------------
------------------------------------------------------------------------------
                   ___                                                        
                  /   \      - P O W E R E D   B Y -                         
                 /     \                                                     
                 |  |  |   _    _      __       _____    __    __             
                 |  |  |  | |  | |    /  \     |  _  \  |  |  /  |          
                  \  \/   | |  | |   /    \    | | | |  |  | /  /          
                 / \  \   | |__| |  /  /\  \   | |_| |  |  |/  /          
                |  |  |   |  __  | /  /__\  \  |    /   |      \           
                |  |  |   | |  | | |   __   |  |    \   |  |\   \          
                \     /   | |  | | |  |  |  |  | |\  \  |  | \   \       
                 \___/    |_|  |_| |__|  |__|  |_| \__\ |__|  \__/        
                                                                              
                      - O R C A' S   B I G   F R I E N D -                    
                                      &                                       
                       - I N T E G R A L  F E E D E R -                       
                                                                              
 v1 FN, 2020, v2 2021                                                         
------------------------------------------------------------------------------


Reading SHARK input file Nfnap_gas.SHARKINP.tmp ... ok
----------------------
SHARK INTEGRAL PACKAGE
----------------------

Number of atoms                             ...     41
Number of basis functions                   ...    334
Number of shells                            ...    166
Maximum angular momentum                    ...      2
Integral batch strategy                     ... SHARK/LIBINT Hybrid
RI-J (if used) integral strategy            ... SPLIT-RIJ (Revised 2003 algorithm where possible)
Printlevel                                  ...      1
Contraction scheme used                     ... SEGMENTED contraction
Coulomb Range Separation                    ... NOT USED
Exchange Range Separation                   ... NOT USED
Finite Nucleus Model                        ... NOT USED
Auxiliary Coulomb fitting basis             ... AVAILABLE
   # of basis functions in Aux-J            ...   2614
   # of shells in Aux-J                     ...    980
   Maximum angular momentum in Aux-J        ...      3
Auxiliary J/K fitting basis                 ... AVAILABLE
   # of basis functions in Aux-JK           ...   2614
   # of shells in Aux-JK                    ...    980
   Maximum angular momentum in Aux-JK       ...      3
Auxiliary Correlation fitting basis         ... AVAILABLE
   # of basis functions in Aux-C            ...   2614
   # of shells in Aux-C                     ...    980
   Maximum angular momentum in Aux-C        ...      3
Auxiliary 'external' fitting basis          ... NOT available
Integral threshold                          ...     2.500000e-11
Primitive cut-off                           ...     2.500000e-12
Primitive pair pre-selection threshold      ...     2.500000e-12

Calculating pre-screening integrals         ... done (  0.1 sec) Dimension = 166
Organizing shell pair data                  ... done (  0.6 sec)
Shell pair information
Total number of shell pairs                 ...     13861
Shell pairs after pre-screening             ...     11436
Total number of primitive shell pairs       ...     78711
Primitive shell pairs kept                  ...     36077
          la=0 lb=0:   4196 shell pairs
          la=1 lb=0:   3809 shell pairs
          la=1 lb=1:    858 shell pairs
          la=2 lb=0:   1617 shell pairs
          la=2 lb=1:    781 shell pairs
          la=2 lb=2:    175 shell pairs

Calculating one electron integrals          ... done (  0.0 sec)
Calculating RI/J V-Matrix + Cholesky decomp.... done (  1.2 sec)
Calculating RI/JK V-Matrix + Cholesky decomp... done (  0.4 sec)
Calculating RI/C V-Matrix + Cholesky decomp.... done (  0.4 sec)
Calculating Nuclear repulsion               ... done (  0.0 sec) ENN=   1765.257284335167 Eh

SHARK setup successfully completed in   3.1 seconds

Maximum memory used throughout the entire GTOINT-calculation: 56.9 MB


           ************************************************************
           *        Program running with 4 parallel MPI-processes     *
           *              working on a common directory               *
           ************************************************************
-------------------------------------------------------------------------------
                                 ORCA SCF
-------------------------------------------------------------------------------

------------
SCF SETTINGS
------------
Hamiltonian:
 Density Functional     Method          .... DFT(GTOs)
 Exchange Functional    Exchange        .... B88
   X-Alpha parameter    XAlpha          ....  0.666667
   Becke's b parameter  XBeta           ....  0.004200
 Correlation Functional Correlation     .... LYP
 LDA part of GGA corr.  LDAOpt          .... VWN-5
 Gradients option       PostSCFGGA      .... off
 Hybrid DFT is turned on
   Fraction HF Exchange ScalHFX         ....  0.200000
   Scaling of DF-GGA-X  ScalDFX         ....  0.720000
   Scaling of DF-GGA-C  ScalDFC         ....  0.810000
   Scaling of DF-LDA-C  ScalLDAC        ....  1.000000
   Perturbative correction              ....  0.000000
   Density functional embedding theory  .... OFF
   NL short-range parameter             ....  4.800000
 RI-approximation to the Coulomb term is turned on
   Number of AuxJ basis functions       .... 2614
   RIJ-COSX (HFX calculated with COS-X)).... on


General Settings:
 Integral files         IntName         .... Nfnap_gas
 Hartree-Fock type      HFTyp           .... RHF
 Total Charge           Charge          ....    0
 Multiplicity           Mult            ....    1
 Number of Electrons    NEL             ....  152
 Basis Dimension        Dim             ....  334
 Nuclear Repulsion      ENuc            ....   1765.2572843352 Eh

Convergence Acceleration:
 DIIS                   CNVDIIS         .... on
   Start iteration      DIISMaxIt       ....    12
   Startup error        DIISStart       ....  0.200000
   # of expansion vecs  DIISMaxEq       ....     5
   Bias factor          DIISBfac        ....   1.050
   Max. coefficient     DIISMaxC        ....  10.000
 Trust-Rad. Augm. Hess. CNVTRAH         .... auto
   Auto Start mean grad. ratio tolernc. ....  1.125000
   Auto Start start iteration           ....    20
   Auto Start num. interpolation iter.  ....    10
   Max. Number of Micro iterations      ....    16
   Max. Number of Macro iterations      .... Maxiter - #DIIS iter
   Number of Davidson start vectors     ....     2
   Converg. threshold I  (grad. norm)   ....   1.000e-05
   Converg. threshold II (energy diff.) ....   1.000e-08
   Grad. Scal. Fac. for Micro threshold ....   0.100
   Minimum threshold for Micro iter.    ....   0.010
   NR start threshold (gradient norm)   ....   0.001
   Initial trust radius                 ....   0.400
   Minimum AH scaling param. (alpha)    ....   1.000
   Maximum AH scaling param. (alpha)    .... 1000.000
   Orbital update algorithm             .... Taylor
   White noise on init. David. guess    .... on
   Maximum white noise                  ....   0.010
   Quad. conv. algorithm                .... NR
 SOSCF                  CNVSOSCF        .... on
   Start iteration      SOSCFMaxIt      ....   150
   Startup grad/error   SOSCFStart      ....  0.003300
 Level Shifting         CNVShift        .... on
   Level shift para.    LevelShift      ....    0.2500
   Turn off err/grad.   ShiftErr        ....    0.0010
 Zerner damping         CNVZerner       .... off
 Static damping         CNVDamp         .... on
   Fraction old density DampFac         ....    0.7000
   Max. Damping (<1)    DampMax         ....    0.9800
   Min. Damping (>=0)   DampMin         ....    0.0000
   Turn off err/grad.   DampErr         ....    0.1000
 Fernandez-Rico         CNVRico         .... off

SCF Procedure:
 Maximum # iterations   MaxIter         ....   125
 SCF integral mode      SCFMode         .... Direct
   Integral package                     .... SHARK and LIBINT hybrid scheme
 Reset frequency        DirectResetFreq ....    20
 Integral Threshold     Thresh          ....  2.500e-11 Eh
 Primitive CutOff       TCut            ....  2.500e-12 Eh

Convergence Tolerance:
 Convergence Check Mode ConvCheckMode   .... Total+1el-Energy
 Convergence forced     ConvForced      .... 0
 Energy Change          TolE            ....  1.000e-08 Eh
 1-El. energy change                    ....  1.000e-05 Eh
 Orbital Gradient       TolG            ....  1.000e-05
 Orbital Rotation angle TolX            ....  1.000e-05
 DIIS Error             TolErr          ....  5.000e-07


Diagonalization of the overlap matrix:
Smallest eigenvalue                        ... 3.028e-04
Time for diagonalization                   ...    0.019 sec
Threshold for overlap eigenvalues          ... 1.000e-08
Number of eigenvalues below threshold      ... 0
Time for construction of square roots      ...    0.010 sec
Total time needed                          ...    0.031 sec

Time for model grid setup =    0.498 sec

------------------------------
INITIAL GUESS: MODEL POTENTIAL
------------------------------
Loading Hartree-Fock densities                     ... done
Calculating cut-offs                               ... done
Initializing the effective Hamiltonian             ... done
Setting up the integral package (SHARK)            ... done
Starting the Coulomb interaction                   ... done (   0.4 sec)
Reading the grid                                   ... done
Mapping shells                                     ... done
Starting the XC term evaluation                    ... done (   0.3 sec)
  promolecular density results
     # of electrons  =    151.987843090
     EX              =   -122.917339639
     EC              =     -5.147292868
     EX+EC           =   -128.064632506
Transforming the Hamiltonian                       ... done (   0.0 sec)
Diagonalizing the Hamiltonian                      ... done (   0.0 sec)
Back transforming the eigenvectors                 ... done (   0.0 sec)
Now organizing SCF variables                       ... done
                      ------------------
                      INITIAL GUESS DONE (   1.3 sec)
                      ------------------
-------------------
DFT GRID GENERATION
-------------------

General Integration Accuracy     IntAcc      ... 4.388
Radial Grid Type                 RadialGrid  ... OptM3 with GC (2021)
Angular Grid (max. ang.)         AngularGrid ... 4 (Lebedev-302)
Angular grid pruning method      GridPruning ... 4 (adaptive)
Weight generation scheme         WeightScheme... Becke
Basis function cutoff            BFCut       ... 1.0000e-11
Integration weight cutoff        WCut        ... 1.0000e-14
Angular grids for H and He will be reduced by one unit
Partially contracted basis set               ... off
Rotationally invariant grid construction     ... off

Total number of grid points                  ...   188115
Total number of batches                      ...     2956
Average number of points per batch           ...       63
Average number of grid points per atom       ...     4588
Time for grid setup =    1.989 sec

--------------------
COSX GRID GENERATION
--------------------

GRIDX 1
-------
General Integration Accuracy     IntAcc      ... 3.816
Radial Grid Type                 RadialGrid  ... OptM3 with GC (2021)
Angular Grid (max. ang.)         AngularGrid ... 1 (Lebedev-50)
Angular grid pruning method      GridPruning ... 4 (adaptive)
Weight generation scheme         WeightScheme... Becke
Basis function cutoff            BFCut       ... 1.0000e-11
Integration weight cutoff        WCut        ... 1.0000e-14
Angular grids for H and He will be reduced by one unit
Partially contracted basis set               ... on
Rotationally invariant grid construction     ... off

Total number of grid points                  ...    23901
Total number of batches                      ...      393
Average number of points per batch           ...       60
Average number of grid points per atom       ...      583
UseSFitting                                  ... on

GRIDX 2
-------
General Integration Accuracy     IntAcc      ... 4.020
Radial Grid Type                 RadialGrid  ... OptM3 with GC (2021)
Angular Grid (max. ang.)         AngularGrid ... 2 (Lebedev-110)
Angular grid pruning method      GridPruning ... 4 (adaptive)
Weight generation scheme         WeightScheme... Becke
Basis function cutoff            BFCut       ... 1.0000e-11
Integration weight cutoff        WCut        ... 1.0000e-14
Angular grids for H and He will be reduced by one unit
Partially contracted basis set               ... on
Rotationally invariant grid construction     ... off

Total number of grid points                  ...    51055
Total number of batches                      ...      820
Average number of points per batch           ...       62
Average number of grid points per atom       ...     1245
UseSFitting                                  ... on

GRIDX 3
-------
General Integration Accuracy     IntAcc      ... 4.338
Radial Grid Type                 RadialGrid  ... OptM3 with GC (2021)
Angular Grid (max. ang.)         AngularGrid ... 3 (Lebedev-194)
Angular grid pruning method      GridPruning ... 4 (adaptive)
Weight generation scheme         WeightScheme... Becke
Basis function cutoff            BFCut       ... 1.0000e-11
Integration weight cutoff        WCut        ... 1.0000e-14
Angular grids for H and He will be reduced by one unit
Partially contracted basis set               ... on
Rotationally invariant grid construction     ... off

Total number of grid points                  ...   111187
Total number of batches                      ...     1756
Average number of points per batch           ...       63
Average number of grid points per atom       ...     2712
UseSFitting                                  ... on

Time for X-Grid setup             =    3.608 sec

--------------
SCF ITERATIONS
--------------
ITER       Energy         Delta-E        Max-DP      RMS-DP      [F,P]     Damp
               ***  Starting incremental Fock matrix formation  ***
  0   -918.7141228961   0.000000000000 0.10159615  0.00188547  0.2727390 0.7000
  1   -918.9601271962  -0.246004300098 0.05664443  0.00125895  0.1024681 0.7000
                               ***Turning on DIIS***
  2   -919.0572805740  -0.097153377805 0.06509177  0.00202919  0.0385048 0.0000
  3   -919.2148723255  -0.157591751462 0.03907578  0.00087865  0.0504584 0.0000
  4   -919.2453428728  -0.030470547336 0.01205610  0.00027964  0.0166551 0.0000
  5   -919.2478737907  -0.002530917865 0.00376452  0.00008947  0.0060154 0.0000
                      *** Initiating the SOSCF procedure ***
                           *** Shutting down DIIS ***
                      *** Re-Reading the Fockian *** 
                      *** Removing any level shift *** 
ITER      Energy       Delta-E        Grad      Rot      Max-DP    RMS-DP
  6   -919.24802474  -0.0001509465  0.000252  0.000252  0.001185  0.000026
               *** Restarting incremental Fock matrix formation ***
  7   -919.24802534  -0.0000006030  0.000115  0.000423  0.000902  0.000016
  8   -919.24802466   0.0000006805  0.000181  0.000270  0.000605  0.000007
  9   -919.24802718  -0.0000025184  0.000037  0.000148  0.000237  0.000004
 10   -919.24802698   0.0000001973  0.000096  0.000093  0.000176  0.000002
 11   -919.24802724  -0.0000002574  0.000007  0.000014  0.000032  0.000001
 12   -919.24802722   0.0000000154  0.000009  0.000013  0.000026  0.000000
 13   -919.24802723  -0.0000000065  0.000003  0.000008  0.000011  0.000000
 14   -919.24802722   0.0000000084  0.000004  0.000004  0.000006  0.000000
                  ***Gradient check signals convergence***
              ***Rediagonalizing the Fockian in SOSCF/NRSCF***

               *****************************************************
               *                     SUCCESS                       *
               *           SCF CONVERGED AFTER  15 CYCLES          *
               *****************************************************

Old exchange energy                            =    -25.013360900 Eh
New exchange energy                            =    -25.013407193 Eh
Exchange energy change after final integration =     -0.000046293 Eh
Total energy after final integration           =   -919.248073508 Eh
Final COS-X integration done in                =    21.224 sec

----------------
TOTAL SCF ENERGY
----------------

Total Energy       :         -919.24807351 Eh          -25014.01177 eV

Components:
Nuclear Repulsion  :         1765.25728434 Eh           48035.09276 eV
Electronic Energy  :        -2684.50535784 Eh          -73049.10453 eV
One Electron Energy:        -4756.55509437 Eh         -129432.44434 eV
Two Electron Energy:         2072.04973653 Eh           56383.33980 eV
Max COSX asymmetry :            0.00000360 Eh               0.00010 eV

Virial components:
Potential Energy   :        -1833.13376000 Eh          -49882.10557 eV
Kinetic Energy     :          913.88568650 Eh           24868.09380 eV
Virial Ratio       :            2.00586768


DFT components:
N(Alpha)           :       76.000080388680 electrons
N(Beta)            :       76.000080388680 electrons
N(Total)           :      152.000160777361 electrons
E(X)               :      -99.318668482792 Eh       
E(C)               :       -6.059030962163 Eh       
E(XC)              :     -105.377699444956 Eh       
DFET-embed. en.    :        0.000000000000 Eh       

---------------
SCF CONVERGENCE
---------------

  Last Energy change         ...    5.9326e-09  Tolerance :   1.0000e-08
  Last MAX-Density change    ...    3.9968e-15  Tolerance :   1.0000e-07
  Last RMS-Density change    ...    3.9600e-17  Tolerance :   5.0000e-09
  Last Orbital Gradient      ...    3.4771e-07  Tolerance :   1.0000e-05
  Last Orbital Rotation      ...    1.2041e-06  Tolerance :   1.0000e-05

             **** THE GBW FILE WAS UPDATED (Nfnap_gas.gbw) ****
             **** DENSITY Nfnap_gas.scfp WAS UPDATED ****
             **** ENERGY FILE WAS UPDATED (Nfnap_gas.en.tmp) ****
             **** THE GBW FILE WAS UPDATED (Nfnap_gas.gbw) ****
             **** DENSITY Nfnap_gas.scfp WAS UPDATED ****
----------------
ORBITAL ENERGIES
----------------

  NO   OCC          E(Eh)            E(eV) 
   0   2.0000     -19.107710      -519.9472 
   1   2.0000     -19.104777      -519.8674 
   2   2.0000     -14.363656      -390.8549 
   3   2.0000     -14.362182      -390.8149 
   4   2.0000     -10.284456      -279.8543 
   5   2.0000     -10.281108      -279.7632 
   6   2.0000     -10.227228      -278.2970 
   7   2.0000     -10.212051      -277.8840 
   8   2.0000     -10.211241      -277.8620 
   9   2.0000     -10.195921      -277.4451 
  10   2.0000     -10.190204      -277.2896 
  11   2.0000     -10.188767      -277.2504 
  12   2.0000     -10.187983      -277.2291 
  13   2.0000     -10.186474      -277.1881 
  14   2.0000     -10.180685      -277.0305 
  15   2.0000     -10.180460      -277.0244 
  16   2.0000     -10.180154      -277.0161 
  17   2.0000     -10.179726      -277.0044 
  18   2.0000     -10.177839      -276.9531 
  19   2.0000     -10.176200      -276.9085 
  20   2.0000     -10.172816      -276.8164 
  21   2.0000      -1.029990       -28.0274 
  22   2.0000      -1.023426       -27.8488 
  23   2.0000      -0.938470       -25.5371 
  24   2.0000      -0.929989       -25.3063 
  25   2.0000      -0.867524       -23.6065 
  26   2.0000      -0.815749       -22.1977 
  27   2.0000      -0.783882       -21.3305 
  28   2.0000      -0.751149       -20.4398 
  29   2.0000      -0.748376       -20.3643 
  30   2.0000      -0.733884       -19.9700 
  31   2.0000      -0.721887       -19.6435 
  32   2.0000      -0.715629       -19.4733 
  33   2.0000      -0.684928       -18.6378 
  34   2.0000      -0.671876       -18.2827 
  35   2.0000      -0.616197       -16.7676 
  36   2.0000      -0.606443       -16.5022 
  37   2.0000      -0.581450       -15.8221 
  38   2.0000      -0.553969       -15.0743 
  39   2.0000      -0.545200       -14.8357 
  40   2.0000      -0.512188       -13.9373 
  41   2.0000      -0.510297       -13.8859 
  42   2.0000      -0.503870       -13.7110 
  43   2.0000      -0.494498       -13.4560 
  44   2.0000      -0.485868       -13.2211 
  45   2.0000      -0.479718       -13.0538 
  46   2.0000      -0.473551       -12.8860 
  47   2.0000      -0.457526       -12.4499 
  48   2.0000      -0.447715       -12.1829 
  49   2.0000      -0.437810       -11.9134 
  50   2.0000      -0.434294       -11.8177 
  51   2.0000      -0.425650       -11.5825 
  52   2.0000      -0.413365       -11.2482 
  53   2.0000      -0.410338       -11.1659 
  54   2.0000      -0.406362       -11.0577 
  55   2.0000      -0.404506       -11.0072 
  56   2.0000      -0.400659       -10.9025 
  57   2.0000      -0.396635       -10.7930 
  58   2.0000      -0.394832       -10.7439 
  59   2.0000      -0.392294       -10.6749 
  60   2.0000      -0.378668       -10.3041 
  61   2.0000      -0.376419       -10.2429 
  62   2.0000      -0.371496       -10.1089 
  63   2.0000      -0.365083        -9.9344 
  64   2.0000      -0.361004        -9.8234 
  65   2.0000      -0.351764        -9.5720 
  66   2.0000      -0.329774        -8.9736 
  67   2.0000      -0.323986        -8.8161 
  68   2.0000      -0.317128        -8.6295 
  69   2.0000      -0.276811        -7.5324 
  70   2.0000      -0.254698        -6.9307 
  71   2.0000      -0.245941        -6.6924 
  72   2.0000      -0.242431        -6.5969 
  73   2.0000      -0.241401        -6.5688 
  74   2.0000      -0.233259        -6.3473 
  75   2.0000      -0.205376        -5.5886 
  76   0.0000      -0.035796        -0.9741 
  77   0.0000      -0.003924        -0.1068 
  78   0.0000       0.015429         0.4199 
  79   0.0000       0.019768         0.5379 
  80   0.0000       0.034243         0.9318 
  81   0.0000       0.075612         2.0575 
  82   0.0000       0.100997         2.7483 
  83   0.0000       0.102630         2.7927 
  84   0.0000       0.108054         2.9403 
  85   0.0000       0.112484         3.0608 
  86   0.0000       0.126682         3.4472 
  87   0.0000       0.136816         3.7229 
  88   0.0000       0.140118         3.8128 
  89   0.0000       0.144330         3.9274 
  90   0.0000       0.147077         4.0022 
  91   0.0000       0.153974         4.1899 
  92   0.0000       0.154722         4.2102 
  93   0.0000       0.165226         4.4960 
  94   0.0000       0.168019         4.5720 
  95   0.0000       0.174021         4.7354 
  96   0.0000       0.176799         4.8109 
  97   0.0000       0.180939         4.9236 
  98   0.0000       0.186182         5.0663 
  99   0.0000       0.190011         5.1705 
 100   0.0000       0.197176         5.3654 
 101   0.0000       0.204499         5.5647 
 102   0.0000       0.215169         5.8551 
 103   0.0000       0.219264         5.9665 
 104   0.0000       0.222790         6.0624 
 105   0.0000       0.232491         6.3264 
 106   0.0000       0.248891         6.7727 
 107   0.0000       0.253181         6.8894 
 108   0.0000       0.256514         6.9801 
 109   0.0000       0.266067         7.2400 
 110   0.0000       0.285258         7.7623 
 111   0.0000       0.285912         7.7801 
 112   0.0000       0.312289         8.4978 
 113   0.0000       0.321947         8.7606 
 114   0.0000       0.328137         8.9291 
 115   0.0000       0.332475         9.0471 
 116   0.0000       0.356487         9.7005 
 117   0.0000       0.363170         9.8824 
 118   0.0000       0.381569        10.3830 
 119   0.0000       0.399764        10.8781 
 120   0.0000       0.413890        11.2625 
 121   0.0000       0.440957        11.9991 
 122   0.0000       0.469321        12.7709 
 123   0.0000       0.484161        13.1747 
 124   0.0000       0.485497        13.2111 
 125   0.0000       0.489567        13.3218 
 126   0.0000       0.502539        13.6748 
 127   0.0000       0.511999        13.9322 
 128   0.0000       0.517126        14.0717 
 129   0.0000       0.527054        14.3419 
 130   0.0000       0.536914        14.6102 
 131   0.0000       0.543253        14.7827 
 132   0.0000       0.550939        14.9918 
 133   0.0000       0.555409        15.1135 
 134   0.0000       0.566380        15.4120 
 135   0.0000       0.577018        15.7015 
 136   0.0000       0.582293        15.8450 
 137   0.0000       0.596573        16.2336 
 138   0.0000       0.601285        16.3618 
 139   0.0000       0.603517        16.4225 
 140   0.0000       0.613484        16.6938 
 141   0.0000       0.618939        16.8422 
 142   0.0000       0.620293        16.8790 
 143   0.0000       0.626261        17.0414 
 144   0.0000       0.627673        17.0798 
 145   0.0000       0.631497        17.1839 
 146   0.0000       0.637714        17.3531 
 147   0.0000       0.643969        17.5233 
 148   0.0000       0.652937        17.7673 
 149   0.0000       0.661435        17.9986 
 150   0.0000       0.665721        18.1152 
 151   0.0000       0.673430        18.3249 
 152   0.0000       0.679226        18.4827 
 153   0.0000       0.690216        18.7817 
 154   0.0000       0.698616        19.0103 
 155   0.0000       0.715065        19.4579 
 156   0.0000       0.720782        19.6135 
 157   0.0000       0.727772        19.8037 
 158   0.0000       0.750608        20.4251 
 159   0.0000       0.757412        20.6102 
 160   0.0000       0.774264        21.0688 
 161   0.0000       0.785892        21.3852 
 162   0.0000       0.805749        21.9256 
 163   0.0000       0.818536        22.2735 
 164   0.0000       0.822871        22.3915 
 165   0.0000       0.827648        22.5214 
 166   0.0000       0.837501        22.7896 
 167   0.0000       0.842671        22.9302 
 168   0.0000       0.845413        23.0049 
 169   0.0000       0.850181        23.1346 
 170   0.0000       0.857785        23.3415 
 171   0.0000       0.863596        23.4996 
 172   0.0000       0.869559        23.6619 
 173   0.0000       0.875295        23.8180 
 174   0.0000       0.880245        23.9527 
 175   0.0000       0.885391        24.0927 
 176   0.0000       0.894436        24.3388 
 177   0.0000       0.898024        24.4365 
 178   0.0000       0.905525        24.6406 
 179   0.0000       0.910942        24.7880 
 180   0.0000       0.920501        25.0481 
 181   0.0000       0.928858        25.2755 
 182   0.0000       0.940014        25.5791 
 183   0.0000       0.950614        25.8675 
 184   0.0000       0.952060        25.9069 
 185   0.0000       0.962358        26.1871 
 186   0.0000       0.969020        26.3684 
 187   0.0000       0.980027        26.6679 
 188   0.0000       0.988113        26.8879 
 189   0.0000       0.995254        27.0822 
 190   0.0000       1.008476        27.4420 
 191   0.0000       1.017190        27.6791 
 192   0.0000       1.038072        28.2474 
 193   0.0000       1.045628        28.4530 
 194   0.0000       1.054427        28.6924 
 195   0.0000       1.072969        29.1970 
 196   0.0000       1.074543        29.2398 
 197   0.0000       1.083616        29.4867 
 198   0.0000       1.090644        29.6779 
 199   0.0000       1.094172        29.7739 
 200   0.0000       1.111747        30.2522 
 201   0.0000       1.122487        30.5444 
 202   0.0000       1.137412        30.9506 
 203   0.0000       1.152824        31.3699 
 204   0.0000       1.175842        31.9963 
 205   0.0000       1.193621        32.4801 
 206   0.0000       1.200897        32.6781 
 207   0.0000       1.210337        32.9350 
 208   0.0000       1.221414        33.2364 
 209   0.0000       1.243691        33.8426 
 210   0.0000       1.251575        34.0571 
 211   0.0000       1.264397        34.4060 
 212   0.0000       1.286439        35.0058 
 213   0.0000       1.294339        35.2207 
 214   0.0000       1.303124        35.4598 
 215   0.0000       1.324595        36.0441 
 216   0.0000       1.355759        36.8921 
 217   0.0000       1.374119        37.3917 
 218   0.0000       1.387391        37.7528 
 219   0.0000       1.407479        38.2995 
 220   0.0000       1.417322        38.5673 
 221   0.0000       1.421512        38.6813 
 222   0.0000       1.440393        39.1951 
 223   0.0000       1.445298        39.3285 
 224   0.0000       1.459076        39.7035 
 225   0.0000       1.465674        39.8830 
 226   0.0000       1.474328        40.1185 
 227   0.0000       1.487307        40.4717 
 228   0.0000       1.494767        40.6747 
 229   0.0000       1.504787        40.9473 
 230   0.0000       1.515940        41.2508 
 231   0.0000       1.532262        41.6950 
 232   0.0000       1.532983        41.7146 
 233   0.0000       1.539557        41.8935 
 234   0.0000       1.584244        43.1095 
 235   0.0000       1.589000        43.2389 
 236   0.0000       1.627716        44.2924 
 237   0.0000       1.630297        44.3626 
 238   0.0000       1.675866        45.6026 
 239   0.0000       1.679950        45.7138 
 240   0.0000       1.737243        47.2728 
 241   0.0000       1.749477        47.6057 
 242   0.0000       1.760302        47.9002 
 243   0.0000       1.780725        48.4560 
 244   0.0000       1.784181        48.5500 
 245   0.0000       1.805520        49.1307 
 246   0.0000       1.814738        49.3815 
 247   0.0000       1.823777        49.6275 
 248   0.0000       1.835761        49.9536 
 249   0.0000       1.851168        50.3728 
 250   0.0000       1.857744        50.5518 
 251   0.0000       1.864480        50.7351 
 252   0.0000       1.893176        51.5159 
 253   0.0000       1.903782        51.8045 
 254   0.0000       1.913282        52.0631 
 255   0.0000       1.923126        52.3309 
 256   0.0000       1.927261        52.4434 
 257   0.0000       1.932537        52.5870 
 258   0.0000       1.938406        52.7467 
 259   0.0000       1.947016        52.9810 
 260   0.0000       1.954994        53.1981 
 261   0.0000       1.959300        53.3153 
 262   0.0000       1.974356        53.7250 
 263   0.0000       1.978984        53.8509 
 264   0.0000       1.999162        54.4000 
 265   0.0000       2.001500        54.4636 
 266   0.0000       2.024410        55.0870 
 267   0.0000       2.026949        55.1561 
 268   0.0000       2.043518        55.6070 
 269   0.0000       2.058909        56.0258 
 270   0.0000       2.068437        56.2850 
 271   0.0000       2.071048        56.3561 
 272   0.0000       2.093180        56.9583 
 273   0.0000       2.104409        57.2639 
 274   0.0000       2.112028        57.4712 
 275   0.0000       2.120421        57.6996 
 276   0.0000       2.136928        58.1488 
 277   0.0000       2.156172        58.6724 
 278   0.0000       2.189792        59.5873 
 279   0.0000       2.193027        59.6753 
 280   0.0000       2.198886        59.8347 
 281   0.0000       2.209631        60.1271 
 282   0.0000       2.214459        60.2585 
 283   0.0000       2.218271        60.3622 
 284   0.0000       2.249899        61.2229 
 285   0.0000       2.260397        61.5085 
 286   0.0000       2.274385        61.8892 
 287   0.0000       2.282693        62.1152 
 288   0.0000       2.293320        62.4044 
 289   0.0000       2.310092        62.8608 
 290   0.0000       2.323148        63.2161 
 291   0.0000       2.328131        63.3517 
 292   0.0000       2.331709        63.4490 
 293   0.0000       2.342187        63.7342 
 294   0.0000       2.358804        64.1863 
 295   0.0000       2.367580        64.4251 
 296   0.0000       2.370229        64.4972 
 297   0.0000       2.400438        65.3192 
 298   0.0000       2.414006        65.6884 
 299   0.0000       2.428961        66.0954 
 300   0.0000       2.455236        66.8104 
 301   0.0000       2.480659        67.5022 
 302   0.0000       2.511728        68.3476 
 303   0.0000       2.539087        69.0921 
 304   0.0000       2.568988        69.9057 
 305   0.0000       2.574789        70.0636 
 306   0.0000       2.605610        70.9022 
 307   0.0000       2.618343        71.2487 
 308   0.0000       2.626661        71.4751 
 309   0.0000       2.635094        71.7046 
 310   0.0000       2.645510        71.9880 
 311   0.0000       2.656031        72.2743 
 312   0.0000       2.671771        72.7026 
 313   0.0000       2.675210        72.7962 
 314   0.0000       2.690139        73.2024 
 315   0.0000       2.701182        73.5029 
 316   0.0000       2.725442        74.1631 
 317   0.0000       2.740169        74.5638 
 318   0.0000       2.766086        75.2690 
 319   0.0000       2.805223        76.3340 
 320   0.0000       2.817743        76.6747 
 321   0.0000       2.871830        78.1465 
 322   0.0000       2.894850        78.7729 
 323   0.0000       2.927988        79.6746 
 324   0.0000       2.941036        80.0297 
[...]
 10:     96.16   0.001147    5.80  0.003722  ( 0.015707 -0.050637  0.030183)
 11:    103.54   0.000067    0.34  0.000203  ( 0.010081  0.004362 -0.009095)
 12:    115.65   0.000518    2.62  0.001398  ( 0.015804 -0.003304 -0.033717)
 13:    125.53   0.000724    3.66  0.001800  ( 0.029175 -0.030802 -0.000064)
 14:    137.93   0.000058    0.29  0.000131  (-0.008068 -0.006631  0.004654)
 15:    159.06   0.000301    1.52  0.000591  ( 0.018819 -0.013761  0.006919)
 16:    168.81   0.000107    0.54  0.000198  (-0.013052 -0.005083 -0.001301)
 17:    190.03   0.000072    0.37  0.000119  (-0.006319 -0.006641  0.005893)
 18:    199.03   0.000073    0.37  0.000115  (-0.005946 -0.001503 -0.008781)
 19:    202.20   0.000345    1.74  0.000533  ( 0.021829 -0.006915 -0.002873)
 20:    249.80   0.000116    0.58  0.000144  (-0.010720  0.001529 -0.005201)
 21:    263.19   0.002005   10.13  0.002378  (-0.037420  0.023391 -0.020739)
 22:    277.71   0.001236    6.24  0.001389  (-0.007437 -0.028517  0.022805)
 23:    311.72   0.000207    1.04  0.000207  ( 0.000366 -0.001360  0.014317)
 24:    326.58   0.002233   11.29  0.002134  (-0.039977  0.005449  0.022495)
 25:    384.76   0.000856    4.33  0.000695  ( 0.020724  0.008465  0.013911)
 26:    405.53   0.000406    2.05  0.000312  ( 0.008275  0.000104 -0.015611)
 27:    421.10   0.000529    2.67  0.000392  ( 0.019404 -0.002250  0.003255)
 28:    435.59   0.001259    6.36  0.000902  (-0.016244 -0.021055  0.013947)
 29:    457.56   0.000403    2.03  0.000275  (-0.015509 -0.004077  0.004177)
 30:    479.31   0.000301    1.52  0.000196  ( 0.005956 -0.009701  0.008129)
 31:    492.56   0.003293   16.64  0.002087  ( 0.041163 -0.018199  0.007805)
 32:    503.99   0.001356    6.85  0.000840  ( 0.006817 -0.020625  0.019180)
 33:    518.34   0.000306    1.55  0.000184  (-0.010587  0.006603 -0.005344)
 34:    556.64   0.000542    2.74  0.000304  ( 0.007723 -0.003475 -0.015228)
 35:    565.39   0.002219   11.21  0.001224  (-0.019910 -0.027267 -0.009198)
 36:    589.91   0.000607    3.07  0.000321  (-0.008966 -0.003601  0.015097)
 37:    617.68   0.000243    1.23  0.000123  (-0.009889  0.003891  0.003171)
 38:    624.49   0.002730   13.80  0.001364  (-0.031037  0.001477  0.019972)
 39:    664.50   0.000892    4.51  0.000419  (-0.010489 -0.005296  0.016759)
 40:    699.93   0.001818    9.19  0.000810  ( 0.023549 -0.002315  0.015827)
 41:    735.17   0.000844    4.26  0.000358  ( 0.011238 -0.014012  0.005957)
 42:    747.40   0.001234    6.24  0.000515  (-0.004020  0.008093 -0.020824)
 43:    764.64   0.001037    5.24  0.000423  (-0.006940 -0.004682  0.018789)
 44:    796.37   0.002409   12.17  0.000944  (-0.006957  0.022263 -0.019997)
 45:    804.45   0.000123    0.62  0.000048  ( 0.000345 -0.006079  0.003267)
 46:    815.93   0.013799   69.74  0.005278  ( 0.017976 -0.038378  0.059006)
 47:    830.74   0.001734    8.76  0.000651  (-0.009741 -0.000899  0.023574)
 48:    876.25   0.000458    2.31  0.000163  (-0.006095  0.011163 -0.001150)
 49:    876.67   0.000382    1.93  0.000136  (-0.010264  0.004666  0.002994)
 50:    928.82   0.000952    4.81  0.000320  (-0.014829 -0.004078 -0.009127)
 51:    944.83   0.000263    1.33  0.000087  ( 0.001784  0.007600 -0.005099)
 52:    954.23   0.000362    1.83  0.000118  ( 0.003931  0.002562  0.009815)
 53:    976.98   0.001377    6.96  0.000440  ( 0.019698 -0.007197  0.000125)
 54:    984.26   0.000230    1.16  0.000073  (-0.007931 -0.000603 -0.003104)
 55:    990.26   0.003527   17.82  0.001111  (-0.029120 -0.016204 -0.000934)
 56:    994.64   0.000325    1.64  0.000102  (-0.003194  0.008754 -0.003895)
 57:   1011.40   0.007579   38.30  0.002338  ( 0.035970  0.003122 -0.032170)
 58:   1044.21   0.002480   12.53  0.000741  (-0.009541 -0.025058 -0.004725)
 59:   1062.75   0.000920    4.65  0.000270  (-0.008230  0.002215  0.014056)
 60:   1064.69   0.000214    1.08  0.000063  (-0.007467  0.002628  0.000021)
 61:   1090.57   0.000741    3.74  0.000212  (-0.012429 -0.007270 -0.002146)
 62:   1105.34   0.000864    4.37  0.000244  (-0.000148  0.010690  0.011387)
 63:   1117.93   0.000449    2.27  0.000125  ( 0.000138  0.009459 -0.005977)
 64:   1139.91   0.000058    0.29  0.000016  (-0.001148  0.000410  0.003794)
 65:   1179.08   0.000273    1.38  0.000072  ( 0.003314  0.001500 -0.007677)
 66:   1188.50   0.000720    3.64  0.000189  ( 0.001239  0.005128  0.012698)
 67:   1192.64   0.005153   26.04  0.001348  (-0.005602  0.000818  0.036281)
 68:   1199.54   0.000009    0.05  0.000002  (-0.001110 -0.001000 -0.000461)
 69:   1206.37   0.000400    2.02  0.000104  (-0.008086  0.005598  0.002606)
 70:   1212.18   0.005378   27.18  0.001384  (-0.020177  0.027774  0.014351)
 71:   1252.45   0.000489    2.47  0.000122  (-0.006513 -0.006807 -0.005762)
 72:   1276.02   0.016918   85.50  0.004137  ( 0.059178  0.024974  0.003420)
 73:   1277.86   0.002452   12.39  0.000599  ( 0.008565 -0.022808 -0.002307)
 74:   1294.58   0.014205   71.79  0.003424  ( 0.054238  0.016737 -0.014220)
 75:   1297.36   0.002932   14.82  0.000705  ( 0.024852 -0.009127 -0.002096)
 76:   1323.82   0.012520   63.27  0.002951  ( 0.053303 -0.001645  0.010369)
 77:   1378.28   0.003818   19.29  0.000864  ( 0.027943 -0.006976 -0.005908)
 78:   1395.80   0.001312    6.63  0.000293  ( 0.007017  0.007912  0.013471)
 79:   1405.65   0.003086   15.60  0.000685  (-0.018413 -0.018196  0.003874)
 80:   1410.98   0.002532   12.80  0.000560  (-0.016392 -0.013097  0.010946)
 81:   1420.14   0.005008   25.31  0.001100  (-0.032032 -0.001695 -0.008455)
 82:   1442.61   0.000339    1.72  0.000073  (-0.006434  0.005414  0.001645)
 83:   1450.48   0.013661   69.04  0.002939  (-0.045280  0.000410  0.029811)
 84:   1455.98   0.017758   89.74  0.003806  ( 0.058585  0.016265 -0.010459)
 85:   1470.97   0.011867   59.97  0.002518  ( 0.030667  0.025906  0.030099)
 86:   1493.70   0.000779    3.93  0.000163  (-0.009134 -0.002064  0.008658)
 87:   1497.36   0.001072    5.42  0.000223  ( 0.008315  0.007336 -0.010026)
 88:   1502.17   0.000913    4.61  0.000190  ( 0.011223  0.007974  0.000259)
 89:   1503.83   0.001425    7.20  0.000296  (-0.013453  0.010617  0.001427)
 90:   1509.36   0.004868   24.60  0.001006  ( 0.021965 -0.010426  0.020377)
 91:   1512.64   0.000836    4.22  0.000172  (-0.008971  0.002353  0.009298)
 92:   1513.45   0.002087   10.55  0.000430  (-0.008509 -0.003983 -0.018496)
 93:   1525.06   0.001646    8.32  0.000337  (-0.000060 -0.017246  0.006270)
 94:   1528.28   0.003090   15.62  0.000631  ( 0.013519 -0.018069  0.011032)
 95:   1536.36   0.000840    4.25  0.000171  ( 0.000749 -0.012209 -0.004584)
 96:   1568.93   0.005971   30.18  0.001188  (-0.018228 -0.001993  0.029180)
 97:   1572.84   0.001329    6.71  0.000264  ( 0.006041  0.011709  0.009487)
 98:   1635.69   0.000294    1.48  0.000056  (-0.006513  0.003654 -0.000473)
 99:   1656.74   0.001965    9.93  0.000370  (-0.010125  0.015026  0.006463)
100:   1683.73   0.000117    0.59  0.000022  (-0.001066  0.002548 -0.003739)
101:   1753.93   0.060969  308.11  0.010848  (-0.036695 -0.096652 -0.012640)
102:   1754.96   0.032440  163.94  0.005768  ( 0.003545 -0.004083 -0.075758)
103:   3031.42   0.006587   33.29  0.000678  (-0.012443 -0.005084 -0.022303)
104:   3041.13   0.014051   71.01  0.001442  ( 0.011628  0.009467 -0.034885)
105:   3052.67   0.000872    4.41  0.000089  ( 0.001582 -0.006431  0.006729)
106:   3060.07   0.004996   25.25  0.000509  (-0.009713  0.019797  0.004813)
107:   3094.05   0.004660   23.55  0.000470  ( 0.010165 -0.017745  0.007195)
108:   3097.62   0.002684   13.57  0.000270  ( 0.006226 -0.013393  0.007232)
109:   3104.59   0.002316   11.70  0.000233  ( 0.006028  0.003009  0.013688)
110:   3113.38   0.002453   12.40  0.000246  (-0.008168  0.003970  0.012784)
111:   3140.41   0.001946    9.83  0.000193  ( 0.006487 -0.003636  0.011749)
112:   3154.20   0.000795    4.02  0.000079  ( 0.001919 -0.007221 -0.004773)
113:   3175.12   0.001417    7.16  0.000139  (-0.008413 -0.008236  0.000805)
114:   3176.41   0.000229    1.16  0.000022  (-0.001096 -0.004003 -0.002291)
115:   3179.78   0.001282    6.48  0.000126  (-0.009731  0.002740  0.004858)
116:   3193.43   0.002770   14.00  0.000271  (-0.012099  0.006559  0.009015)
117:   3198.68   0.006142   31.04  0.000599  (-0.002558  0.019633  0.014396)
118:   3201.80   0.000142    0.72  0.000014  (-0.003684 -0.000327 -0.000455)
119:   3207.86   0.005858   29.60  0.000570  ( 0.022222  0.008218  0.002917)
120:   3209.88   0.001239    6.26  0.000121  (-0.009810 -0.004199  0.002574)
121:   3219.68   0.000832    4.21  0.000081  (-0.004470  0.007180  0.003020)
122:   3248.63   0.001316    6.65  0.000126  (-0.004415  0.006433  0.008095)

* The epsilon (eps) is given for a Dirac delta lineshape.
** The dipole moment derivative (T) already includes vibrational overlap.

The first frequency considered to be a vibration is 6
The total number of vibrations considered is 117


--------------------------
THERMOCHEMISTRY AT 298.15K
--------------------------

Temperature         ... 298.15 K
Pressure            ... 1.00 atm
Total Mass          ... 284.36 AMU

Throughout the following assumptions are being made:
  (1) The electronic state is orbitally nondegenerate
  (2) There are no thermally accessible electronically excited states
  (3) Hindered rotations indicated by low frequency modes are not
      treated as such but are treated as vibrations and this may
      cause some error
  (4) All equations used are the standard statistical mechanics
      equations for an ideal gas
  (5) All vibrations are strictly harmonic

freq.      35.47  E(vib)   ...       0.54 
freq.      40.90  E(vib)   ...       0.54 
freq.      59.14  E(vib)   ...       0.51 
freq.      76.12  E(vib)   ...       0.49 
freq.      96.16  E(vib)   ...       0.47 
freq.     103.54  E(vib)   ...       0.46 
freq.     115.65  E(vib)   ...       0.44 
freq.     125.53  E(vib)   ...       0.43 
freq.     137.93  E(vib)   ...       0.42 
freq.     159.06  E(vib)   ...       0.39 
freq.     168.81  E(vib)   ...       0.38 
freq.     190.03  E(vib)   ...       0.36 
freq.     199.03  E(vib)   ...       0.35 
freq.     202.20  E(vib)   ...       0.35 
freq.     249.80  E(vib)   ...       0.31 
freq.     263.19  E(vib)   ...       0.29 
freq.     277.71  E(vib)   ...       0.28 
freq.     311.72  E(vib)   ...       0.25 
freq.     326.58  E(vib)   ...       0.24 
freq.     384.76  E(vib)   ...       0.20 
freq.     405.53  E(vib)   ...       0.19 
freq.     421.10  E(vib)   ...       0.18 
freq.     435.59  E(vib)   ...       0.17 
freq.     457.56  E(vib)   ...       0.16 
freq.     479.31  E(vib)   ...       0.15 
freq.     492.56  E(vib)   ...       0.14 
freq.     503.99  E(vib)   ...       0.14 
freq.     518.34  E(vib)   ...       0.13 
freq.     556.64  E(vib)   ...       0.12 
freq.     565.39  E(vib)   ...       0.11 
freq.     589.91  E(vib)   ...       0.10 
freq.     617.68  E(vib)   ...       0.09 
freq.     624.49  E(vib)   ...       0.09 
freq.     664.50  E(vib)   ...       0.08 
freq.     699.93  E(vib)   ...       0.07 
freq.     735.17  E(vib)   ...       0.06 
freq.     747.40  E(vib)   ...       0.06 
freq.     764.64  E(vib)   ...       0.06 
freq.     796.37  E(vib)   ...       0.05 
freq.     804.45  E(vib)   ...       0.05 
freq.     815.93  E(vib)   ...       0.05 
freq.     830.74  E(vib)   ...       0.04 
freq.     876.25  E(vib)   ...       0.04 
freq.     876.67  E(vib)   ...       0.04 
freq.     928.82  E(vib)   ...       0.03 
freq.     944.83  E(vib)   ...       0.03 
freq.     954.23  E(vib)   ...       0.03 
freq.     976.98  E(vib)   ...       0.03 
freq.     984.26  E(vib)   ...       0.02 
freq.     990.26  E(vib)   ...       0.02 
freq.     994.64  E(vib)   ...       0.02 
freq.    1011.40  E(vib)   ...       0.02 
freq.    1044.21  E(vib)   ...       0.02 
freq.    1062.75  E(vib)   ...       0.02 
freq.    1064.69  E(vib)   ...       0.02 
freq.    1090.57  E(vib)   ...       0.02 
freq.    1105.34  E(vib)   ...       0.02 
freq.    1117.93  E(vib)   ...       0.01 
freq.    1139.91  E(vib)   ...       0.01 
freq.    1179.08  E(vib)   ...       0.01 
freq.    1188.50  E(vib)   ...       0.01 
freq.    1192.64  E(vib)   ...       0.01 
freq.    1199.54  E(vib)   ...       0.01 
freq.    1206.37  E(vib)   ...       0.01 
freq.    1212.18  E(vib)   ...       0.01 
freq.    1252.45  E(vib)   ...       0.01 
freq.    1276.02  E(vib)   ...       0.01 
freq.    1277.86  E(vib)   ...       0.01 
freq.    1294.58  E(vib)   ...       0.01 
freq.    1297.36  E(vib)   ...       0.01 
freq.    1323.82  E(vib)   ...       0.01 
freq.    1378.28  E(vib)   ...       0.01 
freq.    1395.80  E(vib)   ...       0.00 
freq.    1405.65  E(vib)   ...       0.00 
freq.    1410.98  E(vib)   ...       0.00 
freq.    1420.14  E(vib)   ...       0.00 
freq.    1442.61  E(vib)   ...       0.00 
freq.    1450.48  E(vib)   ...       0.00 
freq.    1455.98  E(vib)   ...       0.00 
freq.    1470.97  E(vib)   ...       0.00 
freq.    1493.70  E(vib)   ...       0.00 
freq.    1497.36  E(vib)   ...       0.00 
freq.    1502.17  E(vib)   ...       0.00 
freq.    1503.83  E(vib)   ...       0.00 
freq.    1509.36  E(vib)   ...       0.00 
freq.    1512.64  E(vib)   ...       0.00 
freq.    1513.45  E(vib)   ...       0.00 
freq.    1525.06  E(vib)   ...       0.00 
freq.    1528.28  E(vib)   ...       0.00 
freq.    1536.36  E(vib)   ...       0.00 
freq.    1568.93  E(vib)   ...       0.00 
freq.    1572.84  E(vib)   ...       0.00 
freq.    1635.69  E(vib)   ...       0.00 
freq.    1656.74  E(vib)   ...       0.00 
freq.    1683.73  E(vib)   ...       0.00 
freq.    1753.93  E(vib)   ...       0.00 
freq.    1754.96  E(vib)   ...       0.00 
freq.    3031.42  E(vib)   ...       0.00 
freq.    3041.13  E(vib)   ...       0.00 
freq.    3052.67  E(vib)   ...       0.00 
freq.    3060.07  E(vib)   ...       0.00 
freq.    3094.05  E(vib)   ...       0.00 
freq.    3097.62  E(vib)   ...       0.00 
freq.    3104.59  E(vib)   ...       0.00 
freq.    3113.38  E(vib)   ...       0.00 
freq.    3140.41  E(vib)   ...       0.00 
freq.    3154.20  E(vib)   ...       0.00 
freq.    3175.12  E(vib)   ...       0.00 
freq.    3176.41  E(vib)   ...       0.00 
freq.    3179.78  E(vib)   ...       0.00 
freq.    3193.43  E(vib)   ...       0.00 
freq.    3198.68  E(vib)   ...       0.00 
freq.    3201.80  E(vib)   ...       0.00 
freq.    3207.86  E(vib)   ...       0.00 
freq.    3209.88  E(vib)   ...       0.00 
freq.    3219.68  E(vib)   ...       0.00 
freq.    3248.63  E(vib)   ...       0.00 

------------
INNER ENERGY
------------

The inner energy is: U= E(el) + E(ZPE) + E(vib) + E(rot) + E(trans)
    E(el)   - is the total energy from the electronic structure calculation
              = E(kin-el) + E(nuc-el) + E(el-el) + E(nuc-nuc)
    E(ZPE)  - the the zero temperature vibrational energy from the frequency calculation
    E(vib)  - the the finite temperature correction to E(ZPE) due to population
              of excited vibrational states
    E(rot)  - is the rotational thermal energy
    E(trans)- is the translational thermal energy

Summary of contributions to the inner energy U:
Electronic energy                ...   -919.34440112 Eh
Zero point energy                ...      0.34535985 Eh     216.72 kcal/mol
Thermal vibrational correction   ...      0.01691164 Eh      10.61 kcal/mol
Thermal rotational correction    ...      0.00141627 Eh       0.89 kcal/mol
Thermal translational correction ...      0.00141627 Eh       0.89 kcal/mol
-----------------------------------------------------------------------
Total thermal energy                   -918.97929709 Eh


Summary of corrections to the electronic energy:
(perhaps to be used in another calculation)
Total thermal correction                  0.01974419 Eh      12.39 kcal/mol
Non-thermal (ZPE) correction              0.34535985 Eh     216.72 kcal/mol
-----------------------------------------------------------------------
Total correction                          0.36510403 Eh     229.11 kcal/mol


--------
ENTHALPY
--------

The enthalpy is H = U + kB*T
                kB is Boltzmann's constant
Total free energy                 ...   -918.97929709 Eh 
Thermal Enthalpy correction       ...      0.00094421 Eh       0.59 kcal/mol
-----------------------------------------------------------------------
Total Enthalpy                    ...   -918.97835288 Eh


Note: Only C1 symmetry has been detected, increase convergence thresholds 
      if your molecule has a higher symmetry. Symmetry factor of 1.0 is   
      used for the rotational entropy correction. 
 

Note: Rotational entropy computed according to Herzberg 
Infrared and Raman Spectra, Chapter V,1, Van Nostrand Reinhold, 1945 
Point Group:  C1, Symmetry Number:   1  
Rotational constants in cm-1:     0.016807     0.009173     0.007573 

Vibrational entropy computed according to the QRRHO of S. Grimme
Chem.Eur.J. 2012 18 9955


-------
ENTROPY
-------

The entropy contributions are T*S = T*(S(el)+S(vib)+S(rot)+S(trans))
     S(el)   - electronic entropy
     S(vib)  - vibrational entropy
     S(rot)  - rotational entropy
     S(trans)- translational entropy
The entropies will be listed as multiplied by the temperature to get
units of energy

Electronic entropy                ...      0.00000000 Eh      0.00 kcal/mol
Vibrational entropy               ...      0.02973080 Eh     18.66 kcal/mol
Rotational entropy                ...      0.01595986 Eh     10.01 kcal/mol
Translational entropy             ...      0.02035134 Eh     12.77 kcal/mol
-----------------------------------------------------------------------
Final entropy term                ...      0.06604200 Eh     41.44 kcal/mol

In case the symmetry of your molecule has not been determined correctly
or in case you have a reason to use a different symmetry number we print 
out the resulting rotational entropy values for sn=1,12 :
 --------------------------------------------------------
|  sn= 1 | S(rot)=       0.01595986 Eh     10.01 kcal/mol|
|  sn= 2 | S(rot)=       0.01530540 Eh      9.60 kcal/mol|
|  sn= 3 | S(rot)=       0.01492257 Eh      9.36 kcal/mol|
|  sn= 4 | S(rot)=       0.01465095 Eh      9.19 kcal/mol|
|  sn= 5 | S(rot)=       0.01444026 Eh      9.06 kcal/mol|
|  sn= 6 | S(rot)=       0.01426811 Eh      8.95 kcal/mol|
|  sn= 7 | S(rot)=       0.01412257 Eh      8.86 kcal/mol|
|  sn= 8 | S(rot)=       0.01399649 Eh      8.78 kcal/mol|
|  sn= 9 | S(rot)=       0.01388528 Eh      8.71 kcal/mol|
|  sn=10 | S(rot)=       0.01378580 Eh      8.65 kcal/mol|
|  sn=11 | S(rot)=       0.01369581 Eh      8.59 kcal/mol|
|  sn=12 | S(rot)=       0.01361366 Eh      8.54 kcal/mol|
 --------------------------------------------------------


-------------------
GIBBS FREE ENERGY
-------------------

The Gibbs free energy is G = H - T*S

Total enthalpy                    ...   -918.97835288 Eh 
Total entropy correction          ...     -0.06604200 Eh    -41.44 kcal/mol
-----------------------------------------------------------------------
Final Gibbs free energy         ...   -919.04439488 Eh

For completeness - the Gibbs free energy minus the electronic energy
G-E(el)                           ...      0.30000625 Eh    188.26 kcal/mol


Timings for individual modules:

Sum of individual times         ...     3337.552 sec (=  55.626 min)
GTO integral calculation        ...       28.506 sec (=   0.475 min)   0.9 %
SCF iterations                  ...     1561.970 sec (=  26.033 min)  46.8 %
SCF Gradient evaluation         ...      445.189 sec (=   7.420 min)  13.3 %
Geometry relaxation             ...        1.656 sec (=   0.028 min)   0.0 %
Analytical frequency calculation...     1300.231 sec (=  21.671 min)  39.0 %
                             ****ORCA TERMINATED NORMALLY****
TOTAL RUN TIME: 0 days 0 hours 55 minutes 44 seconds 42 msec
