
                                 *****************
                                 * O   R   C   A *
                                 *****************

                                            #,                                       
                                            ###                                      
                                            ####                                     
                                            #####                                    
                                            ######                                   
                                           ########,                                 
                                     ,,################,,,,,                         
                               ,,#################################,,                 
                          ,,##########################################,,             
                       ,#########################################, ''#####,          
                    ,#############################################,,   '####,        
                  ,##################################################,,,,####,       
                ,###########''''           ''''###############################       
              ,#####''   ,,,,##########,,,,          '''####'''          '####       
            ,##' ,,,,###########################,,,                        '##       
           ' ,,###''''                  '''############,,,                           
         ,,##''                                '''############,,,,        ,,,,,,###''
      ,#''                                            '''#######################'''  
     '                                                          ''''####''''         
             ,#######,   #######,   ,#######,      ##                                
            ,#'     '#,  ##    ##  ,#'     '#,    #''#        ######   ,####,        
            ##       ##  ##   ,#'  ##            #'  '#       #        #'  '#        
            ##       ##  #######   ##           ,######,      #####,   #    #        
            '#,     ,#'  ##    ##  '#,     ,#' ,#      #,         ##   #,  ,#        
             '#######'   ##     ##  '#######'  #'      '#     #####' # '####'        



                  #######################################################
                  #                        -***-                        #
                  #          Department of theory and spectroscopy      #
                  #    Directorship and core code : Frank Neese         #
                  #        Max Planck Institute fuer Kohlenforschung    #
                  #                Kaiser Wilhelm Platz 1               #
                  #                 D-45470 Muelheim/Ruhr               #
                  #                      Germany                        #
                  #                                                     #
                  #                  All rights reserved                #
                  #                        -***-                        #
                  #######################################################


                         Program Version 5.0.4 -  RELEASE  -


 With contributions from (in alphabetic order):
   Daniel Aravena         : Magnetic Suceptibility
   Michael Atanasov       : Ab Initio Ligand Field Theory (pilot matlab implementation)
   Alexander A. Auer      : GIAO ZORA, VPT2 properties, NMR spectrum
   Ute Becker             : Parallelization
   Giovanni Bistoni       : ED, misc. LED, open-shell LED, HFLD
   Martin Brehm           : Molecular dynamics
   Dmytro Bykov           : SCF Hessian
   Vijay G. Chilkuri      : MRCI spin determinant printing, contributions to CSF-ICE
   Dipayan Datta          : RHF DLPNO-CCSD density
   Achintya Kumar Dutta   : EOM-CC, STEOM-CC
   Dmitry Ganyushin       : Spin-Orbit,Spin-Spin,Magnetic field MRCI
   Miquel Garcia          : C-PCM and meta-GGA Hessian, CC/C-PCM, Gaussian charge scheme
   Yang Guo               : DLPNO-NEVPT2, F12-NEVPT2, CIM, IAO-localization
   Andreas Hansen         : Spin unrestricted coupled pair/coupled cluster methods
   Benjamin Helmich-Paris : MC-RPA, TRAH-SCF, COSX integrals
   Lee Huntington         : MR-EOM, pCC
   Robert Izsak           : Overlap fitted RIJCOSX, COSX-SCS-MP3, EOM
   Marcus Kettner         : VPT2
   Christian Kollmar      : KDIIS, OOCD, Brueckner-CCSD(T), CCSD density, CASPT2, CASPT2-K
   Simone Kossmann        : Meta GGA functionals, TD-DFT gradient, OOMP2, MP2 Hessian
   Martin Krupicka        : Initial AUTO-CI
   Lucas Lang             : DCDCAS
   Marvin Lechner         : AUTO-CI (C++ implementation), FIC-MRCC
   Dagmar Lenk            : GEPOL surface, SMD
   Dimitrios Liakos       : Extrapolation schemes; Compound Job, initial MDCI parallelization
   Dimitrios Manganas     : Further ROCIS development; embedding schemes
   Dimitrios Pantazis     : SARC Basis sets
   Anastasios Papadopoulos: AUTO-CI, single reference methods and gradients
   Taras Petrenko         : DFT Hessian,TD-DFT gradient, ASA, ECA, R-Raman, ABS, FL, XAS/XES, NRVS
   Peter Pinski           : DLPNO-MP2, DLPNO-MP2 Gradient
   Christoph Reimann      : Effective Core Potentials
   Marius Retegan         : Local ZFS, SOC
   Christoph Riplinger    : Optimizer, TS searches, QM/MM, DLPNO-CCSD(T), (RO)-DLPNO pert. Triples
   Tobias Risthaus        : Range-separated hybrids, TD-DFT gradient, RPA, STAB
   Michael Roemelt        : Original ROCIS implementation
   Masaaki Saitow         : Open-shell DLPNO-CCSD energy and density
   Barbara Sandhoefer     : DKH picture change effects
   Avijit Sen             : IP-ROCIS
   Kantharuban Sivalingam : CASSCF convergence, NEVPT2, FIC-MRCI
   Bernardo de Souza      : ESD, SOC TD-DFT
   Georgi Stoychev        : AutoAux, RI-MP2 NMR, DLPNO-MP2 response
   Willem Van den Heuvel  : Paramagnetic NMR
   Boris Wezisla          : Elementary symmetry handling
   Frank Wennmohs         : Technical directorship


 We gratefully acknowledge several colleagues who have allowed us to
 interface, adapt or use parts of their codes:
   Stefan Grimme, W. Hujo, H. Kruse, P. Pracht,  : VdW corrections, initial TS optimization,
                  C. Bannwarth, S. Ehlert          DFT functionals, gCP, sTDA/sTD-DF
   Ed Valeev, F. Pavosevic, A. Kumar             : LibInt (2-el integral package), F12 methods
   Garnet Chan, S. Sharma, J. Yang, R. Olivares  : DMRG
   Ulf Ekstrom                                   : XCFun DFT Library
   Mihaly Kallay                                 : mrcc  (arbitrary order and MRCC methods)
   Jiri Pittner, Ondrej Demel                    : Mk-CCSD
   Frank Weinhold                                : gennbo (NPA and NBO analysis)
   Christopher J. Cramer and Donald G. Truhlar   : smd solvation model
   Lars Goerigk                                  : TD-DFT with DH, B97 family of functionals
   V. Asgeirsson, H. Jonsson                     : NEB implementation
   FAccTs GmbH                                   : IRC, NEB, NEB-TS, DLPNO-Multilevel, CI-OPT
                                                   MM, QMMM, 2- and 3-layer-ONIOM, Crystal-QMMM,
                                                   LR-CPCM, SF, NACMEs, symmetry and pop. for TD-DFT,
                                                   nearIR, NL-DFT gradient (VV10), updates on ESD,
                                                   ML-optimized integration grids
   S Lehtola, MJT Oliveira, MAL Marques          : LibXC Library
   Liviu Ungur et al                             : ANISO software


 Your calculation uses the libint2 library for the computation of 2-el integrals
 For citations please refer to: http://libint.valeyev.net

 Your ORCA version has been built with support for libXC version: 5.1.0
 For citations please refer to: https://tddft.org/programs/libxc/

 This ORCA versions uses:
   CBLAS   interface :  Fast vector & matrix operations
   LAPACKE interface :  Fast linear algebra routines
   SCALAPACK package :  Parallel linear algebra routines
   Shared memory     :  Shared parallel matrices
   BLAS/LAPACK       :  OpenBLAS 0.3.15  USE64BITINT DYNAMIC_ARCH NO_AFFINITY SkylakeX SINGLE_THREADED
        Core in use  :  SkylakeX
   Copyright (c) 2011-2014, The OpenBLAS Project




***************************************
The coordinates will be read from file: /users/fjb15167/WWenergy/structures/Nwe.xyz
***************************************


Your calculation utilizes the atom-pairwise dispersion correction
based on tight binding partial charges (D4)
Cite in your paper:
E.Caldeweyher, C.Bannwarth, S.Grimme, J.Chem.Phys., (2017), 147, 034112.
E.Caldeweyher, S.Ehlert, A.Hansen, H.Neugebauer, S.Grimme, J.Chem.Phys., (2018), in progress.
   

================================================================================

----- Orbital basis set information -----
Your calculation utilizes the basis: 6-31G(d)
   H-He, Li-Ne : W. J. Hehre, R. Ditchfield and J.A. Pople, J. Chem. Phys. 56, 2257 (1972).
                 Note: He and Ne are unpublished basis sets taken from the Gaussian program.
                 Note: Li and B from J. D. Dill and J. A. Pople, J. Chem. Phys. 62, 2921 (1975).
   Na - Ar     : M. M. Francl, W. J. Pietro, W. J. Hehre, J. S. Binkley, M. S. Gordon, 
                 D. J. DeFrees and J. A. Pople, J. Chem. Phys. 77, 3654 (1982).
   K - Zn      : V. A. Rassolov, J. A. Pople, M. A. Ratner, and T. L. Windus, J. Chem. Phys. 109, 1223 (1998).

----- AuxJ basis set information -----
Your calculation utilizes the AutoAux generation procedure.
  G. L. Stoychev, A. A. Auer, F. Neese, J. Chem. Theory Comput. 13, 554 (2017)

----- AuxC basis set information -----
Your calculation utilizes the AutoAux generation procedure.
  G. L. Stoychev, A. A. Auer, F. Neese, J. Chem. Theory Comput. 13, 554 (2017)

----- AuxJK basis set information -----
Your calculation utilizes the AutoAux generation procedure.
  G. L. Stoychev, A. A. Auer, F. Neese, J. Chem. Theory Comput. 13, 554 (2017)

================================================================================
                                        WARNINGS
                       Please study these warnings very carefully!
================================================================================


WARNING: Geometry Optimization
  ===> : Switching off AutoStart
         For restart on a previous wavefunction, please use MOREAD

INFO   : the flag for use of the SHARK integral package has been found!

================================================================================
                                       INPUT FILE
================================================================================
NAME = Nwe_gas.inp
|  1> ! OPT FREQ B3LYP 6-31G(d) D4 AUTOAUX
|  2> 
|  3> %PAL NPROCS 4 END
|  4> 
|  5> %maxcore 3375
|  6> 
|  7> *xyzfile 0 1 /users/fjb15167/WWenergy/structures/Nwe.xyz
|  8> 
|  9>                          ****END OF INPUT****
================================================================================

                       *****************************
                       * Geometry Optimization Run *
                       *****************************

Geometry optimization settings:
Update method            Update   .... BFGS
Choice of coordinates    CoordSys .... Z-matrix Internals
Initial Hessian          InHess   .... Almoef's Model

Convergence Tolerances:
Energy Change            TolE     ....  5.0000e-06 Eh
Max. Gradient            TolMAXG  ....  3.0000e-04 Eh/bohr
RMS Gradient             TolRMSG  ....  1.0000e-04 Eh/bohr
Max. Displacement        TolMAXD  ....  4.0000e-03 bohr
RMS Displacement         TolRMSD  ....  2.0000e-03 bohr
Strict Convergence                ....  False
------------------------------------------------------------------------------
                        ORCA OPTIMIZATION COORDINATE SETUP
------------------------------------------------------------------------------

The optimization will be done in new redundant internal coordinates
Making redundant internal coordinates   ...  (new redundants) done
Evaluating the initial hessian          ...  (Almloef) done
Evaluating the coordinates              ...  done
Calculating the B-matrix                .... done
Calculating the G-matrix                .... done
Diagonalizing the G-matrix              .... done
Small eigenvalue found = 2.351e-03
Small eigenvalue found = 4.564e-03
Small eigenvalue found = 4.876e-03
Small eigenvalue found = 9.912e-03
Small eigenvalue found = 1.490e-02
Small eigenvalue found = 1.864e-02
Small eigenvalue found = 2.179e-02
The first mode is                       ....   97
The number of degrees of freedom        ....  120

    -----------------------------------------------------------------
                    Redundant Internal Coordinates


    -----------------------------------------------------------------
         Definition                    Initial Value    Approx d2E/dq
    -----------------------------------------------------------------
      1. B(C   1,C   0)                  1.3800         0.648105   
      2. B(C   2,C   0)                  1.4324         0.534616   
      3. B(H   3,C   1)                  1.0848         0.367035   
      4. B(N   4,C   1)                  1.3780         0.584818   
      5. B(C   5,N   4)                  1.3767         0.587529   
      6. B(C   5,C   2)                  1.4236         0.552162   
      7. B(C   6,C   2)                  1.4078         0.585346   
      8. B(H   7,N   4)                  1.0112         0.430883   
      9. B(C   8,C   5)                  1.4011         0.599809   
     10. B(C   9,C   6)                  1.3879         0.629600   
     11. B(H  10,C   6)                  1.0893         0.361026   
     12. B(H  11,C   8)                  1.0884         0.362260   
     13. B(C  12,C   9)                  1.4130         0.574251   
     14. B(C  12,C   8)                  1.3895         0.626050   
     15. B(H  13,C   9)                  1.0873         0.363669   
     16. B(H  14,C  12)                  1.0869         0.364211   
     17. B(C  15,C   0)                  1.4947         0.425255   
     18. B(H  16,C  15)                  1.0964         0.351678   
     19. B(H  17,C  15)                  1.0934         0.355625   
     20. B(C  18,C  15)                  1.5383         0.362391   
     21. B(H  19,C  18)                  1.0935         0.355509   
     22. B(H  20,C  18)                  1.0939         0.354920   
     23. B(N  21,C  18)                  1.4622         0.429237   
     24. B(C  22,N  21)                  1.4604         0.432080   
     25. B(H  23,C  22)                  1.0957         0.352585   
     26. B(H  24,C  22)                  1.0902         0.359796   
     27. B(C  25,N  21)                  1.3725         0.596827   
     28. B(C  26,C  22)                  1.5247         0.380878   
     29. B(N  27,C  26)                  1.3642         0.615170   
     30. B(C  28,C  25)                  1.5150         0.394760   
     31. B(H  29,C  28)                  1.0946         0.354051   
     32. B(H  30,C  28)                  1.0928         0.356445   
     33. B(H  31,C  28)                  1.0892         0.361185   
     34. B(C  32,N  27)                  1.4553         0.440322   
     35. B(H  33,C  32)                  1.0977         0.350104   
     36. B(H  34,C  32)                  1.0879         0.362950   
     37. B(H  35,C  32)                  1.0935         0.355488   
     38. B(C  36,N  27)                  1.4559         0.439197   
     39. B(H  37,C  36)                  1.0974         0.350499   
     40. B(H  38,C  36)                  1.0947         0.353914   
     41. B(H  39,C  36)                  1.0879         0.362862   
     42. B(O  40,C  25)                  1.2399         0.971162   
     43. B(O  41,C  26)                  1.2427         0.961448   
     44. A(C   1,C   0,C   2)          106.6959         0.426051   
     45. A(C   2,C   0,C  15)          127.9901         0.395391   
     46. A(C   1,C   0,C  15)          125.0938         0.409036   
     47. A(C   0,C   1,H   3)          128.9263         0.356724   
     48. A(H   3,C   1,N   4)          121.6265         0.348417   
     49. A(C   0,C   1,N   4)          109.4414         0.430137   
     50. A(C   5,C   2,C   6)          118.8230         0.420786   
     51. A(C   0,C   2,C   5)          107.2268         0.414048   
     52. A(C   0,C   2,C   6)          133.9262         0.418370   
     53. A(C   5,N   4,H   7)          125.2949         0.355150   
     54. A(C   1,N   4,H   7)          125.0967         0.354872   
     55. A(C   1,N   4,C   5)          109.6026         0.419899   
     56. A(N   4,C   5,C   8)          130.5114         0.424561   
     57. A(C   2,C   5,C   8)          122.4696         0.422624   
     58. A(C   2,C   5,N   4)          107.0160         0.418333   
     59. A(C   9,C   6,H  10)          120.3873         0.353982   
     60. A(C   2,C   6,C   9)          118.8904         0.430790   
     61. A(C   2,C   6,H  10)          120.7171         0.349647   
     62. A(C   5,C   8,C  12)          117.2477         0.432243   
     63. A(H  11,C   8,C  12)          121.1723         0.353848   
     64. A(C   5,C   8,H  11)          121.5786         0.351293   
     65. A(C  12,C   9,H  13)          119.0305         0.348949   
     66. A(C   6,C   9,H  13)          119.6896         0.354420   
     67. A(C   6,C   9,C  12)          121.2758         0.429312   
     68. A(C   9,C  12,H  14)          119.3813         0.349037   
     69. A(C   8,C  12,H  14)          119.3337         0.354170   
     70. A(C   8,C  12,C   9)          121.2838         0.428877   
     71. A(C   0,C  15,C  18)          110.9167         0.369580   
     72. A(H  16,C  15,H  17)          106.6673         0.289194   
     73. A(C   0,C  15,H  17)          109.5782         0.330637   
     74. A(C   0,C  15,H  16)          110.5771         0.330028   
     75. A(H  17,C  15,C  18)          108.8512         0.322045   
     76. A(H  16,C  15,C  18)          110.1411         0.321457   
     77. A(H  19,C  18,N  21)          106.8421         0.329137   
     78. A(C  15,C  18,N  21)          113.5995         0.367859   
     79. A(C  15,C  18,H  20)          110.3168         0.321940   
     80. A(C  15,C  18,H  19)          108.3424         0.322028   
     81. A(H  20,C  18,N  21)          110.3050         0.329047   
     82. A(H  19,C  18,H  20)          107.1546         0.289595   
     83. A(C  22,N  21,C  25)          119.2770         0.399088   
     84. A(C  18,N  21,C  25)          124.9307         0.398625   
     85. A(C  18,N  21,C  22)          115.7503         0.376796   
     86. A(H  24,C  22,C  26)          113.7359         0.325307   
     87. A(H  23,C  22,C  26)          105.4553         0.324227   
     88. A(N  21,C  22,C  26)          111.0710         0.371438   
     89. A(H  23,C  22,H  24)          109.0210         0.289840   
     90. A(N  21,C  22,H  24)          107.9351         0.330150   
     91. A(N  21,C  22,H  23)          109.5526         0.329047   
     92. A(N  21,C  25,C  28)          116.8541         0.395333   
     93. A(N  21,C  25,O  40)          122.0592         0.461473   
     94. A(C  28,C  25,O  40)          121.0818         0.431020   
     95. A(C  22,C  26,N  27)          118.0907         0.394950   
     96. A(N  27,C  26,O  41)          122.5413         0.463181   
     97. A(C  22,C  26,O  41)          119.3525         0.427489   
     98. A(C  26,N  27,C  32)          118.0288         0.402558   
     99. A(C  32,N  27,C  36)          115.4428         0.379534   
    100. A(C  26,N  27,C  36)          124.9219         0.402377   
    101. A(H  30,C  28,H  31)          109.5003         0.290511   
    102. A(H  29,C  28,H  31)          108.9827         0.290204   
    103. A(C  25,C  28,H  31)          107.2336         0.327437   
    104. A(H  29,C  28,H  30)          107.9693         0.289603   
    105. A(C  25,C  28,H  30)          112.3772         0.326726   
    106. A(C  25,C  28,H  29)          110.7333         0.326363   
    107. A(H  34,C  32,H  35)          110.1719         0.290611   
    108. A(H  33,C  32,H  35)          108.7616         0.288973   
    109. A(N  27,C  32,H  35)          109.0271         0.330524   
    110. A(H  33,C  32,H  34)          109.2058         0.289916   
    111. A(N  27,C  32,H  34)          108.6848         0.331662   
    112. A(N  27,C  32,H  33)          110.9848         0.329691   
    113. A(H  38,C  36,H  39)          108.8193         0.290397   
    114. A(H  37,C  36,H  39)          108.4868         0.289956   
    115. A(N  27,C  36,H  39)          111.9353         0.331508   
    116. A(H  37,C  36,H  38)          108.2715         0.288823   
    117. A(N  27,C  36,H  38)          108.9380         0.330142   
    118. A(N  27,C  36,H  37)          110.3097         0.329613   
    119. D(N   4,C   1,C   0,C   2)     -1.0273         0.029234   
    120. D(H   3,C   1,C   0,C  15)      3.1266         0.029234   
    121. D(N   4,C   1,C   0,C  15)   -175.9924         0.029234   
    122. D(H   3,C   1,C   0,C   2)    178.0917         0.029234   
    123. D(C   6,C   2,C   0,C   1)    179.4678         0.019518   
    124. D(C   5,C   2,C   0,C  15)    176.1160         0.019518   
    125. D(C   6,C   2,C   0,C  15)     -5.7600         0.019518   
    126. D(C   5,C   2,C   0,C   1)      1.3438         0.019518   
    127. D(H   7,N   4,C   1,H   3)      1.9506         0.027461   
    128. D(C   5,N   4,C   1,C   0)      0.3074         0.027461   
    129. D(C   5,N   4,C   1,H   3)   -178.8877         0.027461   
    130. D(H   7,N   4,C   1,C   0)   -178.8543         0.027461   
    131. D(C   8,C   5,C   2,C   0)    179.4131         0.020862   
    132. D(N   4,C   5,C   2,C   0)     -1.1649         0.020862   
    133. D(N   4,C   5,C   2,C   6)   -179.6228         0.020862   
    134. D(C   8,C   5,N   4,H   7)     -0.9309         0.027734   
    135. D(C   2,C   5,N   4,H   7)    179.7104         0.027734   
    136. D(C   8,C   5,N   4,C   1)    179.9094         0.027734   
    137. D(C   2,C   5,N   4,C   1)      0.5507         0.027734   
    138. D(C   8,C   5,C   2,C   6)      0.9552         0.020862   
    139. D(H  10,C   6,C   2,C   0)      1.8013         0.023560   
    140. D(H  10,C   6,C   2,C   5)    179.7560         0.023560   
    141. D(C   9,C   6,C   2,C   5)     -1.0712         0.023560   
    142. D(C   9,C   6,C   2,C   0)   -179.0259         0.023560   
    143. D(C  12,C   8,C   5,N   4)   -179.8702         0.024801   
    144. D(H  11,C   8,C   5,N   4)      0.5549         0.024801   
    145. D(H  11,C   8,C   5,C   2)    179.8280         0.024801   
    146. D(C  12,C   8,C   5,C   2)     -0.5971         0.024801   
    147. D(H  13,C   9,C   6,C   2)   -179.8599         0.027482   
    148. D(C  12,C   9,C   6,H  10)   -179.9325         0.027482   
    149. D(C  12,C   9,C   6,C   2)      0.8918         0.027482   
    150. D(H  13,C   9,C   6,H  10)     -0.6843         0.027482   
    151. D(H  14,C  12,C   9,H  13)      0.5831         0.022636   
    152. D(C   8,C  12,C   9,H  13)   -179.8034         0.022636   
    153. D(C   8,C  12,C   9,C   6)     -0.5503         0.022636   
    154. D(H  14,C  12,C   8,H  11)     -0.4287         0.027154   
    155. D(H  14,C  12,C   8,C   5)    179.9946         0.027154   
    156. D(H  14,C  12,C   9,C   6)    179.8362         0.022636   
    157. D(C   9,C  12,C   8,H  11)    179.9577         0.027154   
    158. D(C   9,C  12,C   8,C   5)      0.3809         0.027154   
    159. D(C  18,C  15,C   0,C   2)    -89.2322         0.013363   
    160. D(C  18,C  15,C   0,C   1)     84.6448         0.013363   
    161. D(H  17,C  15,C   0,C   2)    150.5651         0.013363   
    162. D(H  17,C  15,C   0,C   1)    -35.5579         0.013363   
    163. D(H  16,C  15,C   0,C   2)     33.2632         0.013363   
    164. D(H  16,C  15,C   0,C   1)   -152.8598         0.013363   
    165. D(N  21,C  18,C  15,H  16)     74.0839         0.010527   
    166. D(N  21,C  18,C  15,C   0)   -163.1679         0.010527   
    167. D(H  20,C  18,C  15,H  17)   -166.9750         0.010527   
    168. D(H  20,C  18,C  15,H  16)    -50.3575         0.010527   
    169. D(H  20,C  18,C  15,C   0)     72.3907         0.010527   
    170. D(H  19,C  18,C  15,H  17)     76.0177         0.010527   
    171. D(H  19,C  18,C  15,H  16)   -167.3648         0.010527   
    172. D(N  21,C  18,C  15,H  17)    -42.5336         0.010527   
    173. D(H  19,C  18,C  15,C   0)    -44.6167         0.010527   
    174. D(C  25,N  21,C  18,H  20)     36.0640         0.015708   
    175. D(C  25,N  21,C  18,H  19)    152.2060         0.015708   
    176. D(C  25,N  21,C  18,C  15)    -88.3838         0.015708   
    177. D(C  22,N  21,C  18,H  20)   -141.5501         0.015708   
    178. D(C  22,N  21,C  18,H  19)    -25.4080         0.015708   
    179. D(C  22,N  21,C  18,C  15)     94.0021         0.015708   
    180. D(H  23,C  22,N  21,C  25)   -117.6610         0.015917   
    181. D(H  23,C  22,N  21,C  18)     60.0965         0.015917   
    182. D(C  26,C  22,N  21,C  25)    126.2420         0.015917   
    183. D(C  26,C  22,N  21,C  18)    -56.0005         0.015917   
    184. D(H  24,C  22,N  21,C  25)      0.9249         0.015917   
    185. D(H  24,C  22,N  21,C  18)    178.6824         0.015917   
    186. D(O  40,C  25,N  21,C  22)     -4.7139         0.028680   
    187. D(O  40,C  25,N  21,C  18)    177.7498         0.028680   
    188. D(C  28,C  25,N  21,C  22)    174.4862         0.028680   
    189. D(C  28,C  25,N  21,C  18)     -3.0501         0.028680   
    190. D(O  41,C  26,C  22,H  24)   -138.9736         0.010822   
    191. D(O  41,C  26,C  22,H  23)    -19.5697         0.010822   
    192. D(O  41,C  26,C  22,N  21)     99.0265         0.010822   
    193. D(N  27,C  26,C  22,H  24)     42.4187         0.010822   
    194. D(N  27,C  26,C  22,H  23)    161.8226         0.010822   
    195. D(N  27,C  26,C  22,N  21)    -79.5812         0.010822   
    196. D(C  36,N  27,C  26,O  41)   -168.1451         0.030607   
    197. D(C  36,N  27,C  26,C  22)     10.4153         0.030607   
    198. D(C  32,N  27,C  26,O  41)     -3.2926         0.030607   
    199. D(C  32,N  27,C  26,C  22)    175.2678         0.030607   
    200. D(H  31,C  28,C  25,O  40)     -7.3768         0.011579   
    201. D(H  31,C  28,C  25,N  21)    173.4147         0.011579   
    202. D(H  30,C  28,C  25,O  40)   -127.7529         0.011579   
    203. D(H  30,C  28,C  25,N  21)     53.0387         0.011579   
    204. D(H  29,C  28,C  25,O  40)    111.4115         0.011579   
    205. D(H  29,C  28,C  25,N  21)    -67.7969         0.011579   
    206. D(H  35,C  32,N  27,C  36)    -50.1209         0.016533   
    207. D(H  35,C  32,N  27,C  26)    143.6042         0.016533   
    208. D(H  34,C  32,N  27,C  36)   -170.2326         0.016533   
    209. D(H  34,C  32,N  27,C  26)     23.4925         0.016533   
    210. D(H  33,C  32,N  27,C  36)     69.6583         0.016533   
    211. D(H  33,C  32,N  27,C  26)    -96.6165         0.016533   
    212. D(H  39,C  36,N  27,C  32)    176.8305         0.016448   
    213. D(H  39,C  36,N  27,C  26)    -17.9686         0.016448   
    214. D(H  38,C  36,N  27,C  32)     56.4434         0.016448   
    215. D(H  38,C  36,N  27,C  26)   -138.3557         0.016448   
    216. D(H  37,C  36,N  27,C  32)    -62.2697         0.016448   
    217. D(H  37,C  36,N  27,C  26)    102.9313         0.016448   
    -----------------------------------------------------------------

Number of atoms                         .... 42
Number of degrees of freedom            .... 217

         *************************************************************
         *                GEOMETRY OPTIMIZATION CYCLE   1            *
         *************************************************************
---------------------------------
CARTESIAN COORDINATES (ANGSTROEM)
---------------------------------
  C     -1.391000   -0.487000    0.168000
  C     -1.574000   -1.759000   -0.335000
  C     -2.689000    0.113000    0.252000
  H     -0.830000   -2.513000   -0.569000
  N     -2.918000   -1.981000   -0.543000
  C     -3.632000   -0.859000   -0.187000
  C     -3.159000    1.367000    0.686000
  H     -3.318000   -2.842000   -0.891000
  C     -5.010000   -0.608000   -0.222000
  C     -4.523000    1.621000    0.650000
  H     -2.465000    2.132000    1.032000
  H     -5.718000   -1.361000   -0.563000
  C     -5.440000    0.642000    0.206000
  H     -4.900000    2.586000    0.980000
  H     -6.502000    0.873000    0.193000
  C     -0.065000    0.147000    0.440000
  H     -0.152000    0.896000    1.236000
  H      0.637000   -0.611000    0.798000
  C      0.507000    0.792000   -0.834000
  H      0.372000    0.093000   -1.664000
  H     -0.050000    1.700000   -1.083000
  N      1.938000    1.081000   -0.752000
  C      2.825000    0.050000   -1.284000
  H      2.607000   -0.109000   -2.346000
  H      3.851000    0.404000   -1.181000
  C      2.478000    2.245000   -0.265000
  C      2.569000   -1.294000   -0.611000
  N      3.108000   -1.507000    0.624000
  C      1.505000    3.328000    0.154000
  H      0.980000    3.735000   -0.716000
  H      0.755000    2.963000    0.860000
  H      2.087000    4.122000    0.620000
  C      2.777000   -2.747000    1.310000
  H      1.950000   -2.597000    2.016000
  H      2.485000   -3.488000    0.569000
  H      3.654000   -3.093000    1.864000
  C      3.730000   -0.482000    1.450000
  H      3.047000   -0.172000    2.251000
  H      4.633000   -0.896000    1.910000
  H      4.003000    0.397000    0.870000
  O      3.703000    2.418000   -0.182000
  O      1.863000   -2.139000   -1.187000

----------------------------
CARTESIAN COORDINATES (A.U.)
----------------------------
  NO LB      ZA    FRAG     MASS         X           Y           Z
   0 C     6.0000    0    12.011   -2.628609   -0.920297    0.317474
   1 C     6.0000    0    12.011   -2.974429   -3.324028   -0.633058
   2 C     6.0000    0    12.011   -5.081474    0.213539    0.476211
   3 H     1.0000    0     1.008   -1.568473   -4.748882   -1.075254
   4 N     7.0000    0    14.007   -5.514221   -3.743547   -1.026121
   5 C     6.0000    0    12.011   -6.863485   -1.623275   -0.353379
   6 C     6.0000    0    12.011   -5.969645    2.583256    1.296352
   7 H     1.0000    0     1.008   -6.270111   -5.370602   -1.683746
   8 C     6.0000    0    12.011   -9.467528   -1.148953   -0.419519
   9 C     6.0000    0    12.011   -8.547231    3.063246    1.228322
  10 H     1.0000    0     1.008   -4.658175    4.028896    1.950197
  11 H     1.0000    0     1.008  -10.805454   -2.571917   -1.063916
  12 C     6.0000    0    12.011  -10.280110    1.213204    0.389284
  13 H     1.0000    0     1.008   -9.259658    4.886832    1.851932
  14 H     1.0000    0     1.008  -12.286999    1.649731    0.364717
  15 C     6.0000    0    12.011   -0.122832    0.277790    0.831479
  16 H     1.0000    0     1.008   -0.287238    1.693195    2.335702
  17 H     1.0000    0     1.008    1.203756   -1.154623    1.508001
  18 C     6.0000    0    12.011    0.958091    1.496663   -1.576032
  19 H     1.0000    0     1.008    0.702978    0.175745   -3.144504
  20 H     1.0000    0     1.008   -0.094486    3.212534   -2.046573
  21 N     7.0000    0    14.007    3.662289    2.042794   -1.421074
  22 C     6.0000    0    12.011    5.338476    0.094486   -2.426408
  23 H     1.0000    0     1.008    4.926516   -0.205980   -4.433298
  24 H     1.0000    0     1.008    7.277335    0.763449   -2.231767
  25 C     6.0000    0    12.011    4.682741    4.242435   -0.500777
  26 C     6.0000    0    12.011    4.854706   -2.445306   -1.154623
  27 N     7.0000    0    14.007    5.873269   -2.847817    1.179189
  28 C     6.0000    0    12.011    2.844038    6.289009    0.291018
  29 H     1.0000    0     1.008    1.851932    7.058127   -1.353044
  30 H     1.0000    0     1.008    1.426743    5.599259    1.625164
  31 H     1.0000    0     1.008    3.943858    7.789451    1.171630
  32 C     6.0000    0    12.011    5.247769   -5.191078    2.475541
  33 H     1.0000    0     1.008    3.684966   -4.907619    3.809688
  34 H     1.0000    0     1.008    4.695969   -6.591365    1.075254
  35 H     1.0000    0     1.008    6.905059   -5.844923    3.522450
  36 C     6.0000    0    12.011    7.048678   -0.910848    2.740103
  37 H     1.0000    0     1.008    5.757996   -0.325033    4.253774
  38 H     1.0000    0     1.008    8.755101   -1.693195    3.609377
  39 H     1.0000    0     1.008    7.564574    0.750221    1.644062
  40 O     8.0000    0    15.999    6.997656    4.569358   -0.343930
  41 O     8.0000    0    15.999    3.520560   -4.042124   -2.243105

--------------------------------
INTERNAL COORDINATES (ANGSTROEM)
--------------------------------
 C      0   0   0     0.000000000000     0.00000000     0.00000000
 C      1   0   0     1.380029709825     0.00000000     0.00000000
 C      1   2   0     1.432431499235   106.69589345     0.00000000
 H      2   1   3     1.084807817081   128.92632557   178.09168946
 N      2   1   3     1.378000000000   109.44138716   358.97269835
 C      5   2   1     1.376741079506   109.60263909     0.30742616
 C      3   1   2     1.407754239915   133.92615865   179.46776291
 H      5   2   1     1.011150335015   125.09666852   181.14565464
 C      6   5   2     1.401110274033   130.51135818   179.90936318
 C      7   3   1     1.387914982987   118.89042058   180.97410611
 H      7   3   1     1.089301152115   120.71706183     1.80126918
 H      9   6   5     1.088372178990   121.57858376     0.55488301
 C      9   6   5     1.389454569247   117.24770399   180.12980705
 H     10   7   3     1.087315041743   119.68955014   180.14010660
 H     13   9   6     1.086910299887   119.33370030   179.99458379
 C      1   2   3     1.494729406950   125.09381616   185.03493042
 H     16   1   2     1.096442428949   110.57714796   207.14018700
 H     16   1   2     1.093403859514   109.57816109   324.44205188
 C     16   1   2     1.538273382725   110.91668378    84.64481852
 H     19  16   1     1.093492569705   108.34238519   315.38333789
 H     19  16   1     1.093944239895   110.31683764    72.39068729
 N     19  16   1     1.462192189830   113.59953876   196.83207737
 C     22  19  16     1.460395152005   115.75026774    94.00212718
 H     23  22  19     1.095741301585   109.55258418    60.09654824
 H     23  22  19     1.090229792292   107.93514077   178.68236924
 C     22  19  16     1.372466757339   124.93070388   271.61616886
 C     23  22  19     1.524729812131   111.07099435   303.99948733
 N     27  23  22     1.364226887288   118.09068978   280.41883111
 C     26  22  19     1.514984818406   116.85405478   356.94992398
 H     29  26  22     1.094611346552   110.73330962   292.20306502
 H     29  26  22     1.092776738405   112.37723082    53.03866123
 H     29  26  22     1.089181343946   107.23359461   173.41474394
 C     28  27  23     1.455251524651   118.02884188   175.26780171
 H     33  28  27     1.097663427468   110.98480557   263.38345847
 H     33  28  27     1.087853850478   108.68484165    23.49247966
 H     33  28  27     1.093508573355   109.02706243   143.60421382
 C     28  27  23     1.455948144681   124.92187693    10.41531812
 H     37  28  27     1.097355913093   110.30968300   102.93128067
 H     37  28  27     1.094716858370   108.93799733   221.64432573
 H     37  28  27     1.087920033826   111.93528976   342.03144125
 O     26  22  19     1.239936691932   122.05922482   177.74983510
 O     27  23  22     1.242673327951   119.35254575    99.02653855

---------------------------
INTERNAL COORDINATES (A.U.)
---------------------------
 C      0   0   0     0.000000000000     0.00000000     0.00000000
 C      1   0   0     2.607878208244     0.00000000     0.00000000
 C      1   2   0     2.706903239156   106.69589345     0.00000000
 H      2   1   3     2.049989682220   128.92632557   178.09168946
 N      2   1   3     2.604042612543   109.44138716   358.97269835
 C      5   2   1     2.601663597586   109.60263909     0.30742616
 C      3   1   2     2.660269977307   133.92615865   179.46776291
 H      5   2   1     1.910797213400   125.09666852   181.14565464
 C      6   5   2     2.647714701345   130.51135818   179.90936318
 C      7   3   1     2.622779215012   118.89042058   180.97410611
 H      7   3   1     2.058480854863   120.71706183     1.80126918
 H      9   6   5     2.056725350071   121.57858376     0.55488301
 C      9   6   5     2.625688611401   117.24770399   180.12980705
 H     10   7   3     2.054727650187   119.68955014   180.14010660
 H     13   9   6     2.053962798924   119.33370030   179.99458379
 C      1   2   3     2.824629223453   125.09381616   185.03493042
 H     16   1   2     2.071975912325   110.57714796   207.14018700
 H     16   1   2     2.066233848254   109.57816109   324.44205188
 C     16   1   2     2.906915412451   110.91668378    84.64481852
 H     19  16   1     2.066401486220   108.34238519   315.38333789
 H     19  16   1     2.067255019183   110.31683764    72.39068729
 N     19  16   1     2.763142793937   113.59953876   196.83207737
 C     22  19  16     2.759746884596   115.75026774    94.00212718
 H     23  22  19     2.070650973623   109.55258418    60.09654824
 H     23  22  19     2.060235730473   107.93514077   178.68236924
 C     22  19  16     2.593586299281   124.93070388   271.61616886
 C     23  22  19     2.881321773152   111.07099435   303.99948733
 N     27  23  22     2.578015201507   118.09068978   280.41883111
 C     26  22  19     2.862906403835   116.85405478   356.94992398
 H     29  26  22     2.068515668066   110.73330962   292.20306502
 H     29  26  22     2.065048761106   112.37723082    53.03866123
 H     29  26  22     2.058254450234   107.23359461   173.41474394
 C     28  27  23     2.750026837562   118.02884188   175.26780171
 H     33  28  27     2.074283265135   110.98480557   263.38345847
 H     33  28  27     2.055745851135   108.68484165    23.49247966
 H     33  28  27     2.066431728735   109.02706243   143.60421382
 C     28  27  23     2.751343258638   124.92187693    10.41531812
 H     37  28  27     2.073702147185   110.30968300   102.93128067
 H     37  28  27     2.068715056506   108.93799733   221.64432573
 H     37  28  27     2.055870919538   111.93528976   342.03144125
 O     26  22  19     2.343140771152   122.05922482   177.74983510
 O     27  23  22     2.348312263755   119.35254575    99.02653855

---------------------
BASIS SET INFORMATION
---------------------
There are 4 groups of distinct atoms

 Group   1 Type C   : 10s4p1d contracted to 3s2p1d pattern {631/31/1}
 Group   2 Type H   : 4s contracted to 2s pattern {31}
 Group   3 Type N   : 10s4p1d contracted to 3s2p1d pattern {631/31/1}
 Group   4 Type O   : 10s4p1d contracted to 3s2p1d pattern {631/31/1}

Atom   0C    basis set group =>   1
Atom   1C    basis set group =>   1
Atom   2C    basis set group =>   1
Atom   3H    basis set group =>   2
Atom   4N    basis set group =>   3
Atom   5C    basis set group =>   1
Atom   6C    basis set group =>   1
Atom   7H    basis set group =>   2
Atom   8C    basis set group =>   1
Atom   9C    basis set group =>   1
Atom  10H    basis set group =>   2
Atom  11H    basis set group =>   2
Atom  12C    basis set group =>   1
Atom  13H    basis set group =>   2
Atom  14H    basis set group =>   2
Atom  15C    basis set group =>   1
Atom  16H    basis set group =>   2
Atom  17H    basis set group =>   2
Atom  18C    basis set group =>   1
Atom  19H    basis set group =>   2
Atom  20H    basis set group =>   2
Atom  21N    basis set group =>   3
Atom  22C    basis set group =>   1
Atom  23H    basis set group =>   2
Atom  24H    basis set group =>   2
Atom  25C    basis set group =>   1
Atom  26C    basis set group =>   1
Atom  27N    basis set group =>   3
Atom  28C    basis set group =>   1
Atom  29H    basis set group =>   2
Atom  30H    basis set group =>   2
Atom  31H    basis set group =>   2
Atom  32C    basis set group =>   1
Atom  33H    basis set group =>   2
Atom  34H    basis set group =>   2
Atom  35H    basis set group =>   2
Atom  36C    basis set group =>   1
Atom  37H    basis set group =>   2
Atom  38H    basis set group =>   2
Atom  39H    basis set group =>   2
Atom  40O    basis set group =>   4
Atom  41O    basis set group =>   4
---------------------------------
AUXILIARY/J BASIS SET INFORMATION
---------------------------------
There are 4 groups of distinct atoms

 Group   1 Type C   : 13s11p10d2f contracted to 13s11p10d2f pattern {1111111111111/11111111111/1111111111/11}
 Group   2 Type H   : 9s2p contracted to 9s2p pattern {111111111/11}
 Group   3 Type N   : 14s11p10d2f contracted to 14s11p10d2f pattern {11111111111111/11111111111/1111111111/11}
 Group   4 Type O   : 14s11p10d2f contracted to 14s11p10d2f pattern {11111111111111/11111111111/1111111111/11}

Atom   0C    basis set group =>   1
Atom   1C    basis set group =>   1
Atom   2C    basis set group =>   1
Atom   3H    basis set group =>   2
Atom   4N    basis set group =>   3
Atom   5C    basis set group =>   1
Atom   6C    basis set group =>   1
Atom   7H    basis set group =>   2
Atom   8C    basis set group =>   1
Atom   9C    basis set group =>   1
Atom  10H    basis set group =>   2
Atom  11H    basis set group =>   2
Atom  12C    basis set group =>   1
Atom  13H    basis set group =>   2
Atom  14H    basis set group =>   2
Atom  15C    basis set group =>   1
Atom  16H    basis set group =>   2
Atom  17H    basis set group =>   2
Atom  18C    basis set group =>   1
Atom  19H    basis set group =>   2
Atom  20H    basis set group =>   2
Atom  21N    basis set group =>   3
Atom  22C    basis set group =>   1
Atom  23H    basis set group =>   2
Atom  24H    basis set group =>   2
Atom  25C    basis set group =>   1
Atom  26C    basis set group =>   1
Atom  27N    basis set group =>   3
Atom  28C    basis set group =>   1
Atom  29H    basis set group =>   2
Atom  30H    basis set group =>   2
Atom  31H    basis set group =>   2
Atom  32C    basis set group =>   1
Atom  33H    basis set group =>   2
Atom  34H    basis set group =>   2
Atom  35H    basis set group =>   2
Atom  36C    basis set group =>   1
Atom  37H    basis set group =>   2
Atom  38H    basis set group =>   2
Atom  39H    basis set group =>   2
Atom  40O    basis set group =>   4
Atom  41O    basis set group =>   4
---------------------------------
AUXILIARY/C BASIS SET INFORMATION
---------------------------------
There are 4 groups of distinct atoms

 Group   1 Type C   : 13s11p10d2f contracted to 13s11p10d2f pattern {1111111111111/11111111111/1111111111/11}
 Group   2 Type H   : 9s2p contracted to 9s2p pattern {111111111/11}
 Group   3 Type N   : 14s11p10d2f contracted to 14s11p10d2f pattern {11111111111111/11111111111/1111111111/11}
 Group   4 Type O   : 14s11p10d2f contracted to 14s11p10d2f pattern {11111111111111/11111111111/1111111111/11}

Atom   0C    basis set group =>   1
Atom   1C    basis set group =>   1
Atom   2C    basis set group =>   1
Atom   3H    basis set group =>   2
Atom   4N    basis set group =>   3
Atom   5C    basis set group =>   1
Atom   6C    basis set group =>   1
Atom   7H    basis set group =>   2
Atom   8C    basis set group =>   1
Atom   9C    basis set group =>   1
Atom  10H    basis set group =>   2
Atom  11H    basis set group =>   2
Atom  12C    basis set group =>   1
Atom  13H    basis set group =>   2
Atom  14H    basis set group =>   2
Atom  15C    basis set group =>   1
Atom  16H    basis set group =>   2
Atom  17H    basis set group =>   2
Atom  18C    basis set group =>   1
Atom  19H    basis set group =>   2
Atom  20H    basis set group =>   2
Atom  21N    basis set group =>   3
Atom  22C    basis set group =>   1
Atom  23H    basis set group =>   2
Atom  24H    basis set group =>   2
Atom  25C    basis set group =>   1
Atom  26C    basis set group =>   1
Atom  27N    basis set group =>   3
Atom  28C    basis set group =>   1
Atom  29H    basis set group =>   2
Atom  30H    basis set group =>   2
Atom  31H    basis set group =>   2
Atom  32C    basis set group =>   1
Atom  33H    basis set group =>   2
Atom  34H    basis set group =>   2
Atom  35H    basis set group =>   2
Atom  36C    basis set group =>   1
Atom  37H    basis set group =>   2
Atom  38H    basis set group =>   2
Atom  39H    basis set group =>   2
Atom  40O    basis set group =>   4
Atom  41O    basis set group =>   4
----------------------------------
AUXILIARY/JK BASIS SET INFORMATION
----------------------------------
There are 4 groups of distinct atoms

 Group   1 Type C   : 13s11p10d2f contracted to 13s11p10d2f pattern {1111111111111/11111111111/1111111111/11}
 Group   2 Type H   : 9s2p contracted to 9s2p pattern {111111111/11}
 Group   3 Type N   : 14s11p10d2f contracted to 14s11p10d2f pattern {11111111111111/11111111111/1111111111/11}
 Group   4 Type O   : 14s11p10d2f contracted to 14s11p10d2f pattern {11111111111111/11111111111/1111111111/11}

Atom   0C    basis set group =>   1
Atom   1C    basis set group =>   1
Atom   2C    basis set group =>   1
Atom   3H    basis set group =>   2
Atom   4N    basis set group =>   3
Atom   5C    basis set group =>   1
Atom   6C    basis set group =>   1
Atom   7H    basis set group =>   2
Atom   8C    basis set group =>   1
Atom   9C    basis set group =>   1
Atom  10H    basis set group =>   2
Atom  11H    basis set group =>   2
Atom  12C    basis set group =>   1
Atom  13H    basis set group =>   2
Atom  14H    basis set group =>   2
Atom  15C    basis set group =>   1
Atom  16H    basis set group =>   2
Atom  17H    basis set group =>   2
Atom  18C    basis set group =>   1
Atom  19H    basis set group =>   2
Atom  20H    basis set group =>   2
Atom  21N    basis set group =>   3
Atom  22C    basis set group =>   1
Atom  23H    basis set group =>   2
Atom  24H    basis set group =>   2
Atom  25C    basis set group =>   1
Atom  26C    basis set group =>   1
Atom  27N    basis set group =>   3
Atom  28C    basis set group =>   1
Atom  29H    basis set group =>   2
Atom  30H    basis set group =>   2
Atom  31H    basis set group =>   2
Atom  32C    basis set group =>   1
Atom  33H    basis set group =>   2
Atom  34H    basis set group =>   2
Atom  35H    basis set group =>   2
Atom  36C    basis set group =>   1
Atom  37H    basis set group =>   2
Atom  38H    basis set group =>   2
Atom  39H    basis set group =>   2
Atom  40O    basis set group =>   4
Atom  41O    basis set group =>   4


           ************************************************************
           *        Program running with 4 parallel MPI-processes     *
           *              working on a common directory               *
           ************************************************************
------------------------------------------------------------------------------
                           ORCA GTO INTEGRAL CALCULATION
                           -- RI-GTO INTEGRALS CHOSEN --
------------------------------------------------------------------------------
------------------------------------------------------------------------------
                   ___                                                        
                  /   \      - P O W E R E D   B Y -                         
                 /     \                                                     
                 |  |  |   _    _      __       _____    __    __             
                 |  |  |  | |  | |    /  \     |  _  \  |  |  /  |          
                  \  \/   | |  | |   /    \    | | | |  |  | /  /          
                 / \  \   | |__| |  /  /\  \   | |_| |  |  |/  /          
                |  |  |   |  __  | /  /__\  \  |    /   |      \           
                |  |  |   | |  | | |   __   |  |    \   |  |\   \          
                \     /   | |  | | |  |  |  |  | |\  \  |  | \   \       
                 \___/    |_|  |_| |__|  |__|  |_| \__\ |__|  \__/        
                                                                              
                      - O R C A' S   B I G   F R I E N D -                    
                                      &                                       
                       - I N T E G R A L  F E E D E R -                       
                                                                              
 v1 FN, 2020, v2 2021                                                         
------------------------------------------------------------------------------


Reading SHARK input file Nwe_gas.SHARKINP.tmp ... ok
----------------------
SHARK INTEGRAL PACKAGE
----------------------

Number of atoms                             ...     42
Number of basis functions                   ...    336
Number of shells                            ...    168
Maximum angular momentum                    ...      2
Integral batch strategy                     ... SHARK/LIBINT Hybrid
RI-J (if used) integral strategy            ... SPLIT-RIJ (Revised 2003 algorithm where possible)
Printlevel                                  ...      1
Contraction scheme used                     ... SEGMENTED contraction
Coulomb Range Separation                    ... NOT USED
Exchange Range Separation                   ... NOT USED
Finite Nucleus Model                        ... NOT USED
Auxiliary Coulomb fitting basis             ... AVAILABLE
   # of basis functions in Aux-J            ...   2630
   # of shells in Aux-J                     ...    992
   Maximum angular momentum in Aux-J        ...      3
Auxiliary J/K fitting basis                 ... AVAILABLE
   # of basis functions in Aux-JK           ...   2630
   # of shells in Aux-JK                    ...    992
   Maximum angular momentum in Aux-JK       ...      3
Auxiliary Correlation fitting basis         ... AVAILABLE
   # of basis functions in Aux-C            ...   2630
   # of shells in Aux-C                     ...    992
   Maximum angular momentum in Aux-C        ...      3
Auxiliary 'external' fitting basis          ... NOT available
Integral threshold                          ...     2.500000e-11
Primitive cut-off                           ...     2.500000e-12
Primitive pair pre-selection threshold      ...     2.500000e-12

Calculating pre-screening integrals         ... done (  0.1 sec) Dimension = 168
Organizing shell pair data                  ... done (  0.1 sec)
Shell pair information
Total number of shell pairs                 ...     14196
Shell pairs after pre-screening             ...     10443
Total number of primitive shell pairs       ...     80304
Primitive shell pairs kept                  ...     32667
          la=0 lb=0:   3921 shell pairs
          la=1 lb=0:   3489 shell pairs
          la=1 lb=1:    783 shell pairs
          la=2 lb=0:   1440 shell pairs
          la=2 lb=1:    666 shell pairs
          la=2 lb=2:    144 shell pairs

Calculating one electron integrals          ... done (  0.0 sec)
Calculating RI/J V-Matrix + Cholesky decomp.... done (  0.5 sec)
Calculating RI/JK V-Matrix + Cholesky decomp... done (  0.6 sec)
Calculating RI/C V-Matrix + Cholesky decomp.... done (  0.5 sec)
Calculating Nuclear repulsion               ... done (  0.0 sec) ENN=   1691.071669761196 Eh

SHARK setup successfully completed in   1.9 seconds

Maximum memory used throughout the entire GTOINT-calculation: 56.4 MB


           ************************************************************
           *        Program running with 4 parallel MPI-processes     *
           *              working on a common directory               *
           ************************************************************
-------------------------------------------------------------------------------
                                 ORCA SCF
-------------------------------------------------------------------------------

------------
SCF SETTINGS
------------
Hamiltonian:
 Density Functional     Method          .... DFT(GTOs)
 Exchange Functional    Exchange        .... B88
   X-Alpha parameter    XAlpha          ....  0.666667
   Becke's b parameter  XBeta           ....  0.004200
 Correlation Functional Correlation     .... LYP
 LDA part of GGA corr.  LDAOpt          .... VWN-5
 Gradients option       PostSCFGGA      .... off
 Hybrid DFT is turned on
   Fraction HF Exchange ScalHFX         ....  0.200000
   Scaling of DF-GGA-X  ScalDFX         ....  0.720000
   Scaling of DF-GGA-C  ScalDFC         ....  0.810000
   Scaling of DF-LDA-C  ScalLDAC        ....  1.000000
   Perturbative correction              ....  0.000000
   Density functional embedding theory  .... OFF
   NL short-range parameter             ....  4.800000
 RI-approximation to the Coulomb term is turned on
   Number of AuxJ basis functions       .... 2630
   RIJ-COSX (HFX calculated with COS-X)).... on


General Settings:
 Integral files         IntName         .... Nwe_gas
 Hartree-Fock type      HFTyp           .... RHF
 Total Charge           Charge          ....    0
 Multiplicity           Mult            ....    1
 Number of Electrons    NEL             ....  154
 Basis Dimension        Dim             ....  336
 Nuclear Repulsion      ENuc            ....   1691.0716697612 Eh

Convergence Acceleration:
 DIIS                   CNVDIIS         .... on
   Start iteration      DIISMaxIt       ....    12
   Startup error        DIISStart       ....  0.200000
   # of expansion vecs  DIISMaxEq       ....     5
   Bias factor          DIISBfac        ....   1.050
   Max. coefficient     DIISMaxC        ....  10.000
 Trust-Rad. Augm. Hess. CNVTRAH         .... auto
   Auto Start mean grad. ratio tolernc. ....  1.125000
   Auto Start start iteration           ....    20
   Auto Start num. interpolation iter.  ....    10
   Max. Number of Micro iterations      ....    16
   Max. Number of Macro iterations      .... Maxiter - #DIIS iter
   Number of Davidson start vectors     ....     2
   Converg. threshold I  (grad. norm)   ....   1.000e-05
   Converg. threshold II (energy diff.) ....   1.000e-08
   Grad. Scal. Fac. for Micro threshold ....   0.100
   Minimum threshold for Micro iter.    ....   0.010
   NR start threshold (gradient norm)   ....   0.001
   Initial trust radius                 ....   0.400
   Minimum AH scaling param. (alpha)    ....   1.000
   Maximum AH scaling param. (alpha)    .... 1000.000
   Orbital update algorithm             .... Taylor
   White noise on init. David. guess    .... on
   Maximum white noise                  ....   0.010
   Quad. conv. algorithm                .... NR
 SOSCF                  CNVSOSCF        .... on
   Start iteration      SOSCFMaxIt      ....   150
   Startup grad/error   SOSCFStart      ....  0.003300
 Level Shifting         CNVShift        .... on
   Level shift para.    LevelShift      ....    0.2500
   Turn off err/grad.   ShiftErr        ....    0.0010
 Zerner damping         CNVZerner       .... off
 Static damping         CNVDamp         .... on
   Fraction old density DampFac         ....    0.7000
   Max. Damping (<1)    DampMax         ....    0.9800
   Min. Damping (>=0)   DampMin         ....    0.0000
   Turn off err/grad.   DampErr         ....    0.1000
 Fernandez-Rico         CNVRico         .... off

SCF Procedure:
 Maximum # iterations   MaxIter         ....   125
 SCF integral mode      SCFMode         .... Direct
   Integral package                     .... SHARK and LIBINT hybrid scheme
 Reset frequency        DirectResetFreq ....    20
 Integral Threshold     Thresh          ....  2.500e-11 Eh
 Primitive CutOff       TCut            ....  2.500e-12 Eh

Convergence Tolerance:
 Convergence Check Mode ConvCheckMode   .... Total+1el-Energy
 Convergence forced     ConvForced      .... 0
 Energy Change          TolE            ....  1.000e-08 Eh
 1-El. energy change                    ....  1.000e-05 Eh
 Orbital Gradient       TolG            ....  1.000e-05
 Orbital Rotation angle TolX            ....  1.000e-05
 DIIS Error             TolErr          ....  5.000e-07


Diagonalization of the overlap matrix:
Smallest eigenvalue                        ... 3.861e-04
Time for diagonalization                   ...    0.019 sec
Threshold for overlap eigenvalues          ... 1.000e-08
Number of eigenvalues below threshold      ... 0
Time for construction of square roots      ...    0.009 sec
Total time needed                          ...    0.029 sec

Time for model grid setup =    0.468 sec

------------------------------
INITIAL GUESS: MODEL POTENTIAL
------------------------------
Loading Hartree-Fock densities                     ... done
Calculating cut-offs                               ... done
Initializing the effective Hamiltonian             ... done
Setting up the integral package (SHARK)            ... done
Starting the Coulomb interaction                   ... done (   0.4 sec)
Reading the grid                                   ... done
Mapping shells                                     ... done
Starting the XC term evaluation                    ... done (   0.3 sec)
  promolecular density results
     # of electrons  =    153.984174376
     EX              =   -124.698953401
     EC              =     -5.214228899
     EX+EC           =   -129.913182299
Transforming the Hamiltonian                       ... done (   0.0 sec)
Diagonalizing the Hamiltonian                      ... done (   0.0 sec)
Back transforming the eigenvectors                 ... done (   0.0 sec)
Now organizing SCF variables                       ... done
                      ------------------
                      INITIAL GUESS DONE (   1.2 sec)
                      ------------------
-------------------
DFT GRID GENERATION
-------------------

General Integration Accuracy     IntAcc      ... 4.388
Radial Grid Type                 RadialGrid  ... OptM3 with GC (2021)
Angular Grid (max. ang.)         AngularGrid ... 4 (Lebedev-302)
Angular grid pruning method      GridPruning ... 4 (adaptive)
Weight generation scheme         WeightScheme... Becke
Basis function cutoff            BFCut       ... 1.0000e-11
Integration weight cutoff        WCut        ... 1.0000e-14
Angular grids for H and He will be reduced by one unit
Partially contracted basis set               ... off
Rotationally invariant grid construction     ... off

Total number of grid points                  ...   191850
Total number of batches                      ...     3021
Average number of points per batch           ...       63
Average number of grid points per atom       ...     4568
Time for grid setup =    2.732 sec

--------------------
COSX GRID GENERATION
--------------------

GRIDX 1
-------
General Integration Accuracy     IntAcc      ... 3.816
Radial Grid Type                 RadialGrid  ... OptM3 with GC (2021)
Angular Grid (max. ang.)         AngularGrid ... 1 (Lebedev-50)
Angular grid pruning method      GridPruning ... 4 (adaptive)
Weight generation scheme         WeightScheme... Becke
Basis function cutoff            BFCut       ... 1.0000e-11
Integration weight cutoff        WCut        ... 1.0000e-14
Angular grids for H and He will be reduced by one unit
Partially contracted basis set               ... on
Rotationally invariant grid construction     ... off

Total number of grid points                  ...    24382
Total number of batches                      ...      403
Average number of points per batch           ...       60
Average number of grid points per atom       ...      581
UseSFitting                                  ... on

GRIDX 2
-------
General Integration Accuracy     IntAcc      ... 4.020
Radial Grid Type                 RadialGrid  ... OptM3 with GC (2021)
Angular Grid (max. ang.)         AngularGrid ... 2 (Lebedev-110)
Angular grid pruning method      GridPruning ... 4 (adaptive)
Weight generation scheme         WeightScheme... Becke
Basis function cutoff            BFCut       ... 1.0000e-11
Integration weight cutoff        WCut        ... 1.0000e-14
Angular grids for H and He will be reduced by one unit
Partially contracted basis set               ... on
Rotationally invariant grid construction     ... off

Total number of grid points                  ...    52120
Total number of batches                      ...      833
Average number of points per batch           ...       62
Average number of grid points per atom       ...     1241
UseSFitting                                  ... on

GRIDX 3
-------
General Integration Accuracy     IntAcc      ... 4.338
Radial Grid Type                 RadialGrid  ... OptM3 with GC (2021)
Angular Grid (max. ang.)         AngularGrid ... 3 (Lebedev-194)
Angular grid pruning method      GridPruning ... 4 (adaptive)
Weight generation scheme         WeightScheme... Becke
Basis function cutoff            BFCut       ... 1.0000e-11
Integration weight cutoff        WCut        ... 1.0000e-14
Angular grids for H and He will be reduced by one unit
Partially contracted basis set               ... on
Rotationally invariant grid construction     ... off

Total number of grid points                  ...   113532
Total number of batches                      ...     1798
Average number of points per batch           ...       63
Average number of grid points per atom       ...     2703
UseSFitting                                  ... on

Time for X-Grid setup             =    2.397 sec

--------------
SCF ITERATIONS
--------------
ITER       Energy         Delta-E        Max-DP      RMS-DP      [F,P]     Damp
               ***  Starting incremental Fock matrix formation  ***
  0   -935.9239444272   0.000000000000 0.10251028  0.00184865  0.2770168 0.7000
  1   -936.1867159865  -0.262771559333 0.05845828  0.00125796  0.1075802 0.7000
                               ***Turning on DIIS***
  2   -936.2906883008  -0.103972314317 0.06613266  0.00200102  0.0398207 0.0000
  3   -936.4550027800  -0.164314479169 0.03905035  0.00090315  0.0521767 0.0000
  4   -936.4894531682  -0.034450388270 0.01116247  0.00029386  0.0181920 0.0000
  5   -936.4920493379  -0.002596169649 0.00429839  0.00009084  0.0069896 0.0000
                      *** Initiating the SOSCF procedure ***
                           *** Shutting down DIIS ***
                      *** Re-Reading the Fockian *** 
                      *** Removing any level shift *** 
ITER      Energy       Delta-E        Grad      Rot      Max-DP    RMS-DP
  6   -936.49224269  -0.0001933514  0.000293  0.000293  0.001134  0.000027
               *** Restarting incremental Fock matrix formation ***
  7   -936.49225928  -0.0000165874  0.000123  0.000494  0.000797  0.000018
  8   -936.49225826   0.0000010208  0.000313  0.000652  0.000540  0.000009
  9   -936.49226135  -0.0000030936  0.000060  0.000219  0.000212  0.000004
 10   -936.49226114   0.0000002095  0.000074  0.000089  0.000158  0.000002
 11   -936.49226147  -0.0000003295  0.000006  0.000035  0.000042  0.000001
 12   -936.49226148  -0.0000000091  0.000013  0.000024  0.000025  0.000000
 13   -936.49226149  -0.0000000099  0.000003  0.000006  0.000009  0.000000
                  ***Gradient check signals convergence***
              ***Rediagonalizing the Fockian in SOSCF/NRSCF***

               *****************************************************
               *                     SUCCESS                       *
               *           SCF CONVERGED AFTER  14 CYCLES          *
               *****************************************************

Old exchange energy                            =    -25.376953706 Eh
New exchange energy                            =    -25.376975182 Eh
Exchange energy change after final integration =     -0.000021476 Eh
Total energy after final integration           =   -936.492282926 Eh
Final COS-X integration done in                =    19.094 sec

----------------
TOTAL SCF ENERGY
----------------

Total Energy       :         -936.49228293 Eh          -25483.25056 eV

Components:
Nuclear Repulsion  :         1691.07166976 Eh           46016.39956 eV
Electronic Energy  :        -2627.56395269 Eh          -71499.65012 eV
One Electron Energy:        -4632.02117410 Eh         -126043.70409 eV
Two Electron Energy:         2004.45722141 Eh           54544.05396 eV
Max COSX asymmetry :            0.00000243 Eh               0.00007 eV

Virial components:
Potential Energy   :        -1867.52387868 Eh          -50817.90827 eV
Kinetic Energy     :          931.03159576 Eh           25334.65771 eV
Virial Ratio       :            2.00586520


DFT components:
N(Alpha)           :       77.000123491130 electrons
N(Beta)            :       77.000123491130 electrons
N(Total)           :      154.000246982261 electrons
E(X)               :     -100.770381275815 Eh       
E(C)               :       -6.140826444414 Eh       
E(XC)              :     -106.911207720230 Eh       
DFET-embed. en.    :        0.000000000000 Eh       

---------------
SCF CONVERGENCE
---------------

  Last Energy change         ...    3.8796e-08  Tolerance :   1.0000e-08
  Last MAX-Density change    ...    4.4409e-15  Tolerance :   1.0000e-07
  Last RMS-Density change    ...    4.1317e-17  Tolerance :   5.0000e-09
  Last Orbital Gradient      ...    1.9721e-06  Tolerance :   1.0000e-05
  Last Orbital Rotation      ...    2.4742e-06  Tolerance :   1.0000e-05

             **** THE GBW FILE WAS UPDATED (Nwe_gas.gbw) ****
             **** DENSITY Nwe_gas.scfp WAS UPDATED ****
             **** ENERGY FILE WAS UPDATED (Nwe_gas.en.tmp) ****
             **** THE GBW FILE WAS UPDATED (Nwe_gas.gbw) ****
             **** DENSITY Nwe_gas.scfp WAS UPDATED ****
----------------
ORBITAL ENERGIES
----------------

  NO   OCC          E(Eh)            E(eV) 
   0   2.0000     -19.105866      -519.8970 
   1   2.0000     -19.104460      -519.8588 
   2   2.0000     -14.367269      -390.9533 
   3   2.0000     -14.362233      -390.8162 
   4   2.0000     -14.359848      -390.7513 
   5   2.0000     -10.281334      -279.7693 
   6   2.0000     -10.278645      -279.6962 
   7   2.0000     -10.212852      -277.9058 
   8   2.0000     -10.212493      -277.8961 
   9   2.0000     -10.206744      -277.7396 
  10   2.0000     -10.205754      -277.7127 
  11   2.0000     -10.204334      -277.6740 
  12   2.0000     -10.201910      -277.6081 
  13   2.0000     -10.180676      -277.0303 
  14   2.0000     -10.180505      -277.0256 
  15   2.0000     -10.176294      -276.9110 
  16   2.0000     -10.172292      -276.8021 
  17   2.0000     -10.170564      -276.7551 
  18   2.0000     -10.169643      -276.7301 
  19   2.0000     -10.166757      -276.6515 
  20   2.0000     -10.166717      -276.6504 
  21   2.0000      -1.028730       -27.9932 
  22   2.0000      -1.020752       -27.7761 
  23   2.0000      -0.971868       -26.4459 
  24   2.0000      -0.934372       -25.4255 
  25   2.0000      -0.929994       -25.3064 
  26   2.0000      -0.829441       -22.5702 
  27   2.0000      -0.800076       -21.7712 
  28   2.0000      -0.764020       -20.7900 
  29   2.0000      -0.746532       -20.3142 
  30   2.0000      -0.726578       -19.7712 
  31   2.0000      -0.724673       -19.7193 
  32   2.0000      -0.712753       -19.3950 
  33   2.0000      -0.703693       -19.1485 
  34   2.0000      -0.674723       -18.3601 
  35   2.0000      -0.649401       -17.6711 
  36   2.0000      -0.613198       -16.6860 
  37   2.0000      -0.583984       -15.8910 
  38   2.0000      -0.556829       -15.1521 
  39   2.0000      -0.550761       -14.9870 
  40   2.0000      -0.539766       -14.6878 
  41   2.0000      -0.530303       -14.4303 
  42   2.0000      -0.513596       -13.9757 
  43   2.0000      -0.487942       -13.2776 
  44   2.0000      -0.482966       -13.1422 
  45   2.0000      -0.474997       -12.9253 
  46   2.0000      -0.469127       -12.7656 
  47   2.0000      -0.462141       -12.5755 
  48   2.0000      -0.456970       -12.4348 
  49   2.0000      -0.451236       -12.2788 
  50   2.0000      -0.439965       -11.9721 
  51   2.0000      -0.422869       -11.5068 
  52   2.0000      -0.418893       -11.3987 
  53   2.0000      -0.417880       -11.3711 
  54   2.0000      -0.413040       -11.2394 
  55   2.0000      -0.407039       -11.0761 
  56   2.0000      -0.403380       -10.9765 
  57   2.0000      -0.400293       -10.8925 
  58   2.0000      -0.398607       -10.8466 
  59   2.0000      -0.394058       -10.7229 
  60   2.0000      -0.384378       -10.4595 
  61   2.0000      -0.383106       -10.4248 
  62   2.0000      -0.376432       -10.2432 
  63   2.0000      -0.373558       -10.1650 
  64   2.0000      -0.360758        -9.8167 
  65   2.0000      -0.352566        -9.5938 
  66   2.0000      -0.346858        -9.4385 
  67   2.0000      -0.337717        -9.1897 
  68   2.0000      -0.325060        -8.8453 
  69   2.0000      -0.323918        -8.8143 
  70   2.0000      -0.267523        -7.2797 
  71   2.0000      -0.255233        -6.9452 
  72   2.0000      -0.246629        -6.7111 
  73   2.0000      -0.238881        -6.5003 
  74   2.0000      -0.234380        -6.3778 
  75   2.0000      -0.213813        -5.8182 
  76   2.0000      -0.192048        -5.2259 
  77   0.0000      -0.002964        -0.0807 
  78   0.0000       0.013603         0.3702 
  79   0.0000       0.027564         0.7501 
  80   0.0000       0.034828         0.9477 
  81   0.0000       0.062226         1.6933 
  82   0.0000       0.079494         2.1632 
  83   0.0000       0.086489         2.3535 
  84   0.0000       0.088266         2.4018 
  85   0.0000       0.111857         3.0438 
  86   0.0000       0.118294         3.2189 
  87   0.0000       0.130574         3.5531 
  88   0.0000       0.133728         3.6389 
  89   0.0000       0.140761         3.8303 
  90   0.0000       0.149162         4.0589 
  91   0.0000       0.151721         4.1285 
  92   0.0000       0.156730         4.2648 
  93   0.0000       0.160118         4.3570 
  94   0.0000       0.167380         4.5546 
  95   0.0000       0.171847         4.6762 
  96   0.0000       0.175003         4.7621 
  97   0.0000       0.182777         4.9736 
  98   0.0000       0.184024         5.0075 
  99   0.0000       0.186858         5.0847 
 100   0.0000       0.188230         5.1220 
 101   0.0000       0.197814         5.3828 
 102   0.0000       0.202150         5.5008 
 103   0.0000       0.206136         5.6092 
 104   0.0000       0.216931         5.9030 
 105   0.0000       0.223364         6.0781 
 106   0.0000       0.229284         6.2391 
 107   0.0000       0.238850         6.4994 
 108   0.0000       0.243307         6.6207 
 109   0.0000       0.254828         6.9342 
 110   0.0000       0.268112         7.2957 
 111   0.0000       0.273460         7.4412 
 112   0.0000       0.278688         7.5835 
 113   0.0000       0.288045         7.8381 
 114   0.0000       0.295308         8.0357 
 115   0.0000       0.324761         8.8372 
 116   0.0000       0.338352         9.2070 
 117   0.0000       0.350405         9.5350 
 118   0.0000       0.353196         9.6109 
 119   0.0000       0.370026        10.0689 
 120   0.0000       0.383244        10.4286 
 121   0.0000       0.405902        11.0452 
 122   0.0000       0.421330        11.4650 
 123   0.0000       0.443028        12.0554 
 124   0.0000       0.468423        12.7465 
 125   0.0000       0.497771        13.5450 
 126   0.0000       0.504665        13.7326 
 127   0.0000       0.511586        13.9210 
 128   0.0000       0.517413        14.0795 
 129   0.0000       0.520714        14.1693 
 130   0.0000       0.531667        14.4674 
 131   0.0000       0.535033        14.5590 
 132   0.0000       0.538194        14.6450 
 133   0.0000       0.551079        14.9956 
 134   0.0000       0.559837        15.2339 
 135   0.0000       0.567098        15.4315 
 136   0.0000       0.571190        15.5429 
 137   0.0000       0.573890        15.6163 
 138   0.0000       0.586866        15.9694 
 139   0.0000       0.597103        16.2480 
 140   0.0000       0.600321        16.3356 
 141   0.0000       0.603238        16.4149 
 142   0.0000       0.610862        16.6224 
 143   0.0000       0.612764        16.6742 
 144   0.0000       0.620810        16.8931 
 145   0.0000       0.625660        17.0251 
 146   0.0000       0.631250        17.1772 
 147   0.0000       0.635745        17.2995 
 148   0.0000       0.639450        17.4003 
 149   0.0000       0.642618        17.4865 
 150   0.0000       0.649971        17.6866 
 151   0.0000       0.661209        17.9924 
 152   0.0000       0.669439        18.2164 
 153   0.0000       0.671797        18.2805 
 154   0.0000       0.689701        18.7677 
 155   0.0000       0.700135        19.0516 
 156   0.0000       0.704826        19.1793 
 157   0.0000       0.714959        19.4550 
 158   0.0000       0.722398        19.6574 
 159   0.0000       0.740010        20.1367 
 160   0.0000       0.765084        20.8190 
 161   0.0000       0.767235        20.8775 
 162   0.0000       0.778958        21.1965 
 163   0.0000       0.790434        21.5088 
 164   0.0000       0.795612        21.6497 
 165   0.0000       0.812408        22.1067 
 166   0.0000       0.819970        22.3125 
 167   0.0000       0.822050        22.3691 
 168   0.0000       0.825687        22.4681 
 169   0.0000       0.830003        22.5855 
 170   0.0000       0.838033        22.8040 
 171   0.0000       0.843526        22.9535 
 172   0.0000       0.850628        23.1468 
 173   0.0000       0.856691        23.3117 
 174   0.0000       0.867627        23.6093 
 175   0.0000       0.869772        23.6677 
 176   0.0000       0.875938        23.8355 
 177   0.0000       0.878785        23.9130 
 178   0.0000       0.891240        24.2519 
 179   0.0000       0.893213        24.3056 
 180   0.0000       0.903359        24.5817 
 181   0.0000       0.914563        24.8865 
 182   0.0000       0.916800        24.9474 
 183   0.0000       0.925588        25.1865 
 184   0.0000       0.931662        25.3518 
 185   0.0000       0.934236        25.4219 
 186   0.0000       0.937900        25.5216 
 187   0.0000       0.955168        25.9914 
 188   0.0000       0.962579        26.1931 
 189   0.0000       0.972592        26.4656 
 190   0.0000       0.980427        26.6788 
 191   0.0000       0.986367        26.8404 
 192   0.0000       0.994732        27.0680 
 193   0.0000       0.997186        27.1348 
 194   0.0000       1.010813        27.5056 
 195   0.0000       1.018390        27.7118 
 196   0.0000       1.032246        28.0888 
 197   0.0000       1.043270        28.3888 
 198   0.0000       1.050194        28.5772 
 199   0.0000       1.070682        29.1347 
 200   0.0000       1.094930        29.7946 
 201   0.0000       1.103823        30.0365 
 202   0.0000       1.120418        30.4881 
 203   0.0000       1.130571        30.7644 
 204   0.0000       1.141769        31.0691 
 205   0.0000       1.146670        31.2025 
 206   0.0000       1.176395        32.0113 
 207   0.0000       1.192192        32.4412 
 208   0.0000       1.214809        33.0566 
 209   0.0000       1.226220        33.3671 
 210   0.0000       1.242418        33.8079 
 211   0.0000       1.254791        34.1446 
 212   0.0000       1.265880        34.4463 
 213   0.0000       1.287725        35.0408 
 214   0.0000       1.307066        35.5671 
 215   0.0000       1.324564        36.0432 
 216   0.0000       1.342156        36.5219 
 217   0.0000       1.347917        36.6787 
 218   0.0000       1.355704        36.8906 
 219   0.0000       1.375885        37.4397 
 220   0.0000       1.384426        37.6722 
 221   0.0000       1.397883        38.0383 
 222   0.0000       1.408654        38.3314 
 223   0.0000       1.426572        38.8190 
 224   0.0000       1.427956        38.8567 
 225   0.0000       1.431110        38.9425 
 226   0.0000       1.434506        39.0349 
 227   0.0000       1.453303        39.5464 
 228   0.0000       1.472917        40.0801 
 229   0.0000       1.477643        40.2087 
 230   0.0000       1.487103        40.4661 
 231   0.0000       1.500859        40.8405 
 232   0.0000       1.512770        41.1646 
 233   0.0000       1.517183        41.2847 
 234   0.0000       1.528004        41.5791 
 235   0.0000       1.542383        41.9704 
 236   0.0000       1.581890        43.0454 
 237   0.0000       1.630678        44.3730 
 238   0.0000       1.640007        44.6268 
 239   0.0000       1.659185        45.1487 
 240   0.0000       1.679907        45.7126 
 241   0.0000       1.710875        46.5553 
 242   0.0000       1.749640        47.6101 
 243   0.0000       1.756763        47.8040 
 244   0.0000       1.764540        48.0156 
 245   0.0000       1.771970        48.2177 
 246   0.0000       1.808389        49.2088 
 247   0.0000       1.812000        49.3070 
 248   0.0000       1.816160        49.4202 
 249   0.0000       1.822913        49.6040 
 250   0.0000       1.842121        50.1266 
 251   0.0000       1.854999        50.4771 
 252   0.0000       1.865894        50.7736 
 253   0.0000       1.870216        50.8912 
 254   0.0000       1.880487        51.1706 
 255   0.0000       1.895717        51.5851 
 256   0.0000       1.917940        52.1898 
 257   0.0000       1.922937        52.3258 
 258   0.0000       1.927711        52.4557 
 259   0.0000       1.939392        52.7735 
 260   0.0000       1.950598        53.0785 
 261   0.0000       1.951307        53.0978 
 262   0.0000       1.964668        53.4613 
 263   0.0000       1.972330        53.6698 
 264   0.0000       1.983395        53.9709 
 265   0.0000       1.987551        54.0840 
 266   0.0000       1.991984        54.2046 
 267   0.0000       2.013470        54.7893 
 268   0.0000       2.017669        54.9036 
 269   0.0000       2.030271        55.2465 
 270   0.0000       2.046038        55.6755 
 271   0.0000       2.057256        55.9808 
 272   0.0000       2.063739        56.1572 
 273   0.0000       2.074727        56.4562 
 274   0.0000       2.082195        56.6594 
 275   0.0000       2.093542        56.9682 
 276   0.0000       2.103734        57.2455 
 277   0.0000       2.105602        57.2964 
 278   0.0000       2.129409        57.9442 
 279   0.0000       2.154728        58.6331 
 280   0.0000       2.169054        59.0230 
 281   0.0000       2.177462        59.2517 
 282   0.0000       2.198034        59.8116 
 283   0.0000       2.203232        59.9530 
 284   0.0000       2.222977        60.4903 
 285   0.0000       2.223494        60.5043 
 286   0.0000       2.247573        61.1596 
 287   0.0000       2.255382        61.3721 
 288   0.0000       2.260662        61.5157 
 289   0.0000       2.268056        61.7169 
 290   0.0000       2.282736        62.1164 
 291   0.0000       2.284821        62.1731 
 292   0.0000       2.309545        62.8459 
 293   0.0000       2.315840        63.0172 
 294   0.0000       2.332481        63.4700 
 295   0.0000       2.361770        64.2670 
 296   0.0000       2.372742        64.5656 
 297   0.0000       2.375901        64.6515 
 298   0.0000       2.404321        65.4249 
 299   0.0000       2.408223        65.5311 
 300   0.0000       2.412532        65.6483 
 301   0.0000       2.435502        66.2734 
 302   0.0000       2.452498        66.7359 
 303   0.0000       2.489532        67.7436 
 304   0.0000       2.509710        68.2927 
[...]
 14:    120.48   0.001488    7.52  0.003854  ( 0.005742 -0.048458  0.038378)
 15:    129.12   0.000962    4.86  0.002325  ( 0.018841 -0.036104  0.025813)
 16:    152.00   0.000438    2.21  0.000899  ( 0.010834 -0.027816  0.002872)
 17:    165.68   0.000165    0.83  0.000311  (-0.002070  0.012033  0.012732)
 18:    185.43   0.000241    1.22  0.000405  (-0.005955 -0.006202  0.018197)
 19:    217.93   0.000462    2.33  0.000662  ( 0.011734 -0.019384  0.012171)
 20:    228.19   0.001389    7.02  0.001899  ( 0.015484  0.007238 -0.040090)
 21:    244.96   0.000096    0.48  0.000122  (-0.007708  0.000043  0.007920)
 22:    254.84   0.000544    2.75  0.000666  ( 0.011151 -0.017728 -0.015089)
 23:    282.95   0.001732    8.75  0.001910  ( 0.034128 -0.027268 -0.001414)
 24:    336.21   0.004704   23.77  0.004366  ( 0.001166 -0.027773  0.059943)
 25:    354.15   0.001009    5.10  0.000889  ( 0.015857  0.018016 -0.017703)
 26:    372.68   0.002317   11.71  0.001940  (-0.000457  0.004160 -0.043850)
 27:    383.39   0.000740    3.74  0.000603  (-0.004762  0.015935 -0.018056)
 28:    425.63   0.009802   49.54  0.007187  (-0.006063 -0.032577  0.078030)
 29:    432.79   0.003447   17.42  0.002485  ( 0.007569  0.017829 -0.045935)
 30:    434.46   0.000004    0.02  0.000003  (-0.000600 -0.001596  0.000093)
 31:    462.82   0.003323   16.79  0.002241  ( 0.046717  0.006793 -0.003455)
 32:    473.32   0.000127    0.64  0.000084  ( 0.005120  0.007541  0.000918)
 33:    484.70   0.003055   15.44  0.001967  ( 0.026660 -0.027924 -0.021827)
 34:    552.48   0.000784    3.96  0.000443  ( 0.014391  0.014634  0.004657)
 35:    576.25   0.002160   10.92  0.001170  ( 0.020095  0.025889 -0.009785)
 36:    588.05   0.000402    2.03  0.000213  ( 0.011748  0.002163 -0.008401)
 37:    589.86   0.001727    8.73  0.000914  ( 0.017147 -0.002122  0.024804)
 38:    597.41   0.002654   13.41  0.001386  ( 0.003302  0.025088 -0.027311)
 39:    626.66   0.000849    4.29  0.000423  (-0.002918 -0.006198 -0.019381)
 40:    653.99   0.000676    3.42  0.000323  ( 0.007510  0.005489  0.015364)
 41:    698.22   0.000598    3.02  0.000267  ( 0.014933 -0.001079  0.006573)
 42:    743.70   0.000754    3.81  0.000316  ( 0.014051 -0.006875 -0.008469)
 43:    753.31   0.010275   51.92  0.004256  (-0.005624 -0.021747  0.061252)
 44:    760.31   0.001589    8.03  0.000652  ( 0.010605 -0.021884  0.007799)
 45:    775.90   0.000029    0.15  0.000012  (-0.001828  0.002262 -0.001765)
 46:    785.19   0.001318    6.66  0.000524  (-0.000056  0.012544 -0.019146)
 47:    805.00   0.000700    3.54  0.000272  (-0.011278 -0.000951 -0.011975)
 48:    829.64   0.001526    7.71  0.000574  ( 0.023750  0.002135 -0.002343)
 49:    851.33   0.001871    9.45  0.000686  (-0.005249  0.011097 -0.023131)
 50:    858.03   0.000098    0.50  0.000036  ( 0.003809 -0.002521  0.003849)
 51:    890.99   0.000138    0.70  0.000048  (-0.006515 -0.002403 -0.000114)
 52:    918.10   0.000132    0.67  0.000045  ( 0.001275  0.002105 -0.006233)
 53:    960.91   0.000161    0.81  0.000052  ( 0.004279 -0.002747  0.005128)
 54:    962.90   0.000015    0.07  0.000005  ( 0.000277 -0.001298  0.001737)
 55:   1002.30   0.002975   15.03  0.000926  (-0.024925  0.000015 -0.017462)
 56:   1010.94   0.003372   17.04  0.001041  (-0.006621 -0.024277  0.020192)
 57:   1024.28   0.002394   12.10  0.000729  ( 0.007706  0.000701 -0.025875)
 58:   1026.70   0.004666   23.58  0.001418  ( 0.009422  0.036456  0.000591)
 59:   1043.72   0.001587    8.02  0.000475  ( 0.015183 -0.014395 -0.006068)
 60:   1064.26   0.000779    3.94  0.000228  ( 0.000915  0.005098 -0.014200)
 61:   1078.86   0.002246   11.35  0.000650  ( 0.020397 -0.001180  0.015236)
 62:   1095.41   0.001159    5.86  0.000330  (-0.010265 -0.014986 -0.000559)
 63:   1108.36   0.002542   12.85  0.000716  ( 0.012038  0.004543  0.023454)
 64:   1118.97   0.007125   36.00  0.001987  (-0.022919 -0.035027 -0.015321)
 65:   1141.22   0.000120    0.61  0.000033  ( 0.000513 -0.005670 -0.000651)
 66:   1158.51   0.000762    3.85  0.000205  (-0.004079 -0.011242  0.007890)
 67:   1168.54   0.009011   45.54  0.002407  ( 0.038583 -0.014592  0.026552)
 68:   1186.94   0.001338    6.76  0.000352  ( 0.015692  0.003181  0.009771)
 69:   1190.03   0.000635    3.21  0.000166  ( 0.010924 -0.005625  0.003929)
 70:   1221.08   0.005858   29.61  0.001497  ( 0.000905  0.016344  0.035060)
 71:   1250.99   0.011066   55.92  0.002760  ( 0.032774  0.040566  0.006375)
 72:   1261.37   0.001424    7.20  0.000352  (-0.017939 -0.005464 -0.000795)
 73:   1284.10   0.002382   12.04  0.000579  (-0.017789  0.013647  0.008733)
 74:   1289.37   0.005963   30.13  0.001443  (-0.002801 -0.026699  0.026878)
 75:   1299.56   0.016426   83.01  0.003944  ( 0.002082  0.061868  0.010597)
 76:   1326.35   0.000904    4.57  0.000213  (-0.001556 -0.014485  0.000686)
 77:   1337.77   0.002121   10.72  0.000495  (-0.004890 -0.020895 -0.005845)
 78:   1348.48   0.000443    2.24  0.000103  (-0.008777  0.002599  0.004339)
 79:   1375.87   0.000124    0.63  0.000028  (-0.005005  0.001498 -0.000873)
 80:   1389.48   0.007618   38.50  0.001711  (-0.041093  0.004507 -0.001398)
 81:   1402.81   0.001546    7.81  0.000344  ( 0.010801 -0.012763 -0.008020)
 82:   1411.33   0.005703   28.82  0.001261  ( 0.028926  0.020578 -0.000972)
 83:   1419.63   0.003195   16.15  0.000702  ( 0.007149  0.022582  0.011886)
 84:   1448.48   0.007347   37.13  0.001583  ( 0.018097 -0.014395  0.032376)
 85:   1461.55   0.018314   92.55  0.003910  (-0.013504  0.051469 -0.032847)
 86:   1472.22   0.005269   26.63  0.001117  (-0.033398  0.001085 -0.000612)
 87:   1474.71   0.021046  106.36  0.004454  (-0.031210 -0.055124 -0.020996)
 88:   1495.28   0.005309   26.83  0.001108  ( 0.029040  0.016202  0.001467)
 89:   1500.91   0.001204    6.09  0.000250  (-0.002675  0.010932 -0.011123)
 90:   1501.26   0.004653   23.52  0.000967  ( 0.015466 -0.023583 -0.013111)
 91:   1515.19   0.000985    4.98  0.000203  (-0.001589 -0.002272 -0.013972)
 92:   1518.56   0.003170   16.02  0.000651  (-0.006661  0.024470  0.002876)
 93:   1520.80   0.000809    4.09  0.000166  ( 0.006991  0.003183 -0.010349)
 94:   1525.62   0.000014    0.07  0.000003  (-0.000143 -0.001666 -0.000209)
 95:   1535.16   0.005187   26.21  0.001054  (-0.007995  0.023303  0.021151)
 96:   1539.31   0.005364   27.11  0.001087  (-0.032232 -0.000611 -0.006944)
 97:   1542.25   0.000545    2.75  0.000110  ( 0.008868 -0.005313 -0.001829)
 98:   1544.61   0.001163    5.88  0.000235  ( 0.002271 -0.005489 -0.014131)
 99:   1570.09   0.008546   43.19  0.001698  (-0.004677  0.021714 -0.034714)
100:   1604.13   0.000803    4.06  0.000156  (-0.007974 -0.009627  0.000133)
101:   1635.50   0.000255    1.29  0.000049  (-0.005488  0.004222  0.000835)
102:   1681.75   0.000497    2.51  0.000092  ( 0.003572 -0.008850 -0.001050)
103:   1739.51   0.049892  252.14  0.008951  ( 0.057850  0.028044  0.069408)
104:   1745.59   0.082480  416.82  0.014745  (-0.111264 -0.039846 -0.027889)
105:   3022.55   0.005048   25.51  0.000521  ( 0.014332  0.010078  0.014635)
106:   3030.57   0.014913   75.36  0.001536  (-0.004010  0.013056 -0.036730)
107:   3055.19   0.004521   22.85  0.000462  (-0.011422 -0.010233 -0.015055)
108:   3061.81   0.000903    4.57  0.000092  (-0.005922  0.006108  0.004438)
109:   3072.06   0.009987   50.47  0.001014  (-0.029300  0.012488  0.000152)
110:   3081.81   0.003210   16.22  0.000325  ( 0.008123 -0.008761 -0.013500)
111:   3083.92   0.007516   37.98  0.000761  ( 0.023537 -0.014366  0.000433)
112:   3086.22   0.004255   21.50  0.000430  (-0.009290  0.003750 -0.018163)
113:   3112.95   0.003105   15.69  0.000311  (-0.014463  0.007002 -0.007284)
114:   3124.16   0.002120   10.71  0.000212  ( 0.004393  0.004388 -0.013160)
115:   3138.01   0.003281   16.58  0.000326  (-0.005574  0.017085  0.001828)
116:   3170.08   0.000244    1.23  0.000024  (-0.002715  0.003697 -0.001736)
117:   3175.67   0.002989   15.11  0.000294  ( 0.014313  0.008694  0.003641)
118:   3175.92   0.000380    1.92  0.000037  (-0.003552 -0.004759 -0.001430)
119:   3183.36   0.000363    1.84  0.000036  (-0.004734  0.003544  0.000799)
120:   3187.77   0.002386   12.06  0.000234  (-0.005664  0.013734 -0.003586)
121:   3190.92   0.000156    0.79  0.000015  (-0.003280 -0.001760 -0.001162)
122:   3194.33   0.007745   39.14  0.000757  ( 0.014089  0.021936  0.008769)
123:   3207.64   0.006066   30.65  0.000590  (-0.021373  0.011205  0.002791)
124:   3270.28   0.000408    2.06  0.000039  ( 0.005540 -0.002484 -0.001426)
125:   3670.58   0.012168   61.49  0.001035  (-0.008813 -0.029084 -0.010535)

* The epsilon (eps) is given for a Dirac delta lineshape.
** The dipole moment derivative (T) already includes vibrational overlap.

The first frequency considered to be a vibration is 6
The total number of vibrations considered is 120


--------------------------
THERMOCHEMISTRY AT 298.15K
--------------------------

Temperature         ... 298.15 K
Pressure            ... 1.00 atm
Total Mass          ... 287.36 AMU

Throughout the following assumptions are being made:
  (1) The electronic state is orbitally nondegenerate
  (2) There are no thermally accessible electronically excited states
  (3) Hindered rotations indicated by low frequency modes are not
      treated as such but are treated as vibrations and this may
      cause some error
  (4) All equations used are the standard statistical mechanics
      equations for an ideal gas
  (5) All vibrations are strictly harmonic

freq.      17.26  E(vib)   ...       0.57 
freq.      25.27  E(vib)   ...       0.56 
freq.      31.55  E(vib)   ...       0.55 
freq.      52.16  E(vib)   ...       0.52 
freq.      74.34  E(vib)   ...       0.49 
freq.      78.56  E(vib)   ...       0.49 
freq.      99.54  E(vib)   ...       0.46 
freq.     110.09  E(vib)   ...       0.45 
freq.     120.48  E(vib)   ...       0.44 
freq.     129.12  E(vib)   ...       0.43 
freq.     152.00  E(vib)   ...       0.40 
freq.     165.68  E(vib)   ...       0.39 
freq.     185.43  E(vib)   ...       0.37 
freq.     217.93  E(vib)   ...       0.33 
freq.     228.19  E(vib)   ...       0.32 
freq.     244.96  E(vib)   ...       0.31 
freq.     254.84  E(vib)   ...       0.30 
freq.     282.95  E(vib)   ...       0.28 
freq.     336.21  E(vib)   ...       0.24 
freq.     354.15  E(vib)   ...       0.22 
freq.     372.68  E(vib)   ...       0.21 
freq.     383.39  E(vib)   ...       0.20 
freq.     425.63  E(vib)   ...       0.18 
freq.     432.79  E(vib)   ...       0.17 
freq.     434.46  E(vib)   ...       0.17 
freq.     462.82  E(vib)   ...       0.16 
freq.     473.32  E(vib)   ...       0.15 
freq.     484.70  E(vib)   ...       0.15 
freq.     552.48  E(vib)   ...       0.12 
freq.     576.25  E(vib)   ...       0.11 
freq.     588.05  E(vib)   ...       0.10 
freq.     589.86  E(vib)   ...       0.10 
freq.     597.41  E(vib)   ...       0.10 
freq.     626.66  E(vib)   ...       0.09 
freq.     653.99  E(vib)   ...       0.08 
freq.     698.22  E(vib)   ...       0.07 
freq.     743.70  E(vib)   ...       0.06 
freq.     753.31  E(vib)   ...       0.06 
freq.     760.31  E(vib)   ...       0.06 
freq.     775.90  E(vib)   ...       0.05 
freq.     785.19  E(vib)   ...       0.05 
freq.     805.00  E(vib)   ...       0.05 
freq.     829.64  E(vib)   ...       0.04 
freq.     851.33  E(vib)   ...       0.04 
freq.     858.03  E(vib)   ...       0.04 
freq.     890.99  E(vib)   ...       0.04 
freq.     918.10  E(vib)   ...       0.03 
freq.     960.91  E(vib)   ...       0.03 
freq.     962.90  E(vib)   ...       0.03 
freq.    1002.30  E(vib)   ...       0.02 
freq.    1010.94  E(vib)   ...       0.02 
freq.    1024.28  E(vib)   ...       0.02 
freq.    1026.70  E(vib)   ...       0.02 
freq.    1043.72  E(vib)   ...       0.02 
freq.    1064.26  E(vib)   ...       0.02 
freq.    1078.86  E(vib)   ...       0.02 
freq.    1095.41  E(vib)   ...       0.02 
freq.    1108.36  E(vib)   ...       0.02 
freq.    1118.97  E(vib)   ...       0.01 
freq.    1141.22  E(vib)   ...       0.01 
freq.    1158.51  E(vib)   ...       0.01 
freq.    1168.54  E(vib)   ...       0.01 
freq.    1186.94  E(vib)   ...       0.01 
freq.    1190.03  E(vib)   ...       0.01 
freq.    1221.08  E(vib)   ...       0.01 
freq.    1250.99  E(vib)   ...       0.01 
freq.    1261.37  E(vib)   ...       0.01 
freq.    1284.10  E(vib)   ...       0.01 
freq.    1289.37  E(vib)   ...       0.01 
freq.    1299.56  E(vib)   ...       0.01 
freq.    1326.35  E(vib)   ...       0.01 
freq.    1337.77  E(vib)   ...       0.01 
freq.    1348.48  E(vib)   ...       0.01 
freq.    1375.87  E(vib)   ...       0.01 
freq.    1389.48  E(vib)   ...       0.00 
freq.    1402.81  E(vib)   ...       0.00 
freq.    1411.33  E(vib)   ...       0.00 
freq.    1419.63  E(vib)   ...       0.00 
freq.    1448.48  E(vib)   ...       0.00 
freq.    1461.55  E(vib)   ...       0.00 
freq.    1472.22  E(vib)   ...       0.00 
freq.    1474.71  E(vib)   ...       0.00 
freq.    1495.28  E(vib)   ...       0.00 
freq.    1500.91  E(vib)   ...       0.00 
freq.    1501.26  E(vib)   ...       0.00 
freq.    1515.19  E(vib)   ...       0.00 
freq.    1518.56  E(vib)   ...       0.00 
freq.    1520.80  E(vib)   ...       0.00 
freq.    1525.62  E(vib)   ...       0.00 
freq.    1535.16  E(vib)   ...       0.00 
freq.    1539.31  E(vib)   ...       0.00 
freq.    1542.25  E(vib)   ...       0.00 
freq.    1544.61  E(vib)   ...       0.00 
freq.    1570.09  E(vib)   ...       0.00 
freq.    1604.13  E(vib)   ...       0.00 
freq.    1635.50  E(vib)   ...       0.00 
freq.    1681.75  E(vib)   ...       0.00 
freq.    1739.51  E(vib)   ...       0.00 
freq.    1745.59  E(vib)   ...       0.00 
freq.    3022.55  E(vib)   ...       0.00 
freq.    3030.57  E(vib)   ...       0.00 
freq.    3055.19  E(vib)   ...       0.00 
freq.    3061.81  E(vib)   ...       0.00 
freq.    3072.06  E(vib)   ...       0.00 
freq.    3081.81  E(vib)   ...       0.00 
freq.    3083.92  E(vib)   ...       0.00 
freq.    3086.22  E(vib)   ...       0.00 
freq.    3112.95  E(vib)   ...       0.00 
freq.    3124.16  E(vib)   ...       0.00 
freq.    3138.01  E(vib)   ...       0.00 
freq.    3170.08  E(vib)   ...       0.00 
freq.    3175.67  E(vib)   ...       0.00 
freq.    3175.92  E(vib)   ...       0.00 
freq.    3183.36  E(vib)   ...       0.00 
freq.    3187.77  E(vib)   ...       0.00 
freq.    3190.92  E(vib)   ...       0.00 
freq.    3194.33  E(vib)   ...       0.00 
freq.    3207.64  E(vib)   ...       0.00 
freq.    3270.28  E(vib)   ...       0.00 
freq.    3670.58  E(vib)   ...       0.00 

------------
INNER ENERGY
------------

The inner energy is: U= E(el) + E(ZPE) + E(vib) + E(rot) + E(trans)
    E(el)   - is the total energy from the electronic structure calculation
              = E(kin-el) + E(nuc-el) + E(el-el) + E(nuc-nuc)
    E(ZPE)  - the the zero temperature vibrational energy from the frequency calculation
    E(vib)  - the the finite temperature correction to E(ZPE) due to population
              of excited vibrational states
    E(rot)  - is the rotational thermal energy
    E(trans)- is the translational thermal energy

Summary of contributions to the inner energy U:
Electronic energy                ...   -936.57737599 Eh
Zero point energy                ...      0.35610996 Eh     223.46 kcal/mol
Thermal vibrational correction   ...      0.01795150 Eh      11.26 kcal/mol
Thermal rotational correction    ...      0.00141627 Eh       0.89 kcal/mol
Thermal translational correction ...      0.00141627 Eh       0.89 kcal/mol
-----------------------------------------------------------------------
Total thermal energy                   -936.20048200 Eh


Summary of corrections to the electronic energy:
(perhaps to be used in another calculation)
Total thermal correction                  0.02078404 Eh      13.04 kcal/mol
Non-thermal (ZPE) correction              0.35610996 Eh     223.46 kcal/mol
-----------------------------------------------------------------------
Total correction                          0.37689400 Eh     236.50 kcal/mol


--------
ENTHALPY
--------

The enthalpy is H = U + kB*T
                kB is Boltzmann's constant
Total free energy                 ...   -936.20048200 Eh 
Thermal Enthalpy correction       ...      0.00094421 Eh       0.59 kcal/mol
-----------------------------------------------------------------------
Total Enthalpy                    ...   -936.19953779 Eh


Note: Only C1 symmetry has been detected, increase convergence thresholds 
      if your molecule has a higher symmetry. Symmetry factor of 1.0 is   
      used for the rotational entropy correction. 
 

Note: Rotational entropy computed according to Herzberg 
Infrared and Raman Spectra, Chapter V,1, Van Nostrand Reinhold, 1945 
Point Group:  C1, Symmetry Number:   1  
Rotational constants in cm-1:     0.017388     0.005873     0.004818 

Vibrational entropy computed according to the QRRHO of S. Grimme
Chem.Eur.J. 2012 18 9955


-------
ENTROPY
-------

The entropy contributions are T*S = T*(S(el)+S(vib)+S(rot)+S(trans))
     S(el)   - electronic entropy
     S(vib)  - vibrational entropy
     S(rot)  - rotational entropy
     S(trans)- translational entropy
The entropies will be listed as multiplied by the temperature to get
units of energy

Electronic entropy                ...      0.00000000 Eh      0.00 kcal/mol
Vibrational entropy               ...      0.03235504 Eh     20.30 kcal/mol
Rotational entropy                ...      0.01636787 Eh     10.27 kcal/mol
Translational entropy             ...      0.02036622 Eh     12.78 kcal/mol
-----------------------------------------------------------------------
Final entropy term                ...      0.06908913 Eh     43.35 kcal/mol

In case the symmetry of your molecule has not been determined correctly
or in case you have a reason to use a different symmetry number we print 
out the resulting rotational entropy values for sn=1,12 :
 --------------------------------------------------------
|  sn= 1 | S(rot)=       0.01636787 Eh     10.27 kcal/mol|
|  sn= 2 | S(rot)=       0.01571341 Eh      9.86 kcal/mol|
|  sn= 3 | S(rot)=       0.01533058 Eh      9.62 kcal/mol|
|  sn= 4 | S(rot)=       0.01505895 Eh      9.45 kcal/mol|
|  sn= 5 | S(rot)=       0.01484826 Eh      9.32 kcal/mol|
|  sn= 6 | S(rot)=       0.01467612 Eh      9.21 kcal/mol|
|  sn= 7 | S(rot)=       0.01453057 Eh      9.12 kcal/mol|
|  sn= 8 | S(rot)=       0.01440450 Eh      9.04 kcal/mol|
|  sn= 9 | S(rot)=       0.01429329 Eh      8.97 kcal/mol|
|  sn=10 | S(rot)=       0.01419381 Eh      8.91 kcal/mol|
|  sn=11 | S(rot)=       0.01410382 Eh      8.85 kcal/mol|
|  sn=12 | S(rot)=       0.01402166 Eh      8.80 kcal/mol|
 --------------------------------------------------------


-------------------
GIBBS FREE ENERGY
-------------------

The Gibbs free energy is G = H - T*S

Total enthalpy                    ...   -936.19953779 Eh 
Total entropy correction          ...     -0.06908913 Eh    -43.35 kcal/mol
-----------------------------------------------------------------------
Final Gibbs free energy         ...   -936.26862692 Eh

For completeness - the Gibbs free energy minus the electronic energy
G-E(el)                           ...      0.30874908 Eh    193.74 kcal/mol


Timings for individual modules:

Sum of individual times         ...     3258.919 sec (=  54.315 min)
GTO integral calculation        ...       32.429 sec (=   0.540 min)   1.0 %
SCF iterations                  ...     1616.965 sec (=  26.949 min)  49.6 %
SCF Gradient evaluation         ...      510.962 sec (=   8.516 min)  15.7 %
Geometry relaxation             ...        1.801 sec (=   0.030 min)   0.1 %
Analytical frequency calculation...     1096.762 sec (=  18.279 min)  33.7 %
                             ****ORCA TERMINATED NORMALLY****
TOTAL RUN TIME: 0 days 0 hours 54 minutes 26 seconds 311 msec
