
                                 *****************
                                 * O   R   C   A *
                                 *****************

                                            #,                                       
                                            ###                                      
                                            ####                                     
                                            #####                                    
                                            ######                                   
                                           ########,                                 
                                     ,,################,,,,,                         
                               ,,#################################,,                 
                          ,,##########################################,,             
                       ,#########################################, ''#####,          
                    ,#############################################,,   '####,        
                  ,##################################################,,,,####,       
                ,###########''''           ''''###############################       
              ,#####''   ,,,,##########,,,,          '''####'''          '####       
            ,##' ,,,,###########################,,,                        '##       
           ' ,,###''''                  '''############,,,                           
         ,,##''                                '''############,,,,        ,,,,,,###''
      ,#''                                            '''#######################'''  
     '                                                          ''''####''''         
             ,#######,   #######,   ,#######,      ##                                
            ,#'     '#,  ##    ##  ,#'     '#,    #''#        ######   ,####,        
            ##       ##  ##   ,#'  ##            #'  '#       #        #'  '#        
            ##       ##  #######   ##           ,######,      #####,   #    #        
            '#,     ,#'  ##    ##  '#,     ,#' ,#      #,         ##   #,  ,#        
             '#######'   ##     ##  '#######'  #'      '#     #####' # '####'        



                  #######################################################
                  #                        -***-                        #
                  #          Department of theory and spectroscopy      #
                  #    Directorship and core code : Frank Neese         #
                  #        Max Planck Institute fuer Kohlenforschung    #
                  #                Kaiser Wilhelm Platz 1               #
                  #                 D-45470 Muelheim/Ruhr               #
                  #                      Germany                        #
                  #                                                     #
                  #                  All rights reserved                #
                  #                        -***-                        #
                  #######################################################


                         Program Version 5.0.4 -  RELEASE  -


 With contributions from (in alphabetic order):
   Daniel Aravena         : Magnetic Suceptibility
   Michael Atanasov       : Ab Initio Ligand Field Theory (pilot matlab implementation)
   Alexander A. Auer      : GIAO ZORA, VPT2 properties, NMR spectrum
   Ute Becker             : Parallelization
   Giovanni Bistoni       : ED, misc. LED, open-shell LED, HFLD
   Martin Brehm           : Molecular dynamics
   Dmytro Bykov           : SCF Hessian
   Vijay G. Chilkuri      : MRCI spin determinant printing, contributions to CSF-ICE
   Dipayan Datta          : RHF DLPNO-CCSD density
   Achintya Kumar Dutta   : EOM-CC, STEOM-CC
   Dmitry Ganyushin       : Spin-Orbit,Spin-Spin,Magnetic field MRCI
   Miquel Garcia          : C-PCM and meta-GGA Hessian, CC/C-PCM, Gaussian charge scheme
   Yang Guo               : DLPNO-NEVPT2, F12-NEVPT2, CIM, IAO-localization
   Andreas Hansen         : Spin unrestricted coupled pair/coupled cluster methods
   Benjamin Helmich-Paris : MC-RPA, TRAH-SCF, COSX integrals
   Lee Huntington         : MR-EOM, pCC
   Robert Izsak           : Overlap fitted RIJCOSX, COSX-SCS-MP3, EOM
   Marcus Kettner         : VPT2
   Christian Kollmar      : KDIIS, OOCD, Brueckner-CCSD(T), CCSD density, CASPT2, CASPT2-K
   Simone Kossmann        : Meta GGA functionals, TD-DFT gradient, OOMP2, MP2 Hessian
   Martin Krupicka        : Initial AUTO-CI
   Lucas Lang             : DCDCAS
   Marvin Lechner         : AUTO-CI (C++ implementation), FIC-MRCC
   Dagmar Lenk            : GEPOL surface, SMD
   Dimitrios Liakos       : Extrapolation schemes; Compound Job, initial MDCI parallelization
   Dimitrios Manganas     : Further ROCIS development; embedding schemes
   Dimitrios Pantazis     : SARC Basis sets
   Anastasios Papadopoulos: AUTO-CI, single reference methods and gradients
   Taras Petrenko         : DFT Hessian,TD-DFT gradient, ASA, ECA, R-Raman, ABS, FL, XAS/XES, NRVS
   Peter Pinski           : DLPNO-MP2, DLPNO-MP2 Gradient
   Christoph Reimann      : Effective Core Potentials
   Marius Retegan         : Local ZFS, SOC
   Christoph Riplinger    : Optimizer, TS searches, QM/MM, DLPNO-CCSD(T), (RO)-DLPNO pert. Triples
   Tobias Risthaus        : Range-separated hybrids, TD-DFT gradient, RPA, STAB
   Michael Roemelt        : Original ROCIS implementation
   Masaaki Saitow         : Open-shell DLPNO-CCSD energy and density
   Barbara Sandhoefer     : DKH picture change effects
   Avijit Sen             : IP-ROCIS
   Kantharuban Sivalingam : CASSCF convergence, NEVPT2, FIC-MRCI
   Bernardo de Souza      : ESD, SOC TD-DFT
   Georgi Stoychev        : AutoAux, RI-MP2 NMR, DLPNO-MP2 response
   Willem Van den Heuvel  : Paramagnetic NMR
   Boris Wezisla          : Elementary symmetry handling
   Frank Wennmohs         : Technical directorship


 We gratefully acknowledge several colleagues who have allowed us to
 interface, adapt or use parts of their codes:
   Stefan Grimme, W. Hujo, H. Kruse, P. Pracht,  : VdW corrections, initial TS optimization,
                  C. Bannwarth, S. Ehlert          DFT functionals, gCP, sTDA/sTD-DF
   Ed Valeev, F. Pavosevic, A. Kumar             : LibInt (2-el integral package), F12 methods
   Garnet Chan, S. Sharma, J. Yang, R. Olivares  : DMRG
   Ulf Ekstrom                                   : XCFun DFT Library
   Mihaly Kallay                                 : mrcc  (arbitrary order and MRCC methods)
   Jiri Pittner, Ondrej Demel                    : Mk-CCSD
   Frank Weinhold                                : gennbo (NPA and NBO analysis)
   Christopher J. Cramer and Donald G. Truhlar   : smd solvation model
   Lars Goerigk                                  : TD-DFT with DH, B97 family of functionals
   V. Asgeirsson, H. Jonsson                     : NEB implementation
   FAccTs GmbH                                   : IRC, NEB, NEB-TS, DLPNO-Multilevel, CI-OPT
                                                   MM, QMMM, 2- and 3-layer-ONIOM, Crystal-QMMM,
                                                   LR-CPCM, SF, NACMEs, symmetry and pop. for TD-DFT,
                                                   nearIR, NL-DFT gradient (VV10), updates on ESD,
                                                   ML-optimized integration grids
   S Lehtola, MJT Oliveira, MAL Marques          : LibXC Library
   Liviu Ungur et al                             : ANISO software


 Your calculation uses the libint2 library for the computation of 2-el integrals
 For citations please refer to: http://libint.valeyev.net

 Your ORCA version has been built with support for libXC version: 5.1.0
 For citations please refer to: https://tddft.org/programs/libxc/

 This ORCA versions uses:
   CBLAS   interface :  Fast vector & matrix operations
   LAPACKE interface :  Fast linear algebra routines
   SCALAPACK package :  Parallel linear algebra routines
   Shared memory     :  Shared parallel matrices
   BLAS/LAPACK       :  OpenBLAS 0.3.15  USE64BITINT DYNAMIC_ARCH NO_AFFINITY SkylakeX SINGLE_THREADED
        Core in use  :  SkylakeX
   Copyright (c) 2011-2014, The OpenBLAS Project




***************************************
The coordinates will be read from file: /users/fjb15167/WWenergy/structures/Nwe.xyz
***************************************


Your calculation utilizes the atom-pairwise dispersion correction
based on tight binding partial charges (D4)
Cite in your paper:
E.Caldeweyher, C.Bannwarth, S.Grimme, J.Chem.Phys., (2017), 147, 034112.
E.Caldeweyher, S.Ehlert, A.Hansen, H.Neugebauer, S.Grimme, J.Chem.Phys., (2018), in progress.
   

================================================================================

----- Orbital basis set information -----
Your calculation utilizes the basis: 6-31G(d)
   H-He, Li-Ne : W. J. Hehre, R. Ditchfield and J.A. Pople, J. Chem. Phys. 56, 2257 (1972).
                 Note: He and Ne are unpublished basis sets taken from the Gaussian program.
                 Note: Li and B from J. D. Dill and J. A. Pople, J. Chem. Phys. 62, 2921 (1975).
   Na - Ar     : M. M. Francl, W. J. Pietro, W. J. Hehre, J. S. Binkley, M. S. Gordon, 
                 D. J. DeFrees and J. A. Pople, J. Chem. Phys. 77, 3654 (1982).
   K - Zn      : V. A. Rassolov, J. A. Pople, M. A. Ratner, and T. L. Windus, J. Chem. Phys. 109, 1223 (1998).

----- AuxJ basis set information -----
Your calculation utilizes the AutoAux generation procedure.
  G. L. Stoychev, A. A. Auer, F. Neese, J. Chem. Theory Comput. 13, 554 (2017)

----- AuxC basis set information -----
Your calculation utilizes the AutoAux generation procedure.
  G. L. Stoychev, A. A. Auer, F. Neese, J. Chem. Theory Comput. 13, 554 (2017)

----- AuxJK basis set information -----
Your calculation utilizes the AutoAux generation procedure.
  G. L. Stoychev, A. A. Auer, F. Neese, J. Chem. Theory Comput. 13, 554 (2017)

================================================================================
                                        WARNINGS
                       Please study these warnings very carefully!
================================================================================


WARNING: Geometry Optimization
  ===> : Switching off AutoStart
         For restart on a previous wavefunction, please use MOREAD

INFO   : the flag for use of the SHARK integral package has been found!

================================================================================
                                       INPUT FILE
================================================================================
NAME = Nwe_octanol.inp
|  1> ! OPT FREQ B3LYP 6-31G(d) D4 AUTOAUX
|  2> ! CPCM
|  3> 
|  4> %cpcm
|  5> epsilon 9.8629 
|  6> refrac  1.4295 
|  7> end
|  8> 
|  9> %PAL NPROCS 4 END
| 10> 
| 11> %maxcore 3375
| 12> 
| 13> *xyzfile 0 1 /users/fjb15167/WWenergy/structures/Nwe.xyz
| 14> 
| 15>                          ****END OF INPUT****
================================================================================

                       *****************************
                       * Geometry Optimization Run *
                       *****************************

Geometry optimization settings:
Update method            Update   .... BFGS
Choice of coordinates    CoordSys .... Z-matrix Internals
Initial Hessian          InHess   .... Almoef's Model

Convergence Tolerances:
Energy Change            TolE     ....  5.0000e-06 Eh
Max. Gradient            TolMAXG  ....  3.0000e-04 Eh/bohr
RMS Gradient             TolRMSG  ....  1.0000e-04 Eh/bohr
Max. Displacement        TolMAXD  ....  4.0000e-03 bohr
RMS Displacement         TolRMSD  ....  2.0000e-03 bohr
Strict Convergence                ....  False
------------------------------------------------------------------------------
                        ORCA OPTIMIZATION COORDINATE SETUP
------------------------------------------------------------------------------

The optimization will be done in new redundant internal coordinates
Making redundant internal coordinates   ...  (new redundants) done
Evaluating the initial hessian          ...  (Almloef) done
Evaluating the coordinates              ...  done
Calculating the B-matrix                .... done
Calculating the G-matrix                .... done
Diagonalizing the G-matrix              .... done
Small eigenvalue found = 2.351e-03
Small eigenvalue found = 4.564e-03
Small eigenvalue found = 4.876e-03
Small eigenvalue found = 9.912e-03
Small eigenvalue found = 1.490e-02
Small eigenvalue found = 1.864e-02
Small eigenvalue found = 2.179e-02
The first mode is                       ....   97
The number of degrees of freedom        ....  120

    -----------------------------------------------------------------
                    Redundant Internal Coordinates


    -----------------------------------------------------------------
         Definition                    Initial Value    Approx d2E/dq
    -----------------------------------------------------------------
      1. B(C   1,C   0)                  1.3800         0.648105   
      2. B(C   2,C   0)                  1.4324         0.534616   
      3. B(H   3,C   1)                  1.0848         0.367035   
      4. B(N   4,C   1)                  1.3780         0.584818   
      5. B(C   5,N   4)                  1.3767         0.587529   
      6. B(C   5,C   2)                  1.4236         0.552162   
      7. B(C   6,C   2)                  1.4078         0.585346   
      8. B(H   7,N   4)                  1.0112         0.430883   
      9. B(C   8,C   5)                  1.4011         0.599809   
     10. B(C   9,C   6)                  1.3879         0.629600   
     11. B(H  10,C   6)                  1.0893         0.361026   
     12. B(H  11,C   8)                  1.0884         0.362260   
     13. B(C  12,C   9)                  1.4130         0.574251   
     14. B(C  12,C   8)                  1.3895         0.626050   
     15. B(H  13,C   9)                  1.0873         0.363669   
     16. B(H  14,C  12)                  1.0869         0.364211   
     17. B(C  15,C   0)                  1.4947         0.425255   
     18. B(H  16,C  15)                  1.0964         0.351678   
     19. B(H  17,C  15)                  1.0934         0.355625   
     20. B(C  18,C  15)                  1.5383         0.362391   
     21. B(H  19,C  18)                  1.0935         0.355509   
     22. B(H  20,C  18)                  1.0939         0.354920   
     23. B(N  21,C  18)                  1.4622         0.429237   
     24. B(C  22,N  21)                  1.4604         0.432080   
     25. B(H  23,C  22)                  1.0957         0.352585   
     26. B(H  24,C  22)                  1.0902         0.359796   
     27. B(C  25,N  21)                  1.3725         0.596827   
     28. B(C  26,C  22)                  1.5247         0.380878   
     29. B(N  27,C  26)                  1.3642         0.615170   
     30. B(C  28,C  25)                  1.5150         0.394760   
     31. B(H  29,C  28)                  1.0946         0.354051   
     32. B(H  30,C  28)                  1.0928         0.356445   
     33. B(H  31,C  28)                  1.0892         0.361185   
     34. B(C  32,N  27)                  1.4553         0.440322   
     35. B(H  33,C  32)                  1.0977         0.350104   
     36. B(H  34,C  32)                  1.0879         0.362950   
     37. B(H  35,C  32)                  1.0935         0.355488   
     38. B(C  36,N  27)                  1.4559         0.439197   
     39. B(H  37,C  36)                  1.0974         0.350499   
     40. B(H  38,C  36)                  1.0947         0.353914   
     41. B(H  39,C  36)                  1.0879         0.362862   
     42. B(O  40,C  25)                  1.2399         0.971162   
     43. B(O  41,C  26)                  1.2427         0.961448   
     44. A(C   1,C   0,C   2)          106.6959         0.426051   
     45. A(C   2,C   0,C  15)          127.9901         0.395391   
     46. A(C   1,C   0,C  15)          125.0938         0.409036   
     47. A(C   0,C   1,H   3)          128.9263         0.356724   
     48. A(H   3,C   1,N   4)          121.6265         0.348417   
     49. A(C   0,C   1,N   4)          109.4414         0.430137   
     50. A(C   5,C   2,C   6)          118.8230         0.420786   
     51. A(C   0,C   2,C   5)          107.2268         0.414048   
     52. A(C   0,C   2,C   6)          133.9262         0.418370   
     53. A(C   5,N   4,H   7)          125.2949         0.355150   
     54. A(C   1,N   4,H   7)          125.0967         0.354872   
     55. A(C   1,N   4,C   5)          109.6026         0.419899   
     56. A(N   4,C   5,C   8)          130.5114         0.424561   
     57. A(C   2,C   5,C   8)          122.4696         0.422624   
     58. A(C   2,C   5,N   4)          107.0160         0.418333   
     59. A(C   9,C   6,H  10)          120.3873         0.353982   
     60. A(C   2,C   6,C   9)          118.8904         0.430790   
     61. A(C   2,C   6,H  10)          120.7171         0.349647   
     62. A(C   5,C   8,C  12)          117.2477         0.432243   
     63. A(H  11,C   8,C  12)          121.1723         0.353848   
     64. A(C   5,C   8,H  11)          121.5786         0.351293   
     65. A(C  12,C   9,H  13)          119.0305         0.348949   
     66. A(C   6,C   9,H  13)          119.6896         0.354420   
     67. A(C   6,C   9,C  12)          121.2758         0.429312   
     68. A(C   9,C  12,H  14)          119.3813         0.349037   
     69. A(C   8,C  12,H  14)          119.3337         0.354170   
     70. A(C   8,C  12,C   9)          121.2838         0.428877   
     71. A(C   0,C  15,C  18)          110.9167         0.369580   
     72. A(H  16,C  15,H  17)          106.6673         0.289194   
     73. A(C   0,C  15,H  17)          109.5782         0.330637   
     74. A(C   0,C  15,H  16)          110.5771         0.330028   
     75. A(H  17,C  15,C  18)          108.8512         0.322045   
     76. A(H  16,C  15,C  18)          110.1411         0.321457   
     77. A(H  19,C  18,N  21)          106.8421         0.329137   
     78. A(C  15,C  18,N  21)          113.5995         0.367859   
     79. A(C  15,C  18,H  20)          110.3168         0.321940   
     80. A(C  15,C  18,H  19)          108.3424         0.322028   
     81. A(H  20,C  18,N  21)          110.3050         0.329047   
     82. A(H  19,C  18,H  20)          107.1546         0.289595   
     83. A(C  22,N  21,C  25)          119.2770         0.399088   
     84. A(C  18,N  21,C  25)          124.9307         0.398625   
     85. A(C  18,N  21,C  22)          115.7503         0.376796   
     86. A(H  24,C  22,C  26)          113.7359         0.325307   
     87. A(H  23,C  22,C  26)          105.4553         0.324227   
     88. A(N  21,C  22,C  26)          111.0710         0.371438   
     89. A(H  23,C  22,H  24)          109.0210         0.289840   
     90. A(N  21,C  22,H  24)          107.9351         0.330150   
     91. A(N  21,C  22,H  23)          109.5526         0.329047   
     92. A(N  21,C  25,C  28)          116.8541         0.395333   
     93. A(N  21,C  25,O  40)          122.0592         0.461473   
     94. A(C  28,C  25,O  40)          121.0818         0.431020   
     95. A(C  22,C  26,N  27)          118.0907         0.394950   
     96. A(N  27,C  26,O  41)          122.5413         0.463181   
     97. A(C  22,C  26,O  41)          119.3525         0.427489   
     98. A(C  26,N  27,C  32)          118.0288         0.402558   
     99. A(C  32,N  27,C  36)          115.4428         0.379534   
    100. A(C  26,N  27,C  36)          124.9219         0.402377   
    101. A(H  30,C  28,H  31)          109.5003         0.290511   
    102. A(H  29,C  28,H  31)          108.9827         0.290204   
    103. A(C  25,C  28,H  31)          107.2336         0.327437   
    104. A(H  29,C  28,H  30)          107.9693         0.289603   
    105. A(C  25,C  28,H  30)          112.3772         0.326726   
    106. A(C  25,C  28,H  29)          110.7333         0.326363   
    107. A(H  34,C  32,H  35)          110.1719         0.290611   
    108. A(H  33,C  32,H  35)          108.7616         0.288973   
    109. A(N  27,C  32,H  35)          109.0271         0.330524   
    110. A(H  33,C  32,H  34)          109.2058         0.289916   
    111. A(N  27,C  32,H  34)          108.6848         0.331662   
    112. A(N  27,C  32,H  33)          110.9848         0.329691   
    113. A(H  38,C  36,H  39)          108.8193         0.290397   
    114. A(H  37,C  36,H  39)          108.4868         0.289956   
    115. A(N  27,C  36,H  39)          111.9353         0.331508   
    116. A(H  37,C  36,H  38)          108.2715         0.288823   
    117. A(N  27,C  36,H  38)          108.9380         0.330142   
    118. A(N  27,C  36,H  37)          110.3097         0.329613   
    119. D(N   4,C   1,C   0,C   2)     -1.0273         0.029234   
    120. D(H   3,C   1,C   0,C  15)      3.1266         0.029234   
    121. D(N   4,C   1,C   0,C  15)   -175.9924         0.029234   
    122. D(H   3,C   1,C   0,C   2)    178.0917         0.029234   
    123. D(C   6,C   2,C   0,C   1)    179.4678         0.019518   
    124. D(C   5,C   2,C   0,C  15)    176.1160         0.019518   
    125. D(C   6,C   2,C   0,C  15)     -5.7600         0.019518   
    126. D(C   5,C   2,C   0,C   1)      1.3438         0.019518   
    127. D(H   7,N   4,C   1,H   3)      1.9506         0.027461   
    128. D(C   5,N   4,C   1,C   0)      0.3074         0.027461   
    129. D(C   5,N   4,C   1,H   3)   -178.8877         0.027461   
    130. D(H   7,N   4,C   1,C   0)   -178.8543         0.027461   
    131. D(C   8,C   5,C   2,C   0)    179.4131         0.020862   
    132. D(N   4,C   5,C   2,C   0)     -1.1649         0.020862   
    133. D(N   4,C   5,C   2,C   6)   -179.6228         0.020862   
    134. D(C   8,C   5,N   4,H   7)     -0.9309         0.027734   
    135. D(C   2,C   5,N   4,H   7)    179.7104         0.027734   
    136. D(C   8,C   5,N   4,C   1)    179.9094         0.027734   
    137. D(C   2,C   5,N   4,C   1)      0.5507         0.027734   
    138. D(C   8,C   5,C   2,C   6)      0.9552         0.020862   
    139. D(H  10,C   6,C   2,C   0)      1.8013         0.023560   
    140. D(H  10,C   6,C   2,C   5)    179.7560         0.023560   
    141. D(C   9,C   6,C   2,C   5)     -1.0712         0.023560   
    142. D(C   9,C   6,C   2,C   0)   -179.0259         0.023560   
    143. D(C  12,C   8,C   5,N   4)   -179.8702         0.024801   
    144. D(H  11,C   8,C   5,N   4)      0.5549         0.024801   
    145. D(H  11,C   8,C   5,C   2)    179.8280         0.024801   
    146. D(C  12,C   8,C   5,C   2)     -0.5971         0.024801   
    147. D(H  13,C   9,C   6,C   2)   -179.8599         0.027482   
    148. D(C  12,C   9,C   6,H  10)   -179.9325         0.027482   
    149. D(C  12,C   9,C   6,C   2)      0.8918         0.027482   
    150. D(H  13,C   9,C   6,H  10)     -0.6843         0.027482   
    151. D(H  14,C  12,C   9,H  13)      0.5831         0.022636   
    152. D(C   8,C  12,C   9,H  13)   -179.8034         0.022636   
    153. D(C   8,C  12,C   9,C   6)     -0.5503         0.022636   
    154. D(H  14,C  12,C   8,H  11)     -0.4287         0.027154   
    155. D(H  14,C  12,C   8,C   5)    179.9946         0.027154   
    156. D(H  14,C  12,C   9,C   6)    179.8362         0.022636   
    157. D(C   9,C  12,C   8,H  11)    179.9577         0.027154   
    158. D(C   9,C  12,C   8,C   5)      0.3809         0.027154   
    159. D(C  18,C  15,C   0,C   2)    -89.2322         0.013363   
    160. D(C  18,C  15,C   0,C   1)     84.6448         0.013363   
    161. D(H  17,C  15,C   0,C   2)    150.5651         0.013363   
    162. D(H  17,C  15,C   0,C   1)    -35.5579         0.013363   
    163. D(H  16,C  15,C   0,C   2)     33.2632         0.013363   
    164. D(H  16,C  15,C   0,C   1)   -152.8598         0.013363   
    165. D(N  21,C  18,C  15,H  16)     74.0839         0.010527   
    166. D(N  21,C  18,C  15,C   0)   -163.1679         0.010527   
    167. D(H  20,C  18,C  15,H  17)   -166.9750         0.010527   
    168. D(H  20,C  18,C  15,H  16)    -50.3575         0.010527   
    169. D(H  20,C  18,C  15,C   0)     72.3907         0.010527   
    170. D(H  19,C  18,C  15,H  17)     76.0177         0.010527   
    171. D(H  19,C  18,C  15,H  16)   -167.3648         0.010527   
    172. D(N  21,C  18,C  15,H  17)    -42.5336         0.010527   
    173. D(H  19,C  18,C  15,C   0)    -44.6167         0.010527   
    174. D(C  25,N  21,C  18,H  20)     36.0640         0.015708   
    175. D(C  25,N  21,C  18,H  19)    152.2060         0.015708   
    176. D(C  25,N  21,C  18,C  15)    -88.3838         0.015708   
    177. D(C  22,N  21,C  18,H  20)   -141.5501         0.015708   
    178. D(C  22,N  21,C  18,H  19)    -25.4080         0.015708   
    179. D(C  22,N  21,C  18,C  15)     94.0021         0.015708   
    180. D(H  23,C  22,N  21,C  25)   -117.6610         0.015917   
    181. D(H  23,C  22,N  21,C  18)     60.0965         0.015917   
    182. D(C  26,C  22,N  21,C  25)    126.2420         0.015917   
    183. D(C  26,C  22,N  21,C  18)    -56.0005         0.015917   
    184. D(H  24,C  22,N  21,C  25)      0.9249         0.015917   
    185. D(H  24,C  22,N  21,C  18)    178.6824         0.015917   
    186. D(O  40,C  25,N  21,C  22)     -4.7139         0.028680   
    187. D(O  40,C  25,N  21,C  18)    177.7498         0.028680   
    188. D(C  28,C  25,N  21,C  22)    174.4862         0.028680   
    189. D(C  28,C  25,N  21,C  18)     -3.0501         0.028680   
    190. D(O  41,C  26,C  22,H  24)   -138.9736         0.010822   
    191. D(O  41,C  26,C  22,H  23)    -19.5697         0.010822   
    192. D(O  41,C  26,C  22,N  21)     99.0265         0.010822   
    193. D(N  27,C  26,C  22,H  24)     42.4187         0.010822   
    194. D(N  27,C  26,C  22,H  23)    161.8226         0.010822   
    195. D(N  27,C  26,C  22,N  21)    -79.5812         0.010822   
    196. D(C  36,N  27,C  26,O  41)   -168.1451         0.030607   
    197. D(C  36,N  27,C  26,C  22)     10.4153         0.030607   
    198. D(C  32,N  27,C  26,O  41)     -3.2926         0.030607   
    199. D(C  32,N  27,C  26,C  22)    175.2678         0.030607   
    200. D(H  31,C  28,C  25,O  40)     -7.3768         0.011579   
    201. D(H  31,C  28,C  25,N  21)    173.4147         0.011579   
    202. D(H  30,C  28,C  25,O  40)   -127.7529         0.011579   
    203. D(H  30,C  28,C  25,N  21)     53.0387         0.011579   
    204. D(H  29,C  28,C  25,O  40)    111.4115         0.011579   
    205. D(H  29,C  28,C  25,N  21)    -67.7969         0.011579   
    206. D(H  35,C  32,N  27,C  36)    -50.1209         0.016533   
    207. D(H  35,C  32,N  27,C  26)    143.6042         0.016533   
    208. D(H  34,C  32,N  27,C  36)   -170.2326         0.016533   
    209. D(H  34,C  32,N  27,C  26)     23.4925         0.016533   
    210. D(H  33,C  32,N  27,C  36)     69.6583         0.016533   
    211. D(H  33,C  32,N  27,C  26)    -96.6165         0.016533   
    212. D(H  39,C  36,N  27,C  32)    176.8305         0.016448   
    213. D(H  39,C  36,N  27,C  26)    -17.9686         0.016448   
    214. D(H  38,C  36,N  27,C  32)     56.4434         0.016448   
    215. D(H  38,C  36,N  27,C  26)   -138.3557         0.016448   
    216. D(H  37,C  36,N  27,C  32)    -62.2697         0.016448   
    217. D(H  37,C  36,N  27,C  26)    102.9313         0.016448   
    -----------------------------------------------------------------

Number of atoms                         .... 42
Number of degrees of freedom            .... 217

         *************************************************************
         *                GEOMETRY OPTIMIZATION CYCLE   1            *
         *************************************************************
---------------------------------
CARTESIAN COORDINATES (ANGSTROEM)
---------------------------------
  C     -1.391000   -0.487000    0.168000
  C     -1.574000   -1.759000   -0.335000
  C     -2.689000    0.113000    0.252000
  H     -0.830000   -2.513000   -0.569000
  N     -2.918000   -1.981000   -0.543000
  C     -3.632000   -0.859000   -0.187000
  C     -3.159000    1.367000    0.686000
  H     -3.318000   -2.842000   -0.891000
  C     -5.010000   -0.608000   -0.222000
  C     -4.523000    1.621000    0.650000
  H     -2.465000    2.132000    1.032000
  H     -5.718000   -1.361000   -0.563000
  C     -5.440000    0.642000    0.206000
  H     -4.900000    2.586000    0.980000
  H     -6.502000    0.873000    0.193000
  C     -0.065000    0.147000    0.440000
  H     -0.152000    0.896000    1.236000
  H      0.637000   -0.611000    0.798000
  C      0.507000    0.792000   -0.834000
  H      0.372000    0.093000   -1.664000
  H     -0.050000    1.700000   -1.083000
  N      1.938000    1.081000   -0.752000
  C      2.825000    0.050000   -1.284000
  H      2.607000   -0.109000   -2.346000
  H      3.851000    0.404000   -1.181000
  C      2.478000    2.245000   -0.265000
  C      2.569000   -1.294000   -0.611000
  N      3.108000   -1.507000    0.624000
  C      1.505000    3.328000    0.154000
  H      0.980000    3.735000   -0.716000
  H      0.755000    2.963000    0.860000
  H      2.087000    4.122000    0.620000
  C      2.777000   -2.747000    1.310000
  H      1.950000   -2.597000    2.016000
  H      2.485000   -3.488000    0.569000
  H      3.654000   -3.093000    1.864000
  C      3.730000   -0.482000    1.450000
  H      3.047000   -0.172000    2.251000
  H      4.633000   -0.896000    1.910000
  H      4.003000    0.397000    0.870000
  O      3.703000    2.418000   -0.182000
  O      1.863000   -2.139000   -1.187000

----------------------------
CARTESIAN COORDINATES (A.U.)
----------------------------
  NO LB      ZA    FRAG     MASS         X           Y           Z
   0 C     6.0000    0    12.011   -2.628609   -0.920297    0.317474
   1 C     6.0000    0    12.011   -2.974429   -3.324028   -0.633058
   2 C     6.0000    0    12.011   -5.081474    0.213539    0.476211
   3 H     1.0000    0     1.008   -1.568473   -4.748882   -1.075254
   4 N     7.0000    0    14.007   -5.514221   -3.743547   -1.026121
   5 C     6.0000    0    12.011   -6.863485   -1.623275   -0.353379
   6 C     6.0000    0    12.011   -5.969645    2.583256    1.296352
   7 H     1.0000    0     1.008   -6.270111   -5.370602   -1.683746
   8 C     6.0000    0    12.011   -9.467528   -1.148953   -0.419519
   9 C     6.0000    0    12.011   -8.547231    3.063246    1.228322
  10 H     1.0000    0     1.008   -4.658175    4.028896    1.950197
  11 H     1.0000    0     1.008  -10.805454   -2.571917   -1.063916
  12 C     6.0000    0    12.011  -10.280110    1.213204    0.389284
  13 H     1.0000    0     1.008   -9.259658    4.886832    1.851932
  14 H     1.0000    0     1.008  -12.286999    1.649731    0.364717
  15 C     6.0000    0    12.011   -0.122832    0.277790    0.831479
  16 H     1.0000    0     1.008   -0.287238    1.693195    2.335702
  17 H     1.0000    0     1.008    1.203756   -1.154623    1.508001
  18 C     6.0000    0    12.011    0.958091    1.496663   -1.576032
  19 H     1.0000    0     1.008    0.702978    0.175745   -3.144504
  20 H     1.0000    0     1.008   -0.094486    3.212534   -2.046573
  21 N     7.0000    0    14.007    3.662289    2.042794   -1.421074
  22 C     6.0000    0    12.011    5.338476    0.094486   -2.426408
  23 H     1.0000    0     1.008    4.926516   -0.205980   -4.433298
  24 H     1.0000    0     1.008    7.277335    0.763449   -2.231767
  25 C     6.0000    0    12.011    4.682741    4.242435   -0.500777
  26 C     6.0000    0    12.011    4.854706   -2.445306   -1.154623
  27 N     7.0000    0    14.007    5.873269   -2.847817    1.179189
  28 C     6.0000    0    12.011    2.844038    6.289009    0.291018
  29 H     1.0000    0     1.008    1.851932    7.058127   -1.353044
  30 H     1.0000    0     1.008    1.426743    5.599259    1.625164
  31 H     1.0000    0     1.008    3.943858    7.789451    1.171630
  32 C     6.0000    0    12.011    5.247769   -5.191078    2.475541
  33 H     1.0000    0     1.008    3.684966   -4.907619    3.809688
  34 H     1.0000    0     1.008    4.695969   -6.591365    1.075254
  35 H     1.0000    0     1.008    6.905059   -5.844923    3.522450
  36 C     6.0000    0    12.011    7.048678   -0.910848    2.740103
  37 H     1.0000    0     1.008    5.757996   -0.325033    4.253774
  38 H     1.0000    0     1.008    8.755101   -1.693195    3.609377
  39 H     1.0000    0     1.008    7.564574    0.750221    1.644062
  40 O     8.0000    0    15.999    6.997656    4.569358   -0.343930
  41 O     8.0000    0    15.999    3.520560   -4.042124   -2.243105

--------------------------------
INTERNAL COORDINATES (ANGSTROEM)
--------------------------------
 C      0   0   0     0.000000000000     0.00000000     0.00000000
 C      1   0   0     1.380029709825     0.00000000     0.00000000
 C      1   2   0     1.432431499235   106.69589345     0.00000000
 H      2   1   3     1.084807817081   128.92632557   178.09168946
 N      2   1   3     1.378000000000   109.44138716   358.97269835
 C      5   2   1     1.376741079506   109.60263909     0.30742616
 C      3   1   2     1.407754239915   133.92615865   179.46776291
 H      5   2   1     1.011150335015   125.09666852   181.14565464
 C      6   5   2     1.401110274033   130.51135818   179.90936318
 C      7   3   1     1.387914982987   118.89042058   180.97410611
 H      7   3   1     1.089301152115   120.71706183     1.80126918
 H      9   6   5     1.088372178990   121.57858376     0.55488301
 C      9   6   5     1.389454569247   117.24770399   180.12980705
 H     10   7   3     1.087315041743   119.68955014   180.14010660
 H     13   9   6     1.086910299887   119.33370030   179.99458379
 C      1   2   3     1.494729406950   125.09381616   185.03493042
 H     16   1   2     1.096442428949   110.57714796   207.14018700
 H     16   1   2     1.093403859514   109.57816109   324.44205188
 C     16   1   2     1.538273382725   110.91668378    84.64481852
 H     19  16   1     1.093492569705   108.34238519   315.38333789
 H     19  16   1     1.093944239895   110.31683764    72.39068729
 N     19  16   1     1.462192189830   113.59953876   196.83207737
 C     22  19  16     1.460395152005   115.75026774    94.00212718
 H     23  22  19     1.095741301585   109.55258418    60.09654824
 H     23  22  19     1.090229792292   107.93514077   178.68236924
 C     22  19  16     1.372466757339   124.93070388   271.61616886
 C     23  22  19     1.524729812131   111.07099435   303.99948733
 N     27  23  22     1.364226887288   118.09068978   280.41883111
 C     26  22  19     1.514984818406   116.85405478   356.94992398
 H     29  26  22     1.094611346552   110.73330962   292.20306502
 H     29  26  22     1.092776738405   112.37723082    53.03866123
 H     29  26  22     1.089181343946   107.23359461   173.41474394
 C     28  27  23     1.455251524651   118.02884188   175.26780171
 H     33  28  27     1.097663427468   110.98480557   263.38345847
 H     33  28  27     1.087853850478   108.68484165    23.49247966
 H     33  28  27     1.093508573355   109.02706243   143.60421382
 C     28  27  23     1.455948144681   124.92187693    10.41531812
 H     37  28  27     1.097355913093   110.30968300   102.93128067
 H     37  28  27     1.094716858370   108.93799733   221.64432573
 H     37  28  27     1.087920033826   111.93528976   342.03144125
 O     26  22  19     1.239936691932   122.05922482   177.74983510
 O     27  23  22     1.242673327951   119.35254575    99.02653855

---------------------------
INTERNAL COORDINATES (A.U.)
---------------------------
 C      0   0   0     0.000000000000     0.00000000     0.00000000
 C      1   0   0     2.607878208244     0.00000000     0.00000000
 C      1   2   0     2.706903239156   106.69589345     0.00000000
 H      2   1   3     2.049989682220   128.92632557   178.09168946
 N      2   1   3     2.604042612543   109.44138716   358.97269835
 C      5   2   1     2.601663597586   109.60263909     0.30742616
 C      3   1   2     2.660269977307   133.92615865   179.46776291
 H      5   2   1     1.910797213400   125.09666852   181.14565464
 C      6   5   2     2.647714701345   130.51135818   179.90936318
 C      7   3   1     2.622779215012   118.89042058   180.97410611
 H      7   3   1     2.058480854863   120.71706183     1.80126918
 H      9   6   5     2.056725350071   121.57858376     0.55488301
 C      9   6   5     2.625688611401   117.24770399   180.12980705
 H     10   7   3     2.054727650187   119.68955014   180.14010660
 H     13   9   6     2.053962798924   119.33370030   179.99458379
 C      1   2   3     2.824629223453   125.09381616   185.03493042
 H     16   1   2     2.071975912325   110.57714796   207.14018700
 H     16   1   2     2.066233848254   109.57816109   324.44205188
 C     16   1   2     2.906915412451   110.91668378    84.64481852
 H     19  16   1     2.066401486220   108.34238519   315.38333789
 H     19  16   1     2.067255019183   110.31683764    72.39068729
 N     19  16   1     2.763142793937   113.59953876   196.83207737
 C     22  19  16     2.759746884596   115.75026774    94.00212718
 H     23  22  19     2.070650973623   109.55258418    60.09654824
 H     23  22  19     2.060235730473   107.93514077   178.68236924
 C     22  19  16     2.593586299281   124.93070388   271.61616886
 C     23  22  19     2.881321773152   111.07099435   303.99948733
 N     27  23  22     2.578015201507   118.09068978   280.41883111
 C     26  22  19     2.862906403835   116.85405478   356.94992398
 H     29  26  22     2.068515668066   110.73330962   292.20306502
 H     29  26  22     2.065048761106   112.37723082    53.03866123
 H     29  26  22     2.058254450234   107.23359461   173.41474394
 C     28  27  23     2.750026837562   118.02884188   175.26780171
 H     33  28  27     2.074283265135   110.98480557   263.38345847
 H     33  28  27     2.055745851135   108.68484165    23.49247966
 H     33  28  27     2.066431728735   109.02706243   143.60421382
 C     28  27  23     2.751343258638   124.92187693    10.41531812
 H     37  28  27     2.073702147185   110.30968300   102.93128067
 H     37  28  27     2.068715056506   108.93799733   221.64432573
 H     37  28  27     2.055870919538   111.93528976   342.03144125
 O     26  22  19     2.343140771152   122.05922482   177.74983510
 O     27  23  22     2.348312263755   119.35254575    99.02653855

---------------------
BASIS SET INFORMATION
---------------------
There are 4 groups of distinct atoms

 Group   1 Type C   : 10s4p1d contracted to 3s2p1d pattern {631/31/1}
 Group   2 Type H   : 4s contracted to 2s pattern {31}
 Group   3 Type N   : 10s4p1d contracted to 3s2p1d pattern {631/31/1}
 Group   4 Type O   : 10s4p1d contracted to 3s2p1d pattern {631/31/1}

Atom   0C    basis set group =>   1
Atom   1C    basis set group =>   1
Atom   2C    basis set group =>   1
Atom   3H    basis set group =>   2
Atom   4N    basis set group =>   3
Atom   5C    basis set group =>   1
Atom   6C    basis set group =>   1
Atom   7H    basis set group =>   2
Atom   8C    basis set group =>   1
Atom   9C    basis set group =>   1
Atom  10H    basis set group =>   2
Atom  11H    basis set group =>   2
Atom  12C    basis set group =>   1
Atom  13H    basis set group =>   2
Atom  14H    basis set group =>   2
Atom  15C    basis set group =>   1
Atom  16H    basis set group =>   2
Atom  17H    basis set group =>   2
Atom  18C    basis set group =>   1
Atom  19H    basis set group =>   2
Atom  20H    basis set group =>   2
Atom  21N    basis set group =>   3
Atom  22C    basis set group =>   1
Atom  23H    basis set group =>   2
Atom  24H    basis set group =>   2
Atom  25C    basis set group =>   1
Atom  26C    basis set group =>   1
Atom  27N    basis set group =>   3
Atom  28C    basis set group =>   1
Atom  29H    basis set group =>   2
Atom  30H    basis set group =>   2
Atom  31H    basis set group =>   2
Atom  32C    basis set group =>   1
Atom  33H    basis set group =>   2
Atom  34H    basis set group =>   2
Atom  35H    basis set group =>   2
Atom  36C    basis set group =>   1
Atom  37H    basis set group =>   2
Atom  38H    basis set group =>   2
Atom  39H    basis set group =>   2
Atom  40O    basis set group =>   4
Atom  41O    basis set group =>   4
---------------------------------
AUXILIARY/J BASIS SET INFORMATION
---------------------------------
There are 4 groups of distinct atoms

 Group   1 Type C   : 13s11p10d2f contracted to 13s11p10d2f pattern {1111111111111/11111111111/1111111111/11}
 Group   2 Type H   : 9s2p contracted to 9s2p pattern {111111111/11}
 Group   3 Type N   : 14s11p10d2f contracted to 14s11p10d2f pattern {11111111111111/11111111111/1111111111/11}
 Group   4 Type O   : 14s11p10d2f contracted to 14s11p10d2f pattern {11111111111111/11111111111/1111111111/11}

Atom   0C    basis set group =>   1
Atom   1C    basis set group =>   1
Atom   2C    basis set group =>   1
Atom   3H    basis set group =>   2
Atom   4N    basis set group =>   3
Atom   5C    basis set group =>   1
Atom   6C    basis set group =>   1
Atom   7H    basis set group =>   2
Atom   8C    basis set group =>   1
Atom   9C    basis set group =>   1
Atom  10H    basis set group =>   2
Atom  11H    basis set group =>   2
Atom  12C    basis set group =>   1
Atom  13H    basis set group =>   2
Atom  14H    basis set group =>   2
Atom  15C    basis set group =>   1
Atom  16H    basis set group =>   2
Atom  17H    basis set group =>   2
Atom  18C    basis set group =>   1
Atom  19H    basis set group =>   2
Atom  20H    basis set group =>   2
Atom  21N    basis set group =>   3
Atom  22C    basis set group =>   1
Atom  23H    basis set group =>   2
Atom  24H    basis set group =>   2
Atom  25C    basis set group =>   1
Atom  26C    basis set group =>   1
Atom  27N    basis set group =>   3
Atom  28C    basis set group =>   1
Atom  29H    basis set group =>   2
Atom  30H    basis set group =>   2
Atom  31H    basis set group =>   2
Atom  32C    basis set group =>   1
Atom  33H    basis set group =>   2
Atom  34H    basis set group =>   2
Atom  35H    basis set group =>   2
Atom  36C    basis set group =>   1
Atom  37H    basis set group =>   2
Atom  38H    basis set group =>   2
Atom  39H    basis set group =>   2
Atom  40O    basis set group =>   4
Atom  41O    basis set group =>   4
---------------------------------
AUXILIARY/C BASIS SET INFORMATION
---------------------------------
There are 4 groups of distinct atoms

 Group   1 Type C   : 13s11p10d2f contracted to 13s11p10d2f pattern {1111111111111/11111111111/1111111111/11}
 Group   2 Type H   : 9s2p contracted to 9s2p pattern {111111111/11}
 Group   3 Type N   : 14s11p10d2f contracted to 14s11p10d2f pattern {11111111111111/11111111111/1111111111/11}
 Group   4 Type O   : 14s11p10d2f contracted to 14s11p10d2f pattern {11111111111111/11111111111/1111111111/11}

Atom   0C    basis set group =>   1
Atom   1C    basis set group =>   1
Atom   2C    basis set group =>   1
Atom   3H    basis set group =>   2
Atom   4N    basis set group =>   3
Atom   5C    basis set group =>   1
Atom   6C    basis set group =>   1
Atom   7H    basis set group =>   2
Atom   8C    basis set group =>   1
Atom   9C    basis set group =>   1
Atom  10H    basis set group =>   2
Atom  11H    basis set group =>   2
Atom  12C    basis set group =>   1
Atom  13H    basis set group =>   2
Atom  14H    basis set group =>   2
Atom  15C    basis set group =>   1
Atom  16H    basis set group =>   2
Atom  17H    basis set group =>   2
Atom  18C    basis set group =>   1
Atom  19H    basis set group =>   2
Atom  20H    basis set group =>   2
Atom  21N    basis set group =>   3
Atom  22C    basis set group =>   1
Atom  23H    basis set group =>   2
Atom  24H    basis set group =>   2
Atom  25C    basis set group =>   1
Atom  26C    basis set group =>   1
Atom  27N    basis set group =>   3
Atom  28C    basis set group =>   1
Atom  29H    basis set group =>   2
Atom  30H    basis set group =>   2
Atom  31H    basis set group =>   2
Atom  32C    basis set group =>   1
Atom  33H    basis set group =>   2
Atom  34H    basis set group =>   2
Atom  35H    basis set group =>   2
Atom  36C    basis set group =>   1
Atom  37H    basis set group =>   2
Atom  38H    basis set group =>   2
Atom  39H    basis set group =>   2
Atom  40O    basis set group =>   4
Atom  41O    basis set group =>   4
----------------------------------
AUXILIARY/JK BASIS SET INFORMATION
----------------------------------
There are 4 groups of distinct atoms

 Group   1 Type C   : 13s11p10d2f contracted to 13s11p10d2f pattern {1111111111111/11111111111/1111111111/11}
 Group   2 Type H   : 9s2p contracted to 9s2p pattern {111111111/11}
 Group   3 Type N   : 14s11p10d2f contracted to 14s11p10d2f pattern {11111111111111/11111111111/1111111111/11}
 Group   4 Type O   : 14s11p10d2f contracted to 14s11p10d2f pattern {11111111111111/11111111111/1111111111/11}

Atom   0C    basis set group =>   1
Atom   1C    basis set group =>   1
Atom   2C    basis set group =>   1
Atom   3H    basis set group =>   2
Atom   4N    basis set group =>   3
Atom   5C    basis set group =>   1
Atom   6C    basis set group =>   1
Atom   7H    basis set group =>   2
Atom   8C    basis set group =>   1
Atom   9C    basis set group =>   1
Atom  10H    basis set group =>   2
Atom  11H    basis set group =>   2
Atom  12C    basis set group =>   1
Atom  13H    basis set group =>   2
Atom  14H    basis set group =>   2
Atom  15C    basis set group =>   1
Atom  16H    basis set group =>   2
Atom  17H    basis set group =>   2
Atom  18C    basis set group =>   1
Atom  19H    basis set group =>   2
Atom  20H    basis set group =>   2
Atom  21N    basis set group =>   3
Atom  22C    basis set group =>   1
Atom  23H    basis set group =>   2
Atom  24H    basis set group =>   2
Atom  25C    basis set group =>   1
Atom  26C    basis set group =>   1
Atom  27N    basis set group =>   3
Atom  28C    basis set group =>   1
Atom  29H    basis set group =>   2
Atom  30H    basis set group =>   2
Atom  31H    basis set group =>   2
Atom  32C    basis set group =>   1
Atom  33H    basis set group =>   2
Atom  34H    basis set group =>   2
Atom  35H    basis set group =>   2
Atom  36C    basis set group =>   1
Atom  37H    basis set group =>   2
Atom  38H    basis set group =>   2
Atom  39H    basis set group =>   2
Atom  40O    basis set group =>   4
Atom  41O    basis set group =>   4


           ************************************************************
           *        Program running with 4 parallel MPI-processes     *
           *              working on a common directory               *
           ************************************************************
------------------------------------------------------------------------------
                           ORCA GTO INTEGRAL CALCULATION
                           -- RI-GTO INTEGRALS CHOSEN --
------------------------------------------------------------------------------
------------------------------------------------------------------------------
                   ___                                                        
                  /   \      - P O W E R E D   B Y -                         
                 /     \                                                     
                 |  |  |   _    _      __       _____    __    __             
                 |  |  |  | |  | |    /  \     |  _  \  |  |  /  |          
                  \  \/   | |  | |   /    \    | | | |  |  | /  /          
                 / \  \   | |__| |  /  /\  \   | |_| |  |  |/  /          
                |  |  |   |  __  | /  /__\  \  |    /   |      \           
                |  |  |   | |  | | |   __   |  |    \   |  |\   \          
                \     /   | |  | | |  |  |  |  | |\  \  |  | \   \       
                 \___/    |_|  |_| |__|  |__|  |_| \__\ |__|  \__/        
                                                                              
                      - O R C A' S   B I G   F R I E N D -                    
                                      &                                       
                       - I N T E G R A L  F E E D E R -                       
                                                                              
 v1 FN, 2020, v2 2021                                                         
------------------------------------------------------------------------------


Reading SHARK input file Nwe_octanol.SHARKINP.tmp ... ok
----------------------
SHARK INTEGRAL PACKAGE
----------------------

Number of atoms                             ...     42
Number of basis functions                   ...    336
Number of shells                            ...    168
Maximum angular momentum                    ...      2
Integral batch strategy                     ... SHARK/LIBINT Hybrid
RI-J (if used) integral strategy            ... SPLIT-RIJ (Revised 2003 algorithm where possible)
Printlevel                                  ...      1
Contraction scheme used                     ... SEGMENTED contraction
Coulomb Range Separation                    ... NOT USED
Exchange Range Separation                   ... NOT USED
Finite Nucleus Model                        ... NOT USED
Auxiliary Coulomb fitting basis             ... AVAILABLE
   # of basis functions in Aux-J            ...   2630
   # of shells in Aux-J                     ...    992
   Maximum angular momentum in Aux-J        ...      3
Auxiliary J/K fitting basis                 ... AVAILABLE
   # of basis functions in Aux-JK           ...   2630
   # of shells in Aux-JK                    ...    992
   Maximum angular momentum in Aux-JK       ...      3
Auxiliary Correlation fitting basis         ... AVAILABLE
   # of basis functions in Aux-C            ...   2630
   # of shells in Aux-C                     ...    992
   Maximum angular momentum in Aux-C        ...      3
Auxiliary 'external' fitting basis          ... NOT available
Integral threshold                          ...     2.500000e-11
Primitive cut-off                           ...     2.500000e-12
Primitive pair pre-selection threshold      ...     2.500000e-12

Calculating pre-screening integrals         ... done (  0.1 sec) Dimension = 168
Organizing shell pair data                  ... done (  0.2 sec)
Shell pair information
Total number of shell pairs                 ...     14196
Shell pairs after pre-screening             ...     10443
Total number of primitive shell pairs       ...     80304
Primitive shell pairs kept                  ...     32667
          la=0 lb=0:   3921 shell pairs
          la=1 lb=0:   3489 shell pairs
          la=1 lb=1:    783 shell pairs
          la=2 lb=0:   1440 shell pairs
          la=2 lb=1:    666 shell pairs
          la=2 lb=2:    144 shell pairs

Calculating one electron integrals          ... done (  0.0 sec)
Calculating RI/J V-Matrix + Cholesky decomp.... done (  0.5 sec)
Calculating RI/JK V-Matrix + Cholesky decomp... done (  0.5 sec)
Calculating RI/C V-Matrix + Cholesky decomp.... done (  0.6 sec)
Calculating Nuclear repulsion               ... done (  0.0 sec) ENN=   1691.071669761196 Eh

SHARK setup successfully completed in   2.0 seconds

Maximum memory used throughout the entire GTOINT-calculation: 56.4 MB


           ************************************************************
           *        Program running with 4 parallel MPI-processes     *
           *              working on a common directory               *
           ************************************************************
-------------------------------------------------------------------------------
                                 ORCA SCF
-------------------------------------------------------------------------------

------------
SCF SETTINGS
------------
Hamiltonian:
 Density Functional     Method          .... DFT(GTOs)
 Exchange Functional    Exchange        .... B88
   X-Alpha parameter    XAlpha          ....  0.666667
   Becke's b parameter  XBeta           ....  0.004200
 Correlation Functional Correlation     .... LYP
 LDA part of GGA corr.  LDAOpt          .... VWN-5
 Gradients option       PostSCFGGA      .... off
 Hybrid DFT is turned on
   Fraction HF Exchange ScalHFX         ....  0.200000
   Scaling of DF-GGA-X  ScalDFX         ....  0.720000
   Scaling of DF-GGA-C  ScalDFC         ....  0.810000
   Scaling of DF-LDA-C  ScalLDAC        ....  1.000000
   Perturbative correction              ....  0.000000
   Density functional embedding theory  .... OFF
   NL short-range parameter             ....  4.800000
 RI-approximation to the Coulomb term is turned on
   Number of AuxJ basis functions       .... 2630
   RIJ-COSX (HFX calculated with COS-X)).... on


General Settings:
 Integral files         IntName         .... Nwe_octanol
 Hartree-Fock type      HFTyp           .... RHF
 Total Charge           Charge          ....    0
 Multiplicity           Mult            ....    1
 Number of Electrons    NEL             ....  154
 Basis Dimension        Dim             ....  336
 Nuclear Repulsion      ENuc            ....   1691.0716697612 Eh

Convergence Acceleration:
 DIIS                   CNVDIIS         .... on
   Start iteration      DIISMaxIt       ....    12
   Startup error        DIISStart       ....  0.200000
   # of expansion vecs  DIISMaxEq       ....     5
   Bias factor          DIISBfac        ....   1.050
   Max. coefficient     DIISMaxC        ....  10.000
 Trust-Rad. Augm. Hess. CNVTRAH         .... auto
   Auto Start mean grad. ratio tolernc. ....  1.125000
   Auto Start start iteration           ....    20
   Auto Start num. interpolation iter.  ....    10
   Max. Number of Micro iterations      ....    16
   Max. Number of Macro iterations      .... Maxiter - #DIIS iter
   Number of Davidson start vectors     ....     2
   Converg. threshold I  (grad. norm)   ....   1.000e-05
   Converg. threshold II (energy diff.) ....   1.000e-08
   Grad. Scal. Fac. for Micro threshold ....   0.100
   Minimum threshold for Micro iter.    ....   0.010
   NR start threshold (gradient norm)   ....   0.001
   Initial trust radius                 ....   0.400
   Minimum AH scaling param. (alpha)    ....   1.000
   Maximum AH scaling param. (alpha)    .... 1000.000
   Orbital update algorithm             .... Taylor
   White noise on init. David. guess    .... on
   Maximum white noise                  ....   0.010
   Quad. conv. algorithm                .... NR
 SOSCF                  CNVSOSCF        .... on
   Start iteration      SOSCFMaxIt      ....   150
   Startup grad/error   SOSCFStart      ....  0.003300
 Level Shifting         CNVShift        .... on
   Level shift para.    LevelShift      ....    0.2500
   Turn off err/grad.   ShiftErr        ....    0.0010
 Zerner damping         CNVZerner       .... off
 Static damping         CNVDamp         .... on
   Fraction old density DampFac         ....    0.7000
   Max. Damping (<1)    DampMax         ....    0.9800
   Min. Damping (>=0)   DampMin         ....    0.0000
   Turn off err/grad.   DampErr         ....    0.1000
 Fernandez-Rico         CNVRico         .... off

SCF Procedure:
 Maximum # iterations   MaxIter         ....   125
 SCF integral mode      SCFMode         .... Direct
   Integral package                     .... SHARK and LIBINT hybrid scheme
 Reset frequency        DirectResetFreq ....    20
 Integral Threshold     Thresh          ....  2.500e-11 Eh
 Primitive CutOff       TCut            ....  2.500e-12 Eh

Convergence Tolerance:
 Convergence Check Mode ConvCheckMode   .... Total+1el-Energy
 Convergence forced     ConvForced      .... 0
 Energy Change          TolE            ....  1.000e-08 Eh
 1-El. energy change                    ....  1.000e-05 Eh
 Orbital Gradient       TolG            ....  1.000e-05
 Orbital Rotation angle TolX            ....  1.000e-05
 DIIS Error             TolErr          ....  5.000e-07


Diagonalization of the overlap matrix:
Smallest eigenvalue                        ... 3.861e-04
Time for diagonalization                   ...    0.018 sec
Threshold for overlap eigenvalues          ... 1.000e-08
Number of eigenvalues below threshold      ... 0
Time for construction of square roots      ...    0.009 sec
Total time needed                          ...    0.029 sec

Time for model grid setup =    0.464 sec

------------------------------
INITIAL GUESS: MODEL POTENTIAL
------------------------------
Loading Hartree-Fock densities                     ... done
Calculating cut-offs                               ... done
Initializing the effective Hamiltonian             ... done
Setting up the integral package (SHARK)            ... done
Starting the Coulomb interaction                   ... done (   0.4 sec)
Reading the grid                                   ... done
Mapping shells                                     ... done
Starting the XC term evaluation                    ... done (   0.2 sec)
  promolecular density results
     # of electrons  =    153.984174376
     EX              =   -124.698953401
     EC              =     -5.214228899
     EX+EC           =   -129.913182299
Transforming the Hamiltonian                       ... done (   0.0 sec)
Diagonalizing the Hamiltonian                      ... done (   0.0 sec)
Back transforming the eigenvectors                 ... done (   0.0 sec)
Now organizing SCF variables                       ... done
                      ------------------
                      INITIAL GUESS DONE (   1.2 sec)
                      ------------------
-------------------
DFT GRID GENERATION
-------------------

General Integration Accuracy     IntAcc      ... 4.388
Radial Grid Type                 RadialGrid  ... OptM3 with GC (2021)
Angular Grid (max. ang.)         AngularGrid ... 4 (Lebedev-302)
Angular grid pruning method      GridPruning ... 4 (adaptive)
Weight generation scheme         WeightScheme... Becke
Basis function cutoff            BFCut       ... 1.0000e-11
Integration weight cutoff        WCut        ... 1.0000e-14
Angular grids for H and He will be reduced by one unit
Partially contracted basis set               ... off
Rotationally invariant grid construction     ... off

Total number of grid points                  ...   191850
Total number of batches                      ...     3021
Average number of points per batch           ...       63
Average number of grid points per atom       ...     4568
Time for grid setup =    3.605 sec

--------------------
COSX GRID GENERATION
--------------------

GRIDX 1
-------
General Integration Accuracy     IntAcc      ... 3.816
Radial Grid Type                 RadialGrid  ... OptM3 with GC (2021)
Angular Grid (max. ang.)         AngularGrid ... 1 (Lebedev-50)
Angular grid pruning method      GridPruning ... 4 (adaptive)
Weight generation scheme         WeightScheme... Becke
Basis function cutoff            BFCut       ... 1.0000e-11
Integration weight cutoff        WCut        ... 1.0000e-14
Angular grids for H and He will be reduced by one unit
Partially contracted basis set               ... on
Rotationally invariant grid construction     ... off

Total number of grid points                  ...    24382
Total number of batches                      ...      403
Average number of points per batch           ...       60
Average number of grid points per atom       ...      581
UseSFitting                                  ... on

GRIDX 2
-------
General Integration Accuracy     IntAcc      ... 4.020
Radial Grid Type                 RadialGrid  ... OptM3 with GC (2021)
Angular Grid (max. ang.)         AngularGrid ... 2 (Lebedev-110)
Angular grid pruning method      GridPruning ... 4 (adaptive)
Weight generation scheme         WeightScheme... Becke
Basis function cutoff            BFCut       ... 1.0000e-11
Integration weight cutoff        WCut        ... 1.0000e-14
Angular grids for H and He will be reduced by one unit
Partially contracted basis set               ... on
Rotationally invariant grid construction     ... off

Total number of grid points                  ...    52120
Total number of batches                      ...      833
Average number of points per batch           ...       62
Average number of grid points per atom       ...     1241
UseSFitting                                  ... on

GRIDX 3
-------
General Integration Accuracy     IntAcc      ... 4.338
Radial Grid Type                 RadialGrid  ... OptM3 with GC (2021)
Angular Grid (max. ang.)         AngularGrid ... 3 (Lebedev-194)
Angular grid pruning method      GridPruning ... 4 (adaptive)
Weight generation scheme         WeightScheme... Becke
Basis function cutoff            BFCut       ... 1.0000e-11
Integration weight cutoff        WCut        ... 1.0000e-14
Angular grids for H and He will be reduced by one unit
Partially contracted basis set               ... on
Rotationally invariant grid construction     ... off

Total number of grid points                  ...   113532
Total number of batches                      ...     1798
Average number of points per batch           ...       63
Average number of grid points per atom       ...     2703
UseSFitting                                  ... on

Time for X-Grid setup             =    2.557 sec


--------------------
CPCM SOLVATION MODEL
--------------------
CPCM parameters:
  Epsilon                                         ...       9.8629
  Refrac                                          ...       1.4295
  Rsolv                                           ...       1.3000
  Surface type                                    ... GAUSSIAN VDW
  Epsilon function type                           ...         CPCM
Radii:
 Radius for C  used is    3.8550 Bohr (=   2.0400 Ang.)
 Radius for H  used is    2.4944 Bohr (=   1.3200 Ang.)
 Radius for N  used is    3.5149 Bohr (=   1.8600 Ang.)
 Radius for O  used is    3.4469 Bohr (=   1.8240 Ang.)
Calculating surface                               ...        done! (  0.0s)
GEPOL surface points                              ...         2187
GEPOL Volume                                      ...    2384.7919
GEPOL Surface-area                                ...    1210.9700
Calculating surface distance matrix               ...        done! (  0.0s)
Performing Cholesky decomposition & store         ...        done! (  0.2s)
Overall time for CPCM initialization              ...                 0.2s
--------------
SCF ITERATIONS
--------------
ITER       Energy         Delta-E        Max-DP      RMS-DP      [F,P]     Damp
               ***  Starting incremental Fock matrix formation  ***
  0   -935.9712603374   0.000000000000 0.09747183  0.00171470  0.2751425 0.7000
  1   -936.2188507985  -0.247590461080 0.05633377  0.00117148  0.1122665 0.7000
                               ***Turning on DIIS***
  2   -936.3195304821  -0.100679683634 0.06410326  0.00192031  0.0387712 0.0000
  3   -936.4773063593  -0.157775877201 0.03829987  0.00080724  0.0552088 0.0000
  4   -936.5098165080  -0.032510148682 0.00980592  0.00026656  0.0150027 0.0000
  5   -936.5120111915  -0.002194683511 0.00419077  0.00008345  0.0068705 0.0000
                      *** Initiating the SOSCF procedure ***
                           *** Shutting down DIIS ***
                      *** Re-Reading the Fockian *** 
                      *** Removing any level shift *** 
ITER      Energy       Delta-E        Grad      Rot      Max-DP    RMS-DP
  6   -936.51218138  -0.0001701896  0.000286  0.000286  0.001586  0.000038
               *** Restarting incremental Fock matrix formation ***
  7   -936.51219557  -0.0000141869  0.000255  0.001115  0.002021  0.000025
  8   -936.51218645   0.0000091175  0.000509  0.000739  0.001318  0.000016
  9   -936.51220040  -0.0000139464  0.000053  0.000146  0.000393  0.000005
 10   -936.51219993   0.0000004642  0.000102  0.000095  0.000272  0.000003
 11   -936.51220055  -0.0000006200  0.000007  0.000034  0.000042  0.000001
 12   -936.51220056  -0.0000000054  0.000012  0.000024  0.000031  0.000000
                  ***Gradient check signals convergence***
              ***Rediagonalizing the Fockian in SOSCF/NRSCF***

               *****************************************************
               *                     SUCCESS                       *
               *           SCF CONVERGED AFTER  13 CYCLES          *
               *****************************************************

Old exchange energy                            =    -25.380721690 Eh
New exchange energy                            =    -25.380743044 Eh
Exchange energy change after final integration =     -0.000021354 Eh
Total energy after final integration           =   -936.512221909 Eh
Final COS-X integration done in                =    19.068 sec

----------------
TOTAL SCF ENERGY
----------------

Total Energy       :         -936.51222191 Eh          -25483.79313 eV

Components:
Nuclear Repulsion  :         1691.07166976 Eh           46016.39956 eV
Electronic Energy  :        -2627.58389167 Eh          -71500.19269 eV
One Electron Energy:        -4632.42108797 Eh         -126054.58630 eV
Two Electron Energy:         2004.83719630 Eh           54554.39360 eV
Max COSX asymmetry :            0.00000243 Eh               0.00007 eV
CPCM Dielectric    :           -0.02285253 Eh              -0.62185 eV

Virial components:
Potential Energy   :        -1867.55456657 Eh          -50818.74333 eV
Kinetic Energy     :          931.04234466 Eh           25334.95020 eV
Virial Ratio       :            2.00587500


DFT components:
N(Alpha)           :       77.000126337916 electrons
N(Beta)            :       77.000126337916 electrons
N(Total)           :      154.000252675832 electrons
E(X)               :     -100.780018291446 Eh       
E(C)               :       -6.141820534953 Eh       
E(XC)              :     -106.921838826399 Eh       
DFET-embed. en.    :        0.000000000000 Eh       
CPCM Solvation Model Properties:
Surface-charge          :           -0.02346222
Charge-correction       :           -0.00009111 Eh              -0.00248 eV
Free-energy (cav+disp)  :  This term is not implemented in the current solvation scheme

---------------
SCF CONVERGENCE
---------------

  Last Energy change         ...    3.4468e-09  Tolerance :   1.0000e-08
  Last MAX-Density change    ...    5.7732e-15  Tolerance :   1.0000e-07
  Last RMS-Density change    ...    4.9630e-17  Tolerance :   5.0000e-09
  Last Orbital Gradient      ...    1.3648e-06  Tolerance :   1.0000e-05
  Last Orbital Rotation      ...    3.9438e-06  Tolerance :   1.0000e-05

             **** THE GBW FILE WAS UPDATED (Nwe_octanol.gbw) ****
             **** DENSITY Nwe_octanol.scfp WAS UPDATED ****
             **** ENERGY FILE WAS UPDATED (Nwe_octanol.en.tmp) ****
             **** THE GBW FILE WAS UPDATED (Nwe_octanol.gbw) ****
             **** DENSITY Nwe_octanol.scfp WAS UPDATED ****
----------------
ORBITAL ENERGIES
----------------

  NO   OCC          E(Eh)            E(eV) 
   0   2.0000     -19.109799      -520.0041 
   1   2.0000     -19.109664      -520.0004 
   2   2.0000     -14.361551      -390.7977 
   3   2.0000     -14.360197      -390.7608 
   4   2.0000     -14.359684      -390.7469 
   5   2.0000     -10.283699      -279.8337 
   6   2.0000     -10.280353      -279.7426 
   7   2.0000     -10.210788      -277.8497 
   8   2.0000     -10.207958      -277.7727 
   9   2.0000     -10.205229      -277.6984 
  10   2.0000     -10.200180      -277.5610 
  11   2.0000     -10.198863      -277.5252 
  12   2.0000     -10.195919      -277.4451 
  13   2.0000     -10.175525      -276.8901 
  14   2.0000     -10.174305      -276.8569 
  15   2.0000     -10.172867      -276.8178 
  16   2.0000     -10.172378      -276.8045 
  17   2.0000     -10.170810      -276.7618 
  18   2.0000     -10.170156      -276.7440 
  19   2.0000     -10.167430      -276.6698 
  20   2.0000     -10.165567      -276.6191 
  21   2.0000      -1.031911       -28.0797 
  22   2.0000      -1.024731       -27.8843 
  23   2.0000      -0.968523       -26.3548 
  24   2.0000      -0.934144       -25.4194 
  25   2.0000      -0.927885       -25.2490 
  26   2.0000      -0.830049       -22.5868 
  27   2.0000      -0.797383       -21.6979 
  28   2.0000      -0.760878       -20.7045 
  29   2.0000      -0.744039       -20.2463 
  30   2.0000      -0.725432       -19.7400 
  31   2.0000      -0.719224       -19.5711 
  32   2.0000      -0.708560       -19.2809 
  33   2.0000      -0.701653       -19.0929 
  34   2.0000      -0.670110       -18.2346 
  35   2.0000      -0.645368       -17.5613 
  36   2.0000      -0.611574       -16.6418 
  37   2.0000      -0.582065       -15.8388 
  38   2.0000      -0.553237       -15.0543 
  39   2.0000      -0.547438       -14.8965 
  40   2.0000      -0.536273       -14.5927 
  41   2.0000      -0.525866       -14.3095 
  42   2.0000      -0.511555       -13.9201 
  43   2.0000      -0.486081       -13.2269 
  44   2.0000      -0.479191       -13.0395 
  45   2.0000      -0.472430       -12.8555 
  46   2.0000      -0.464604       -12.6425 
  47   2.0000      -0.461724       -12.5641 
  48   2.0000      -0.455457       -12.3936 
  49   2.0000      -0.447323       -12.1723 
  50   2.0000      -0.436249       -11.8709 
  51   2.0000      -0.420429       -11.4404 
  52   2.0000      -0.417066       -11.3489 
  53   2.0000      -0.414654       -11.2833 
  54   2.0000      -0.411552       -11.1989 
  55   2.0000      -0.403327       -10.9751 
  56   2.0000      -0.400677       -10.9030 
  57   2.0000      -0.395672       -10.7668 
  58   2.0000      -0.394718       -10.7408 
  59   2.0000      -0.390996       -10.6395 
  60   2.0000      -0.381997       -10.3947 
  61   2.0000      -0.380177       -10.3451 
  62   2.0000      -0.374252       -10.1839 
  63   2.0000      -0.371248       -10.1022 
  64   2.0000      -0.358634        -9.7589 
  65   2.0000      -0.352292        -9.5863 
  66   2.0000      -0.346954        -9.4411 
  67   2.0000      -0.334696        -9.1075 
  68   2.0000      -0.326815        -8.8931 
  69   2.0000      -0.321984        -8.7616 
  70   2.0000      -0.269221        -7.3259 
  71   2.0000      -0.258841        -7.0434 
  72   2.0000      -0.252343        -6.8666 
  73   2.0000      -0.238180        -6.4812 
  74   2.0000      -0.236412        -6.4331 
  75   2.0000      -0.215881        -5.8744 
  76   2.0000      -0.192558        -5.2398 
  77   0.0000      -0.004477        -0.1218 
  78   0.0000       0.012773         0.3476 
  79   0.0000       0.026973         0.7340 
  80   0.0000       0.032903         0.8953 
  81   0.0000       0.067170         1.8278 
  82   0.0000       0.089121         2.4251 
  83   0.0000       0.097875         2.6633 
  84   0.0000       0.109995         2.9931 
  85   0.0000       0.118812         3.2330 
  86   0.0000       0.123621         3.3639 
  87   0.0000       0.138948         3.7810 
  88   0.0000       0.140979         3.8362 
  89   0.0000       0.147361         4.0099 
  90   0.0000       0.155648         4.2354 
  91   0.0000       0.158836         4.3222 
  92   0.0000       0.162751         4.4287 
  93   0.0000       0.168142         4.5754 
  94   0.0000       0.173313         4.7161 
  95   0.0000       0.176420         4.8006 
  96   0.0000       0.182914         4.9774 
  97   0.0000       0.186625         5.0783 
  98   0.0000       0.188308         5.1241 
  99   0.0000       0.192564         5.2399 
 100   0.0000       0.195069         5.3081 
 101   0.0000       0.204337         5.5603 
 102   0.0000       0.208299         5.6681 
 103   0.0000       0.211041         5.7427 
 104   0.0000       0.221112         6.0168 
 105   0.0000       0.228848         6.2273 
 106   0.0000       0.236238         6.4284 
 107   0.0000       0.242425         6.5967 
 108   0.0000       0.247359         6.7310 
 109   0.0000       0.259523         7.0620 
 110   0.0000       0.272288         7.4093 
 111   0.0000       0.276189         7.5155 
 112   0.0000       0.281408         7.6575 
 113   0.0000       0.292243         7.9523 
 114   0.0000       0.298061         8.1107 
 115   0.0000       0.327006         8.8983 
 116   0.0000       0.338796         9.2191 
 117   0.0000       0.353081         9.6078 
 118   0.0000       0.354710         9.6522 
 119   0.0000       0.371524        10.1097 
 120   0.0000       0.384010        10.4494 
 121   0.0000       0.407789        11.0965 
 122   0.0000       0.421772        11.4770 
 123   0.0000       0.445229        12.1153 
 124   0.0000       0.472318        12.8524 
 125   0.0000       0.500703        13.6248 
 126   0.0000       0.509680        13.8691 
 127   0.0000       0.514917        14.0116 
 128   0.0000       0.520052        14.1513 
 129   0.0000       0.524353        14.2684 
 130   0.0000       0.531891        14.4735 
 131   0.0000       0.537033        14.6134 
 132   0.0000       0.538386        14.6502 
 133   0.0000       0.552267        15.0279 
 134   0.0000       0.559770        15.2321 
 135   0.0000       0.568642        15.4735 
 136   0.0000       0.573848        15.6152 
 137   0.0000       0.577098        15.7036 
 138   0.0000       0.588249        16.0071 
 139   0.0000       0.596330        16.2270 
 140   0.0000       0.601550        16.3690 
 141   0.0000       0.606092        16.4926 
 142   0.0000       0.613278        16.6882 
 143   0.0000       0.616224        16.7683 
 144   0.0000       0.620815        16.8932 
 145   0.0000       0.626493        17.0477 
 146   0.0000       0.630445        17.1553 
 147   0.0000       0.634647        17.2696 
 148   0.0000       0.638528        17.3752 
 149   0.0000       0.642423        17.4812 
 150   0.0000       0.650708        17.7067 
 151   0.0000       0.660861        17.9829 
 152   0.0000       0.668817        18.1994 
 153   0.0000       0.670133        18.2352 
 154   0.0000       0.690970        18.8022 
 155   0.0000       0.700347        19.0574 
 156   0.0000       0.703039        19.1307 
 157   0.0000       0.717972        19.5370 
 158   0.0000       0.726951        19.7813 
 159   0.0000       0.743806        20.2400 
 160   0.0000       0.766455        20.8563 
 161   0.0000       0.768952        20.9243 
 162   0.0000       0.781561        21.2673 
 163   0.0000       0.791078        21.5263 
 164   0.0000       0.799829        21.7645 
 165   0.0000       0.814079        22.1522 
 166   0.0000       0.821611        22.3572 
 167   0.0000       0.822449        22.3800 
 168   0.0000       0.830280        22.5931 
 169   0.0000       0.834942        22.7199 
 170   0.0000       0.840632        22.8748 
 171   0.0000       0.847998        23.0752 
 172   0.0000       0.855948        23.2915 
 173   0.0000       0.859497        23.3881 
 174   0.0000       0.873119        23.7588 
 175   0.0000       0.877720        23.8840 
 176   0.0000       0.879730        23.9387 
 177   0.0000       0.885181        24.0870 
 178   0.0000       0.896841        24.4043 
 179   0.0000       0.898795        24.4575 
 180   0.0000       0.907029        24.6815 
 181   0.0000       0.916284        24.9334 
 182   0.0000       0.920111        25.0375 
 183   0.0000       0.928436        25.2640 
 184   0.0000       0.934015        25.4158 
 185   0.0000       0.934982        25.4421 
 186   0.0000       0.941977        25.6325 
 187   0.0000       0.956494        26.0275 
 188   0.0000       0.962855        26.2006 
 189   0.0000       0.977916        26.6105 
 190   0.0000       0.983558        26.7640 
 191   0.0000       0.985869        26.8268 
 192   0.0000       0.996718        27.1221 
 193   0.0000       1.000997        27.2385 
 194   0.0000       1.013723        27.5848 
 195   0.0000       1.018198        27.7066 
 196   0.0000       1.034140        28.1404 
 197   0.0000       1.044540        28.4234 
 198   0.0000       1.056973        28.7617 
 199   0.0000       1.070536        29.1308 
 200   0.0000       1.094796        29.7909 
 201   0.0000       1.099376        29.9155 
 202   0.0000       1.120072        30.4787 
 203   0.0000       1.129368        30.7317 
 204   0.0000       1.139344        31.0031 
 205   0.0000       1.146076        31.1863 
 206   0.0000       1.172866        31.9153 
 207   0.0000       1.192346        32.4454 
 208   0.0000       1.214480        33.0477 
 209   0.0000       1.227283        33.3961 
 210   0.0000       1.242411        33.8077 
 211   0.0000       1.254609        34.1397 
 212   0.0000       1.264525        34.4095 
 213   0.0000       1.288616        35.0650 
 214   0.0000       1.307803        35.5871 
 215   0.0000       1.325583        36.0709 
 216   0.0000       1.344726        36.5919 
 217   0.0000       1.348789        36.7024 
 218   0.0000       1.358481        36.9662 
 219   0.0000       1.376806        37.4648 
 220   0.0000       1.386135        37.7187 
 221   0.0000       1.399524        38.0830 
 222   0.0000       1.411233        38.4016 
 223   0.0000       1.426939        38.8290 
 224   0.0000       1.428081        38.8601 
 225   0.0000       1.431759        38.9601 
 226   0.0000       1.435510        39.0622 
 227   0.0000       1.455504        39.6063 
 228   0.0000       1.474842        40.1325 
 229   0.0000       1.476667        40.1821 
 230   0.0000       1.488957        40.5166 
 231   0.0000       1.501280        40.8519 
 232   0.0000       1.512203        41.1491 
 233   0.0000       1.516997        41.2796 
 234   0.0000       1.528617        41.5958 
 235   0.0000       1.543928        42.0124 
 236   0.0000       1.583530        43.0900 
 237   0.0000       1.632150        44.4131 
 238   0.0000       1.641394        44.6646 
 239   0.0000       1.659817        45.1659 
 240   0.0000       1.680902        45.7397 
 241   0.0000       1.711470        46.5715 
 242   0.0000       1.750247        47.6267 
 243   0.0000       1.755843        47.7789 
 244   0.0000       1.764991        48.0279 
 245   0.0000       1.773421        48.2572 
 246   0.0000       1.808134        49.2018 
 247   0.0000       1.812361        49.3169 
 248   0.0000       1.815563        49.4040 
 249   0.0000       1.822169        49.5837 
 250   0.0000       1.839301        50.0499 
 251   0.0000       1.855763        50.4979 
 252   0.0000       1.866647        50.7940 
 253   0.0000       1.870306        50.8936 
 254   0.0000       1.881284        51.1923 
 255   0.0000       1.896089        51.5952 
 256   0.0000       1.917174        52.1690 
 257   0.0000       1.923602        52.3439 
 258   0.0000       1.928219        52.4695 
 259   0.0000       1.940802        52.8119 
 260   0.0000       1.953102        53.1466 
 261   0.0000       1.953542        53.1586 
 262   0.0000       1.966256        53.5045 
 263   0.0000       1.974633        53.7325 
 264   0.0000       1.984919        54.0124 
 265   0.0000       1.988645        54.1138 
 266   0.0000       1.993748        54.2526 
 267   0.0000       2.013993        54.8035 
 268   0.0000       2.018729        54.9324 
 269   0.0000       2.029071        55.2138 
 270   0.0000       2.047860        55.7251 
 271   0.0000       2.059168        56.0328 
[...]
 14:    113.74   0.002059   10.41  0.005649  (-0.008389  0.052798 -0.052832)
 15:    135.87   0.001664    8.41  0.003822  ( 0.030126 -0.048418  0.023880)
 16:    159.25   0.000265    1.34  0.000520  ( 0.007924 -0.018151 -0.011306)
 17:    167.88   0.000018    0.09  0.000033  (-0.002059 -0.004254 -0.003323)
 18:    185.84   0.000312    1.58  0.000524  (-0.004306  0.000335  0.022473)
 19:    220.79   0.000247    1.25  0.000349  ( 0.003805 -0.004408  0.017746)
 20:    228.46   0.001796    9.08  0.002454  ( 0.012280  0.011223 -0.046656)
 21:    239.07   0.000197    1.00  0.000258  ( 0.007803  0.012920  0.005470)
 22:    254.92   0.002205   11.14  0.002699  (-0.041793  0.025422  0.017507)
 23:    274.40   0.001635    8.26  0.001860  ( 0.037019 -0.016951  0.014214)
 24:    344.77   0.004649   23.49  0.004207  (-0.006279  0.025603 -0.059267)
 25:    352.71   0.000782    3.95  0.000692  ( 0.010836  0.022964  0.006879)
 26:    378.90   0.002147   10.85  0.001768  (-0.003774  0.006913  0.041306)
 27:    388.30   0.001042    5.27  0.000838  (-0.003900  0.019696 -0.020845)
 28:    430.26   0.012570   63.52  0.009117  (-0.013784 -0.029271  0.089834)
 29:    434.94   0.002665   13.47  0.001912  ( 0.008932  0.006083 -0.042371)
 30:    445.44   0.013107   66.24  0.009182  ( 0.019496  0.023950 -0.090713)
 31:    459.92   0.004279   21.62  0.002903  (-0.047369 -0.015691 -0.020334)
 32:    470.07   0.000530    2.68  0.000352  (-0.010872  0.014019 -0.006109)
 33:    495.65   0.004780   24.16  0.003010  ( 0.038894 -0.027030 -0.027680)
 34:    550.42   0.001096    5.54  0.000622  ( 0.015183  0.019344  0.004118)
 35:    575.29   0.003867   19.54  0.002098  (-0.021384 -0.039379  0.009482)
 36:    588.09   0.001552    7.84  0.000824  ( 0.023814 -0.006135  0.014796)
 37:    592.42   0.002650   13.39  0.001396  (-0.005118  0.003029 -0.036886)
 38:    600.74   0.003323   16.79  0.001726  ( 0.004764  0.028054 -0.030274)
 39:    626.68   0.001238    6.26  0.000616  (-0.002640 -0.004665 -0.024241)
 40:    652.51   0.001332    6.73  0.000637  ( 0.002138  0.007232  0.024086)
 41:    701.33   0.000787    3.98  0.000350  (-0.013253 -0.001619 -0.013106)
 42:    748.00   0.001138    5.75  0.000475  ( 0.018466 -0.001315 -0.011491)
 43:    756.81   0.016173   81.73  0.006669  (-0.009565 -0.022032  0.078049)
 44:    760.82   0.003418   17.27  0.001402  ( 0.020892 -0.030765  0.004358)
 45:    770.53   0.000939    4.74  0.000380  (-0.008083  0.001398 -0.017686)
 46:    781.39   0.002819   14.24  0.001126  (-0.010792  0.012598 -0.029164)
 47:    794.71   0.000952    4.81  0.000374  ( 0.013039  0.002935  0.013972)
 48:    816.05   0.001561    7.89  0.000597  (-0.021384 -0.006846  0.009636)
 49:    846.15   0.003160   15.97  0.001166  (-0.012350  0.000204 -0.031828)
 50:    863.13   0.000036    0.18  0.000013  ( 0.002655  0.002292  0.000757)
 51:    889.55   0.000201    1.01  0.000070  (-0.006985 -0.004613 -0.000585)
 52:    929.72   0.000445    2.25  0.000149  ( 0.002020  0.003915 -0.011399)
 53:    960.73   0.000364    1.84  0.000118  ( 0.007889  0.002337  0.007115)
 54:    970.39   0.000001    0.00  0.000000  (-0.000341 -0.000298 -0.000293)
 55:   1002.99   0.005213   26.35  0.001622  (-0.022027  0.006172 -0.033147)
 56:   1010.40   0.006693   33.82  0.002067  (-0.023259 -0.032504  0.021672)
 57:   1025.35   0.004261   21.53  0.001297  (-0.012703  0.022590  0.025002)
 58:   1032.90   0.003930   19.86  0.001187  ( 0.016326  0.028057 -0.011561)
 59:   1038.48   0.004756   24.03  0.001429  (-0.021000  0.030890  0.005828)
 60:   1062.02   0.001876    9.48  0.000551  (-0.002348  0.009495 -0.021345)
 61:   1078.84   0.003787   19.14  0.001095  (-0.024863 -0.002964 -0.021644)
 62:   1090.71   0.002296   11.60  0.000657  ( 0.007500  0.024508 -0.000075)
 63:   1108.73   0.011306   57.14  0.003182  ( 0.019496  0.043661  0.029931)
 64:   1111.20   0.004284   21.65  0.001203  (-0.006271 -0.034095  0.001124)
 65:   1135.28   0.000576    2.91  0.000158  ( 0.002282 -0.012291 -0.001452)
 66:   1151.56   0.000526    2.66  0.000143  (-0.001835 -0.007952  0.008716)
 67:   1168.07   0.009774   49.39  0.002611  ( 0.031142 -0.012846  0.038422)
 68:   1178.71   0.002943   14.87  0.000779  ( 0.020220  0.000329  0.019243)
 69:   1184.57   0.000718    3.63  0.000189  ( 0.007501  0.000600  0.011507)
 70:   1218.42   0.010641   53.77  0.002725  (-0.001351  0.021830  0.047402)
 71:   1249.72   0.018640   94.20  0.004655  (-0.032170 -0.059100 -0.011267)
 72:   1259.72   0.004237   21.41  0.001050  (-0.029141 -0.013245 -0.005007)
 73:   1281.16   0.008835   44.65  0.002152  (-0.023452  0.034092  0.020967)
 74:   1287.31   0.011891   60.09  0.002883  (-0.001360 -0.044447  0.030086)
 75:   1295.41   0.018616   94.08  0.004485  (-0.009326  0.063254  0.019913)
 76:   1322.84   0.003442   17.39  0.000812  (-0.006480 -0.027713 -0.001383)
 77:   1341.72   0.002316   11.71  0.000539  (-0.007599 -0.021495 -0.004359)
 78:   1346.31   0.001044    5.28  0.000242  ( 0.000477  0.012146  0.009707)
 79:   1373.20   0.000195    0.99  0.000044  (-0.002982 -0.003183 -0.005032)
 80:   1386.97   0.011267   56.94  0.002535  (-0.048704  0.012597 -0.002084)
 81:   1397.35   0.004437   22.42  0.000991  (-0.004608  0.029622  0.009597)
 82:   1409.36   0.007938   40.11  0.001758  ( 0.036192  0.020501 -0.005236)
 83:   1415.49   0.004213   21.29  0.000929  ( 0.006015  0.027170  0.012426)
 84:   1442.40   0.014816   74.87  0.003205  (-0.017917  0.016386 -0.051146)
 85:   1457.45   0.016653   84.16  0.003566  (-0.014010  0.044232 -0.037589)
 86:   1465.79   0.008160   41.24  0.001737  (-0.040565  0.009256 -0.002469)
 87:   1474.45   0.045419  229.53  0.009613  (-0.030677 -0.088169 -0.029965)
 88:   1483.94   0.004528   22.88  0.000952  ( 0.030580  0.003826  0.001571)
 89:   1490.33   0.000726    3.67  0.000152  ( 0.005380  0.004361 -0.010202)
 90:   1496.89   0.010334   52.22  0.002154  ( 0.012618 -0.043593 -0.009736)
 91:   1500.77   0.001131    5.72  0.000235  ( 0.001841  0.003783  0.014748)
 92:   1505.80   0.003165   16.00  0.000656  (-0.011475  0.015690  0.016676)
 93:   1509.80   0.004291   21.68  0.000887  (-0.006872  0.028616 -0.004561)
 94:   1511.93   0.000370    1.87  0.000076  (-0.000861 -0.008513 -0.001801)
 95:   1518.72   0.003666   18.53  0.000753  (-0.026646  0.006575 -0.000306)
 96:   1530.59   0.005656   28.59  0.001153  (-0.028606 -0.011318 -0.014382)
 97:   1533.97   0.006619   33.45  0.001347  ( 0.016618 -0.013408 -0.029845)
 98:   1536.58   0.001058    5.35  0.000215  (-0.011050  0.009629 -0.000020)
 99:   1556.19   0.016436   83.06  0.003296  (-0.005501  0.032632 -0.046913)
100:   1602.82   0.002615   13.22  0.000509  (-0.018026 -0.013432 -0.001973)
101:   1629.74   0.000163    0.83  0.000031  (-0.003968  0.003932 -0.000268)
102:   1675.55   0.001265    6.40  0.000236  ( 0.002929 -0.014957 -0.001844)
103:   1707.35   0.164552  831.58  0.030076  ( 0.138323  0.084472  0.061706)
104:   1713.96   0.064666  326.80  0.011774  (-0.012127 -0.039986 -0.100140)
105:   3033.09   0.005074   25.64  0.000522  ( 0.006743  0.020105  0.008503)
106:   3037.95   0.018597   93.98  0.001910  ( 0.005423  0.007365 -0.042739)
107:   3054.61   0.008039   40.62  0.000821  (-0.015973 -0.010801 -0.021200)
108:   3064.91   0.000776    3.92  0.000079  (-0.005693  0.005227  0.004393)
109:   3083.24   0.004523   22.86  0.000458  (-0.008788  0.008363  0.017624)
110:   3089.14   0.010939   55.28  0.001105  (-0.016006 -0.004309 -0.028814)
111:   3096.11   0.012852   64.95  0.001295  (-0.033788  0.011274 -0.005163)
112:   3101.41   0.004876   24.64  0.000491  (-0.020430  0.008179 -0.002528)
113:   3117.86   0.002569   12.99  0.000257  (-0.011569  0.010602 -0.003306)
114:   3130.40   0.001959    9.90  0.000195  (-0.002815 -0.002252  0.013501)
115:   3143.13   0.008079   40.83  0.000802  ( 0.013349 -0.024824 -0.002782)
116:   3166.17   0.001436    7.25  0.000141  (-0.004187  0.009745 -0.005384)
117:   3171.37   0.002998   15.15  0.000295  ( 0.011509  0.012002  0.004304)
118:   3179.34   0.000706    3.57  0.000069  (-0.008282 -0.000354 -0.000757)
119:   3188.25   0.002204   11.14  0.000216  (-0.014420 -0.001802 -0.002124)
120:   3191.67   0.001181    5.97  0.000115  (-0.003528  0.009745  0.002843)
121:   3192.94   0.000455    2.30  0.000044  (-0.005446 -0.003140 -0.002217)
122:   3197.93   0.009826   49.66  0.000959  ( 0.011392  0.027532  0.008432)
123:   3208.19   0.006710   33.91  0.000653  ( 0.022649 -0.011804 -0.000587)
124:   3269.33   0.000115    0.58  0.000011  ( 0.002779 -0.001721  0.000519)
125:   3652.57   0.031996  161.69  0.002734  ( 0.019026  0.046896  0.013128)

* The epsilon (eps) is given for a Dirac delta lineshape.
** The dipole moment derivative (T) already includes vibrational overlap.

The first frequency considered to be a vibration is 7
The total number of vibrations considered is 119


--------------------------
THERMOCHEMISTRY AT 298.15K
--------------------------

Temperature         ... 298.15 K
Pressure            ... 1.00 atm
Total Mass          ... 287.36 AMU

Throughout the following assumptions are being made:
  (1) The electronic state is orbitally nondegenerate
  (2) There are no thermally accessible electronically excited states
  (3) Hindered rotations indicated by low frequency modes are not
      treated as such but are treated as vibrations and this may
      cause some error
  (4) All equations used are the standard statistical mechanics
      equations for an ideal gas
  (5) All vibrations are strictly harmonic

freq.      22.94  E(vib)   ...       0.56 
freq.      37.35  E(vib)   ...       0.54 
freq.      60.33  E(vib)   ...       0.51 
freq.      69.94  E(vib)   ...       0.50 
freq.      72.02  E(vib)   ...       0.50 
freq.      83.20  E(vib)   ...       0.48 
freq.     107.27  E(vib)   ...       0.45 
freq.     113.74  E(vib)   ...       0.44 
freq.     135.87  E(vib)   ...       0.42 
freq.     159.25  E(vib)   ...       0.39 
freq.     167.88  E(vib)   ...       0.38 
freq.     185.84  E(vib)   ...       0.37 
freq.     220.79  E(vib)   ...       0.33 
freq.     228.46  E(vib)   ...       0.32 
freq.     239.07  E(vib)   ...       0.32 
freq.     254.92  E(vib)   ...       0.30 
freq.     274.40  E(vib)   ...       0.28 
freq.     344.77  E(vib)   ...       0.23 
freq.     352.71  E(vib)   ...       0.22 
freq.     378.90  E(vib)   ...       0.21 
freq.     388.30  E(vib)   ...       0.20 
freq.     430.26  E(vib)   ...       0.18 
freq.     434.94  E(vib)   ...       0.17 
freq.     445.44  E(vib)   ...       0.17 
freq.     459.92  E(vib)   ...       0.16 
freq.     470.07  E(vib)   ...       0.16 
freq.     495.65  E(vib)   ...       0.14 
freq.     550.42  E(vib)   ...       0.12 
freq.     575.29  E(vib)   ...       0.11 
freq.     588.09  E(vib)   ...       0.10 
freq.     592.42  E(vib)   ...       0.10 
freq.     600.74  E(vib)   ...       0.10 
freq.     626.68  E(vib)   ...       0.09 
freq.     652.51  E(vib)   ...       0.08 
freq.     701.33  E(vib)   ...       0.07 
freq.     748.00  E(vib)   ...       0.06 
freq.     756.81  E(vib)   ...       0.06 
freq.     760.82  E(vib)   ...       0.06 
freq.     770.53  E(vib)   ...       0.05 
freq.     781.39  E(vib)   ...       0.05 
freq.     794.71  E(vib)   ...       0.05 
freq.     816.05  E(vib)   ...       0.05 
freq.     846.15  E(vib)   ...       0.04 
freq.     863.13  E(vib)   ...       0.04 
freq.     889.55  E(vib)   ...       0.04 
freq.     929.72  E(vib)   ...       0.03 
freq.     960.73  E(vib)   ...       0.03 
freq.     970.39  E(vib)   ...       0.03 
freq.    1002.99  E(vib)   ...       0.02 
freq.    1010.40  E(vib)   ...       0.02 
freq.    1025.35  E(vib)   ...       0.02 
freq.    1032.90  E(vib)   ...       0.02 
freq.    1038.48  E(vib)   ...       0.02 
freq.    1062.02  E(vib)   ...       0.02 
freq.    1078.84  E(vib)   ...       0.02 
freq.    1090.71  E(vib)   ...       0.02 
freq.    1108.73  E(vib)   ...       0.02 
freq.    1111.20  E(vib)   ...       0.01 
freq.    1135.28  E(vib)   ...       0.01 
freq.    1151.56  E(vib)   ...       0.01 
freq.    1168.07  E(vib)   ...       0.01 
freq.    1178.71  E(vib)   ...       0.01 
freq.    1184.57  E(vib)   ...       0.01 
freq.    1218.42  E(vib)   ...       0.01 
freq.    1249.72  E(vib)   ...       0.01 
freq.    1259.72  E(vib)   ...       0.01 
freq.    1281.16  E(vib)   ...       0.01 
freq.    1287.31  E(vib)   ...       0.01 
freq.    1295.41  E(vib)   ...       0.01 
freq.    1322.84  E(vib)   ...       0.01 
freq.    1341.72  E(vib)   ...       0.01 
freq.    1346.31  E(vib)   ...       0.01 
freq.    1373.20  E(vib)   ...       0.01 
freq.    1386.97  E(vib)   ...       0.00 
freq.    1397.35  E(vib)   ...       0.00 
freq.    1409.36  E(vib)   ...       0.00 
freq.    1415.49  E(vib)   ...       0.00 
freq.    1442.40  E(vib)   ...       0.00 
freq.    1457.45  E(vib)   ...       0.00 
freq.    1465.79  E(vib)   ...       0.00 
freq.    1474.45  E(vib)   ...       0.00 
freq.    1483.94  E(vib)   ...       0.00 
freq.    1490.33  E(vib)   ...       0.00 
freq.    1496.89  E(vib)   ...       0.00 
freq.    1500.77  E(vib)   ...       0.00 
freq.    1505.80  E(vib)   ...       0.00 
freq.    1509.80  E(vib)   ...       0.00 
freq.    1511.93  E(vib)   ...       0.00 
freq.    1518.72  E(vib)   ...       0.00 
freq.    1530.59  E(vib)   ...       0.00 
freq.    1533.97  E(vib)   ...       0.00 
freq.    1536.58  E(vib)   ...       0.00 
freq.    1556.19  E(vib)   ...       0.00 
freq.    1602.82  E(vib)   ...       0.00 
freq.    1629.74  E(vib)   ...       0.00 
freq.    1675.55  E(vib)   ...       0.00 
freq.    1707.35  E(vib)   ...       0.00 
freq.    1713.96  E(vib)   ...       0.00 
freq.    3033.09  E(vib)   ...       0.00 
freq.    3037.95  E(vib)   ...       0.00 
freq.    3054.61  E(vib)   ...       0.00 
freq.    3064.91  E(vib)   ...       0.00 
freq.    3083.24  E(vib)   ...       0.00 
freq.    3089.14  E(vib)   ...       0.00 
freq.    3096.11  E(vib)   ...       0.00 
freq.    3101.41  E(vib)   ...       0.00 
freq.    3117.86  E(vib)   ...       0.00 
freq.    3130.40  E(vib)   ...       0.00 
freq.    3143.13  E(vib)   ...       0.00 
freq.    3166.17  E(vib)   ...       0.00 
freq.    3171.37  E(vib)   ...       0.00 
freq.    3179.34  E(vib)   ...       0.00 
freq.    3188.25  E(vib)   ...       0.00 
freq.    3191.67  E(vib)   ...       0.00 
freq.    3192.94  E(vib)   ...       0.00 
freq.    3197.93  E(vib)   ...       0.00 
freq.    3208.19  E(vib)   ...       0.00 
freq.    3269.33  E(vib)   ...       0.00 
freq.    3652.57  E(vib)   ...       0.00 

------------
INNER ENERGY
------------

The inner energy is: U= E(el) + E(ZPE) + E(vib) + E(rot) + E(trans)
    E(el)   - is the total energy from the electronic structure calculation
              = E(kin-el) + E(nuc-el) + E(el-el) + E(nuc-nuc)
    E(ZPE)  - the the zero temperature vibrational energy from the frequency calculation
    E(vib)  - the the finite temperature correction to E(ZPE) due to population
              of excited vibrational states
    E(rot)  - is the rotational thermal energy
    E(trans)- is the translational thermal energy

Summary of contributions to the inner energy U:
Electronic energy                ...   -936.59777092 Eh
Zero point energy                ...      0.35559725 Eh     223.14 kcal/mol
Thermal vibrational correction   ...      0.01705038 Eh      10.70 kcal/mol
Thermal rotational correction    ...      0.00141627 Eh       0.89 kcal/mol
Thermal translational correction ...      0.00141627 Eh       0.89 kcal/mol
-----------------------------------------------------------------------
Total thermal energy                   -936.22229074 Eh


Summary of corrections to the electronic energy:
(perhaps to be used in another calculation)
Total thermal correction                  0.01988293 Eh      12.48 kcal/mol
Non-thermal (ZPE) correction              0.35559725 Eh     223.14 kcal/mol
-----------------------------------------------------------------------
Total correction                          0.37548018 Eh     235.62 kcal/mol


--------
ENTHALPY
--------

The enthalpy is H = U + kB*T
                kB is Boltzmann's constant
Total free energy                 ...   -936.22229074 Eh 
Thermal Enthalpy correction       ...      0.00094421 Eh       0.59 kcal/mol
-----------------------------------------------------------------------
Total Enthalpy                    ...   -936.22134653 Eh


Note: Only C1 symmetry has been detected, increase convergence thresholds 
      if your molecule has a higher symmetry. Symmetry factor of 1.0 is   
      used for the rotational entropy correction. 
 

Note: Rotational entropy computed according to Herzberg 
Infrared and Raman Spectra, Chapter V,1, Van Nostrand Reinhold, 1945 
Point Group:  C1, Symmetry Number:   1  
Rotational constants in cm-1:     0.017084     0.005930     0.004821 

Vibrational entropy computed according to the QRRHO of S. Grimme
Chem.Eur.J. 2012 18 9955


-------
ENTROPY
-------

The entropy contributions are T*S = T*(S(el)+S(vib)+S(rot)+S(trans))
     S(el)   - electronic entropy
     S(vib)  - vibrational entropy
     S(rot)  - rotational entropy
     S(trans)- translational entropy
The entropies will be listed as multiplied by the temperature to get
units of energy

Electronic entropy                ...      0.00000000 Eh      0.00 kcal/mol
Vibrational entropy               ...      0.03013030 Eh     18.91 kcal/mol
Rotational entropy                ...      0.01637133 Eh     10.27 kcal/mol
Translational entropy             ...      0.02036622 Eh     12.78 kcal/mol
-----------------------------------------------------------------------
Final entropy term                ...      0.06686785 Eh     41.96 kcal/mol

In case the symmetry of your molecule has not been determined correctly
or in case you have a reason to use a different symmetry number we print 
out the resulting rotational entropy values for sn=1,12 :
 --------------------------------------------------------
|  sn= 1 | S(rot)=       0.01637133 Eh     10.27 kcal/mol|
|  sn= 2 | S(rot)=       0.01571688 Eh      9.86 kcal/mol|
|  sn= 3 | S(rot)=       0.01533404 Eh      9.62 kcal/mol|
|  sn= 4 | S(rot)=       0.01506242 Eh      9.45 kcal/mol|
|  sn= 5 | S(rot)=       0.01485173 Eh      9.32 kcal/mol|
|  sn= 6 | S(rot)=       0.01467959 Eh      9.21 kcal/mol|
|  sn= 7 | S(rot)=       0.01453404 Eh      9.12 kcal/mol|
|  sn= 8 | S(rot)=       0.01440796 Eh      9.04 kcal/mol|
|  sn= 9 | S(rot)=       0.01429675 Eh      8.97 kcal/mol|
|  sn=10 | S(rot)=       0.01419728 Eh      8.91 kcal/mol|
|  sn=11 | S(rot)=       0.01410729 Eh      8.85 kcal/mol|
|  sn=12 | S(rot)=       0.01402513 Eh      8.80 kcal/mol|
 --------------------------------------------------------


-------------------
GIBBS FREE ENERGY
-------------------

The Gibbs free energy is G = H - T*S

Total enthalpy                    ...   -936.22134653 Eh 
Total entropy correction          ...     -0.06686785 Eh    -41.96 kcal/mol
-----------------------------------------------------------------------
Final Gibbs free energy         ...   -936.28821438 Eh

For completeness - the Gibbs free energy minus the electronic energy
G-E(el)                           ...      0.30955654 Eh    194.25 kcal/mol


Timings for individual modules:

Sum of individual times         ...     4342.819 sec (=  72.380 min)
GTO integral calculation        ...       47.443 sec (=   0.791 min)   1.1 %
SCF iterations                  ...     2477.325 sec (=  41.289 min)  57.0 %
SCF Gradient evaluation         ...      814.112 sec (=  13.569 min)  18.7 %
Geometry relaxation             ...        2.890 sec (=   0.048 min)   0.1 %
Analytical frequency calculation...     1001.049 sec (=  16.684 min)  23.1 %
                             ****ORCA TERMINATED NORMALLY****
TOTAL RUN TIME: 0 days 1 hours 12 minutes 34 seconds 87 msec
