
                                 *****************
                                 * O   R   C   A *
                                 *****************

                                            #,                                       
                                            ###                                      
                                            ####                                     
                                            #####                                    
                                            ######                                   
                                           ########,                                 
                                     ,,################,,,,,                         
                               ,,#################################,,                 
                          ,,##########################################,,             
                       ,#########################################, ''#####,          
                    ,#############################################,,   '####,        
                  ,##################################################,,,,####,       
                ,###########''''           ''''###############################       
              ,#####''   ,,,,##########,,,,          '''####'''          '####       
            ,##' ,,,,###########################,,,                        '##       
           ' ,,###''''                  '''############,,,                           
         ,,##''                                '''############,,,,        ,,,,,,###''
      ,#''                                            '''#######################'''  
     '                                                          ''''####''''         
             ,#######,   #######,   ,#######,      ##                                
            ,#'     '#,  ##    ##  ,#'     '#,    #''#        ######   ,####,        
            ##       ##  ##   ,#'  ##            #'  '#       #        #'  '#        
            ##       ##  #######   ##           ,######,      #####,   #    #        
            '#,     ,#'  ##    ##  '#,     ,#' ,#      #,         ##   #,  ,#        
             '#######'   ##     ##  '#######'  #'      '#     #####' # '####'        



                  #######################################################
                  #                        -***-                        #
                  #          Department of theory and spectroscopy      #
                  #    Directorship and core code : Frank Neese         #
                  #        Max Planck Institute fuer Kohlenforschung    #
                  #                Kaiser Wilhelm Platz 1               #
                  #                 D-45470 Muelheim/Ruhr               #
                  #                      Germany                        #
                  #                                                     #
                  #                  All rights reserved                #
                  #                        -***-                        #
                  #######################################################


                         Program Version 5.0.4 -  RELEASE  -


 With contributions from (in alphabetic order):
   Daniel Aravena         : Magnetic Suceptibility
   Michael Atanasov       : Ab Initio Ligand Field Theory (pilot matlab implementation)
   Alexander A. Auer      : GIAO ZORA, VPT2 properties, NMR spectrum
   Ute Becker             : Parallelization
   Giovanni Bistoni       : ED, misc. LED, open-shell LED, HFLD
   Martin Brehm           : Molecular dynamics
   Dmytro Bykov           : SCF Hessian
   Vijay G. Chilkuri      : MRCI spin determinant printing, contributions to CSF-ICE
   Dipayan Datta          : RHF DLPNO-CCSD density
   Achintya Kumar Dutta   : EOM-CC, STEOM-CC
   Dmitry Ganyushin       : Spin-Orbit,Spin-Spin,Magnetic field MRCI
   Miquel Garcia          : C-PCM and meta-GGA Hessian, CC/C-PCM, Gaussian charge scheme
   Yang Guo               : DLPNO-NEVPT2, F12-NEVPT2, CIM, IAO-localization
   Andreas Hansen         : Spin unrestricted coupled pair/coupled cluster methods
   Benjamin Helmich-Paris : MC-RPA, TRAH-SCF, COSX integrals
   Lee Huntington         : MR-EOM, pCC
   Robert Izsak           : Overlap fitted RIJCOSX, COSX-SCS-MP3, EOM
   Marcus Kettner         : VPT2
   Christian Kollmar      : KDIIS, OOCD, Brueckner-CCSD(T), CCSD density, CASPT2, CASPT2-K
   Simone Kossmann        : Meta GGA functionals, TD-DFT gradient, OOMP2, MP2 Hessian
   Martin Krupicka        : Initial AUTO-CI
   Lucas Lang             : DCDCAS
   Marvin Lechner         : AUTO-CI (C++ implementation), FIC-MRCC
   Dagmar Lenk            : GEPOL surface, SMD
   Dimitrios Liakos       : Extrapolation schemes; Compound Job, initial MDCI parallelization
   Dimitrios Manganas     : Further ROCIS development; embedding schemes
   Dimitrios Pantazis     : SARC Basis sets
   Anastasios Papadopoulos: AUTO-CI, single reference methods and gradients
   Taras Petrenko         : DFT Hessian,TD-DFT gradient, ASA, ECA, R-Raman, ABS, FL, XAS/XES, NRVS
   Peter Pinski           : DLPNO-MP2, DLPNO-MP2 Gradient
   Christoph Reimann      : Effective Core Potentials
   Marius Retegan         : Local ZFS, SOC
   Christoph Riplinger    : Optimizer, TS searches, QM/MM, DLPNO-CCSD(T), (RO)-DLPNO pert. Triples
   Tobias Risthaus        : Range-separated hybrids, TD-DFT gradient, RPA, STAB
   Michael Roemelt        : Original ROCIS implementation
   Masaaki Saitow         : Open-shell DLPNO-CCSD energy and density
   Barbara Sandhoefer     : DKH picture change effects
   Avijit Sen             : IP-ROCIS
   Kantharuban Sivalingam : CASSCF convergence, NEVPT2, FIC-MRCI
   Bernardo de Souza      : ESD, SOC TD-DFT
   Georgi Stoychev        : AutoAux, RI-MP2 NMR, DLPNO-MP2 response
   Willem Van den Heuvel  : Paramagnetic NMR
   Boris Wezisla          : Elementary symmetry handling
   Frank Wennmohs         : Technical directorship


 We gratefully acknowledge several colleagues who have allowed us to
 interface, adapt or use parts of their codes:
   Stefan Grimme, W. Hujo, H. Kruse, P. Pracht,  : VdW corrections, initial TS optimization,
                  C. Bannwarth, S. Ehlert          DFT functionals, gCP, sTDA/sTD-DF
   Ed Valeev, F. Pavosevic, A. Kumar             : LibInt (2-el integral package), F12 methods
   Garnet Chan, S. Sharma, J. Yang, R. Olivares  : DMRG
   Ulf Ekstrom                                   : XCFun DFT Library
   Mihaly Kallay                                 : mrcc  (arbitrary order and MRCC methods)
   Jiri Pittner, Ondrej Demel                    : Mk-CCSD
   Frank Weinhold                                : gennbo (NPA and NBO analysis)
   Christopher J. Cramer and Donald G. Truhlar   : smd solvation model
   Lars Goerigk                                  : TD-DFT with DH, B97 family of functionals
   V. Asgeirsson, H. Jonsson                     : NEB implementation
   FAccTs GmbH                                   : IRC, NEB, NEB-TS, DLPNO-Multilevel, CI-OPT
                                                   MM, QMMM, 2- and 3-layer-ONIOM, Crystal-QMMM,
                                                   LR-CPCM, SF, NACMEs, symmetry and pop. for TD-DFT,
                                                   nearIR, NL-DFT gradient (VV10), updates on ESD,
                                                   ML-optimized integration grids
   S Lehtola, MJT Oliveira, MAL Marques          : LibXC Library
   Liviu Ungur et al                             : ANISO software


 Your calculation uses the libint2 library for the computation of 2-el integrals
 For citations please refer to: http://libint.valeyev.net

 Your ORCA version has been built with support for libXC version: 5.1.0
 For citations please refer to: https://tddft.org/programs/libxc/

 This ORCA versions uses:
   CBLAS   interface :  Fast vector & matrix operations
   LAPACKE interface :  Fast linear algebra routines
   SCALAPACK package :  Parallel linear algebra routines
   Shared memory     :  Shared parallel matrices
   BLAS/LAPACK       :  OpenBLAS 0.3.15  USE64BITINT DYNAMIC_ARCH NO_AFFINITY SkylakeX SINGLE_THREADED
        Core in use  :  SkylakeX
   Copyright (c) 2011-2014, The OpenBLAS Project




***************************************
The coordinates will be read from file: /users/fjb15167/WWenergy/structures/Ne.xyz
***************************************


Your calculation utilizes the atom-pairwise dispersion correction
based on tight binding partial charges (D4)
Cite in your paper:
E.Caldeweyher, C.Bannwarth, S.Grimme, J.Chem.Phys., (2017), 147, 034112.
E.Caldeweyher, S.Ehlert, A.Hansen, H.Neugebauer, S.Grimme, J.Chem.Phys., (2018), in progress.
   

================================================================================

----- Orbital basis set information -----
Your calculation utilizes the basis: 6-31+G(d)
   H-He, Li-Ne : W. J. Hehre, R. Ditchfield and J.A. Pople, J. Chem. Phys. 56, 2257 (1972).
                 Note: He and Ne are unpublished basis sets taken from the Gaussian program.
                 Note: Li and B from J. D. Dill and J. A. Pople, J. Chem. Phys. 62, 2921 (1975).
   Na - Ar     : M. M. Francl, W. J. Pietro, W. J. Hehre, J. S. Binkley, M. S. Gordon, 
                 D. J. DeFrees and J. A. Pople, J. Chem. Phys. 77, 3654 (1982).
   K - Zn      : V. A. Rassolov, J. A. Pople, M. A. Ratner, and T. L. Windus, J. Chem. Phys. 109, 1223 (1998).
   Additional Pol./Diff. from the 6-311G equivalent.

----- AuxJ basis set information -----
Your calculation utilizes the AutoAux generation procedure.
  G. L. Stoychev, A. A. Auer, F. Neese, J. Chem. Theory Comput. 13, 554 (2017)

----- AuxC basis set information -----
Your calculation utilizes the AutoAux generation procedure.
  G. L. Stoychev, A. A. Auer, F. Neese, J. Chem. Theory Comput. 13, 554 (2017)

----- AuxJK basis set information -----
Your calculation utilizes the AutoAux generation procedure.
  G. L. Stoychev, A. A. Auer, F. Neese, J. Chem. Theory Comput. 13, 554 (2017)

================================================================================
                                        WARNINGS
                       Please study these warnings very carefully!
================================================================================


WARNING: Geometry Optimization
  ===> : Switching off AutoStart
         For restart on a previous wavefunction, please use MOREAD

INFO   : the flag for use of the SHARK integral package has been found!

================================================================================
                                       INPUT FILE
================================================================================
NAME = Ne_octanol.inp
|  1> ! OPT FREQ B3LYP 6-31+G(d) D4 AUTOAUX
|  2> ! CPCM
|  3> 
|  4> %cpcm
|  5> epsilon 9.8629 
|  6> refrac  1.4295 
|  7> end
|  8> 
|  9> %PAL NPROCS 4 END
| 10> 
| 11> %maxcore 3375
| 12> 
| 13> *xyzfile -1 1 /users/fjb15167/WWenergy/structures/Ne.xyz
| 14> 
| 15>                          ****END OF INPUT****
================================================================================

                       *****************************
                       * Geometry Optimization Run *
                       *****************************

Geometry optimization settings:
Update method            Update   .... BFGS
Choice of coordinates    CoordSys .... Z-matrix Internals
Initial Hessian          InHess   .... Almoef's Model

Convergence Tolerances:
Energy Change            TolE     ....  5.0000e-06 Eh
Max. Gradient            TolMAXG  ....  3.0000e-04 Eh/bohr
RMS Gradient             TolRMSG  ....  1.0000e-04 Eh/bohr
Max. Displacement        TolMAXD  ....  4.0000e-03 bohr
RMS Displacement         TolRMSD  ....  2.0000e-03 bohr
Strict Convergence                ....  False
------------------------------------------------------------------------------
                        ORCA OPTIMIZATION COORDINATE SETUP
------------------------------------------------------------------------------

The optimization will be done in new redundant internal coordinates
Making redundant internal coordinates   ...  (new redundants) done
Evaluating the initial hessian          ...  (Almloef) done
Evaluating the coordinates              ...  done
Calculating the B-matrix                .... done
Calculating the G-matrix                .... done
Diagonalizing the G-matrix              .... done
Small eigenvalue found = 5.135e-03
Small eigenvalue found = 7.696e-03
Small eigenvalue found = 1.393e-02
Small eigenvalue found = 1.560e-02
The first mode is                       ....   55
The number of degrees of freedom        ....   84

    -----------------------------------------------------------------
                    Redundant Internal Coordinates


    -----------------------------------------------------------------
         Definition                    Initial Value    Approx d2E/dq
    -----------------------------------------------------------------
      1. B(H   1,C   0)                  1.0941         0.354704   
      2. B(H   2,C   0)                  1.0972         0.350753   
      3. B(H   3,C   0)                  1.0919         0.357574   
      4. B(C   4,C   0)                  1.5334         0.368962   
      5. B(O   5,C   4)                  1.2283         1.013542   
      6. B(N   6,C   4)                  1.3709         0.600290   
      7. B(C   7,N   6)                  1.4564         0.438411   
      8. B(H   8,C   7)                  1.0956         0.352729   
      9. B(H   9,C   7)                  1.0937         0.355292   
     10. B(C  10,N   6)                  1.4759         0.408168   
     11. B(H  11,C  10)                  1.0926         0.356629   
     12. B(H  12,C  10)                  1.0962         0.352041   
     13. B(C  13,C  10)                  1.5308         0.372487   
     14. B(H  14,C  13)                  1.0945         0.354201   
     15. B(H  15,C  13)                  1.0978         0.349881   
     16. B(C  16,C   7)                  1.5260         0.379172   
     17. B(N  17,C  16)                  1.3670         0.608823   
     18. B(O  18,C  16)                  1.2459         0.950282   
     19. B(C  19,N  17)                  1.4566         0.438098   
     20. B(H  20,C  19)                  1.0980         0.349710   
     21. B(H  21,C  19)                  1.0967         0.351328   
     22. B(H  22,C  19)                  1.0889         0.361600   
     23. B(C  23,N  17)                  1.4561         0.438970   
     24. B(H  24,C  23)                  1.0980         0.349696   
     25. B(H  25,C  23)                  1.0896         0.360614   
     26. B(H  26,C  23)                  1.0952         0.353339   
     27. B(C  27,C  13)                  1.5641         0.329640   
     28. B(O  28,C  27)                  1.2725         0.861769   
     29. B(O  29,C  27)                  1.2640         0.888964   
     30. A(H   1,C   0,C   4)          114.6610         0.322857   
     31. A(H   3,C   0,C   4)          106.6071         0.323284   
     32. A(H   2,C   0,H   3)          108.4109         0.289322   
     33. A(H   1,C   0,H   3)          110.9775         0.289831   
     34. A(H   1,C   0,H   2)          106.5435         0.288957   
     35. A(H   2,C   0,C   4)          109.5166         0.322265   
     36. A(C   0,C   4,O   5)          121.1031         0.429100   
     37. A(O   5,C   4,N   6)          123.5163         0.465584   
     38. A(C   0,C   4,N   6)          115.3805         0.391078   
     39. A(C   4,N   6,C  10)          124.3524         0.395519   
     40. A(C   7,N   6,C  10)          117.1963         0.374474   
     41. A(C   4,N   6,C   7)          118.4476         0.400518   
     42. A(H   8,C   7,H   9)          108.9955         0.289287   
     43. A(N   6,C   7,H   9)          108.0662         0.330256   
     44. A(H   9,C   7,C  16)          112.6502         0.324395   
     45. A(H   8,C   7,C  16)          105.3065         0.324010   
     46. A(N   6,C   7,C  16)          112.0243         0.372082   
     47. A(N   6,C   7,H   8)          109.7328         0.329861   
     48. A(H  12,C  10,C  13)          111.1349         0.322962   
     49. A(H  11,C  10,C  13)          107.8370         0.323649   
     50. A(N   6,C  10,C  13)          114.2168         0.366420   
     51. A(H  11,C  10,H  12)          107.7461         0.289368   
     52. A(N   6,C  10,H  12)          106.5347         0.325891   
     53. A(N   6,C  10,H  11)          109.1907         0.326586   
     54. A(H  14,C  13,H  15)          107.0423         0.288780   
     55. A(H  15,C  13,C  27)          105.6180         0.316263   
     56. A(C  10,C  13,H  15)          109.1713         0.322636   
     57. A(C  10,C  13,H  14)          112.2067         0.323286   
     58. A(H  14,C  13,C  27)          108.8358         0.316895   
     59. A(C  10,C  13,C  27)          113.5634         0.355515   
     60. A(N  17,C  16,O  18)          122.3309         0.461318   
     61. A(C   7,C  16,O  18)          119.4952         0.426252   
     62. A(C   7,C  16,N  17)          118.1710         0.393923   
     63. A(C  16,N  17,C  19)          124.6576         0.401465   
     64. A(C  19,N  17,C  23)          115.0433         0.379167   
     65. A(C  16,N  17,C  23)          118.2167         0.401605   
     66. A(H  21,C  19,H  22)          108.5533         0.289905   
     67. A(H  20,C  19,H  22)          108.7932         0.289695   
     68. A(N  17,C  19,H  22)          111.6905         0.331180   
     69. A(H  20,C  19,H  21)          108.4009         0.288390   
     70. A(N  17,C  19,H  21)          108.2452         0.329605   
     71. A(N  17,C  19,H  20)          111.0706         0.329354   
     72. A(H  25,C  23,H  26)          109.9787         0.290040   
     73. A(H  24,C  23,H  26)          109.1140         0.288646   
     74. A(N  17,C  23,H  26)          109.1496         0.330025   
     75. A(H  24,C  23,H  25)          109.2687         0.289569   
     76. A(N  17,C  23,H  25)          108.9966         0.331139   
     77. A(N  17,C  23,H  24)          110.3235         0.329460   
     78. A(O  28,C  27,O  29)          129.3008         0.485745   
     79. A(C  13,C  27,O  29)          114.9460         0.410838   
     80. A(C  13,C  27,O  28)          115.6701         0.408583   
     81. D(O   5,C   4,C   0,H   2)     99.6537         0.010198   
     82. D(O   5,C   4,C   0,H   1)   -140.6664         0.010198   
     83. D(N   6,C   4,C   0,H   1)     39.2071         0.010198   
     84. D(N   6,C   4,C   0,H   2)    -80.4728         0.010198   
     85. D(O   5,C   4,C   0,H   3)    -17.4357         0.010198   
     86. D(N   6,C   4,C   0,H   3)    162.4377         0.010198   
     87. D(C   7,N   6,C   4,C   0)    177.4987         0.029038   
     88. D(C  10,N   6,C   4,C   0)     -1.7794         0.029038   
     89. D(C   7,N   6,C   4,O   5)     -2.6312         0.029038   
     90. D(C  10,N   6,C   4,O   5)    178.0907         0.029038   
     91. D(C  16,C   7,N   6,C   4)    125.1810         0.016389   
     92. D(H   9,C   7,N   6,C   4)      0.5063         0.016389   
     93. D(H   8,C   7,N   6,C  10)     61.1025         0.016389   
     94. D(H   9,C   7,N   6,C  10)    179.8363         0.016389   
     95. D(H   8,C   7,N   6,C   4)   -118.2274         0.016389   
     96. D(C  16,C   7,N   6,C  10)    -55.4891         0.016389   
     97. D(C  13,C  10,N   6,C   7)     91.9125         0.014214   
     98. D(C  13,C  10,N   6,C   4)    -88.8011         0.014214   
     99. D(H  12,C  10,N   6,C   7)    -31.1760         0.014214   
    100. D(H  12,C  10,N   6,C   4)    148.1104         0.014214   
    101. D(H  11,C  10,N   6,C   7)   -147.2788         0.014214   
    102. D(H  11,C  10,N   6,C   4)     32.0076         0.014214   
    103. D(C  27,C  13,C  10,H  11)     16.6742         0.011083   
    104. D(C  27,C  13,C  10,N   6)    138.2319         0.011083   
    105. D(H  15,C  13,C  10,H  12)    141.2368         0.011083   
    106. D(H  15,C  13,C  10,H  11)   -100.8801         0.011083   
    107. D(H  15,C  13,C  10,N   6)     20.6776         0.011083   
    108. D(H  14,C  13,C  10,H  12)     22.7422         0.011083   
    109. D(H  14,C  13,C  10,H  11)    140.6253         0.011083   
    110. D(C  27,C  13,C  10,H  12)   -101.2089         0.011083   
    111. D(H  14,C  13,C  10,N   6)    -97.8170         0.011083   
    112. D(O  18,C  16,C   7,H   9)   -125.7583         0.010731   
    113. D(O  18,C  16,C   7,H   8)     -7.0810         0.010731   
    114. D(O  18,C  16,C   7,N   6)    112.1492         0.010731   
    115. D(N  17,C  16,C   7,H   9)     53.6396         0.010731   
    116. D(N  17,C  16,C   7,H   8)    172.3169         0.010731   
    117. D(N  17,C  16,C   7,N   6)    -68.4528         0.010731   
    118. D(C  23,N  17,C  16,O  18)    -13.2034         0.029931   
    119. D(C  23,N  17,C  16,C   7)    167.4168         0.029931   
    120. D(C  19,N  17,C  16,O  18)   -175.9428         0.029931   
    121. D(C  19,N  17,C  16,C   7)      4.6774         0.029931   
    122. D(H  22,C  19,N  17,C  16)    -22.4952         0.016365   
    123. D(H  21,C  19,N  17,C  23)     54.8271         0.016365   
    124. D(H  21,C  19,N  17,C  16)   -141.9464         0.016365   
    125. D(H  20,C  19,N  17,C  23)    -64.0675         0.016365   
    126. D(H  22,C  19,N  17,C  23)    174.2783         0.016365   
    127. D(H  20,C  19,N  17,C  16)     99.1590         0.016365   
    128. D(H  26,C  23,N  17,C  19)    -51.3920         0.016431   
    129. D(H  26,C  23,N  17,C  16)    144.2364         0.016431   
    130. D(H  25,C  23,N  17,C  19)   -171.5284         0.016431   
    131. D(H  25,C  23,N  17,C  16)     24.0999         0.016431   
    132. D(H  24,C  23,N  17,C  19)     68.4926         0.016431   
    133. D(H  24,C  23,N  17,C  16)    -95.8791         0.016431   
    134. D(O  29,C  27,C  13,H  14)     30.2797         0.008312   
    135. D(O  29,C  27,C  13,C  10)    156.0428         0.008312   
    136. D(O  28,C  27,C  13,H  15)     92.6390         0.008312   
    137. D(O  28,C  27,C  13,H  14)   -152.7224         0.008312   
    138. D(O  29,C  27,C  13,H  15)    -84.3588         0.008312   
    139. D(O  28,C  27,C  13,C  10)    -26.9594         0.008312   
    -----------------------------------------------------------------

Number of atoms                         .... 30
Number of degrees of freedom            .... 139

         *************************************************************
         *                GEOMETRY OPTIMIZATION CYCLE   1            *
         *************************************************************
---------------------------------
CARTESIAN COORDINATES (ANGSTROEM)
---------------------------------
  C     -0.487000    2.819000    0.493000
  H     -1.263000    2.069000    0.673000
  H     -0.837000    3.436000   -0.344000
  H     -0.356000    3.463000    1.365000
  C      0.895000    2.243000    0.162000
  O      1.919000    2.755000    0.607000
  N      0.892000    1.137000   -0.648000
  C      2.171000    0.568000   -1.050000
  H      2.271000    0.616000   -2.140000
  H      2.966000    1.164000   -0.593000
  C     -0.328000    0.483000   -1.160000
  H     -1.105000    1.237000   -1.307000
  H     -0.072000    0.071000   -2.143000
  C     -0.894000   -0.600000   -0.238000
  H     -0.585000   -1.605000   -0.542000
  H     -0.515000   -0.441000    0.780000
  C      2.273000   -0.914000   -0.701000
  N      2.341000   -1.263000    0.619000
  O      2.303000   -1.759000   -1.616000
  C      2.226000   -0.328000    1.730000
  H      1.212000   -0.338000    2.151000
  H      2.929000   -0.637000    2.513000
  H      2.470000    0.689000    1.427000
  C      2.158000   -2.664000    0.971000
  H      1.115000   -2.852000    1.258000
  H      2.411000   -3.282000    0.110000
  H      2.812000   -2.911000    1.814000
  C     -2.453000   -0.566000   -0.117000
  O     -2.996000    0.569000   -0.307000
  O     -2.986000   -1.663000    0.215000

----------------------------
CARTESIAN COORDINATES (A.U.)
----------------------------
  NO LB      ZA    FRAG     MASS         X           Y           Z
   0 C     6.0000    0    12.011   -0.920297    5.327138    0.931635
   1 H     1.0000    0     1.008   -2.386724    3.909843    1.271786
   2 H     1.0000    0     1.008   -1.581701    6.493099   -0.650066
   3 H     1.0000    0     1.008   -0.672743    6.544122    2.579476
   4 C     6.0000    0    12.011    1.691305    4.238656    0.306136
   5 O     8.0000    0    15.999    3.626384    5.206195    1.147064
   6 N     7.0000    0    14.007    1.685636    2.148619   -1.224543
   7 C     6.0000    0    12.011    4.102595    1.073364   -1.984212
   8 H     1.0000    0     1.008    4.291568    1.164071   -4.044014
   9 H     1.0000    0     1.008    5.604928    2.199641   -1.120608
  10 C     6.0000    0    12.011   -0.619830    0.912738   -2.192082
  11 H     1.0000    0     1.008   -2.088147    2.337591   -2.469872
  12 H     1.0000    0     1.008   -0.136060    0.134171   -4.049683
  13 C     6.0000    0    12.011   -1.689415   -1.133836   -0.449755
  14 H     1.0000    0     1.008   -1.105490   -3.033010   -1.024232
  15 H     1.0000    0     1.008   -0.973209   -0.833369    1.473986
  16 C     6.0000    0    12.011    4.295348   -1.727210   -1.324698
  17 N     7.0000    0    14.007    4.423849   -2.386724    1.169740
  18 O     8.0000    0    15.999    4.352039   -3.324028   -3.053797
  19 C     6.0000    0    12.011    4.206530   -0.619830    3.269226
  20 H     1.0000    0     1.008    2.290348   -0.638727    4.064801
  21 H     1.0000    0     1.008    5.535008   -1.203756    4.748882
  22 H     1.0000    0     1.008    4.667624    1.302021    2.696639
  23 C     6.0000    0    12.011    4.078029   -5.034230    1.834924
  24 H     1.0000    0     1.008    2.107045   -5.389499    2.377275
  25 H     1.0000    0     1.008    4.556130   -6.202081    0.207870
  26 H     1.0000    0     1.008    5.313910   -5.500993    3.427963
  27 C     6.0000    0    12.011   -4.635498   -1.069585   -0.221098
  28 O     8.0000    0    15.999   -5.661619    1.075254   -0.580146
  29 O     8.0000    0    15.999   -5.642722   -3.142615    0.406291

--------------------------------
INTERNAL COORDINATES (ANGSTROEM)
--------------------------------
 C      0   0   0     0.000000000000     0.00000000     0.00000000
 H      1   0   0     1.094109683715     0.00000000     0.00000000
 H      1   2   0     1.097159058660   106.54353617     0.00000000
 H      1   2   3     1.091916205576   110.97752046   117.82321123
 C      1   2   3     1.533382209366   114.66096006   238.67700323
 O      5   1   2     1.228309814338   121.10308337   219.33361627
 N      5   1   2     1.370892045349   115.38053461    39.20708700
 C      7   5   1     1.456436061075   118.44756805   177.49873195
 H      8   7   5     1.095629499420   109.73281261   241.77260311
 H      8   7   5     1.093658996214   108.06623895     0.50634326
 C      7   5   1     1.475892950048   124.35237581   358.22063216
 H     11   7   5     1.092636261525   109.19070715    32.00761218
 H     11   7   5     1.096161028317   106.53469897   148.11037411
 C     11   7   5     1.530793585040   114.21679524   271.19891660
 H     14  11   7     1.094496231149   112.20666629   262.18302678
 H     14  11   7     1.097836964216   109.17127604    20.67759348
 C      8   7   5     1.525951834102   112.02427864   125.18098510
 N     17   8   7     1.367049743060   118.17097349   291.54715886
 O     17   8   7     1.245853121359   119.49524689   112.14921984
 C     18  17   8     1.456630014794   124.65755266     4.67738052
 H     20  18  17     1.097969489558   111.07064250    99.15904384
 H     20  18  17     1.096712815645   108.24517797   218.05362443
 H     20  18  17     1.088868219758   111.69046529   337.50483035
 C     18  17   8     1.456088596206   118.21669685   167.41678705
 H     24  18  17     1.097980874150   110.32350345   264.12094861
 H     24  18  17     1.089611857498   108.99655791    24.09992856
 H     24  18  17     1.095159349136   109.14956281   144.23639082
 C     14  11   7     1.564058183061   113.56339839   138.23190813
 O     28  14  11     1.272467681318   115.67006218   333.04060846
 O     28  14  11     1.264010284768   114.94599464   156.04277832

---------------------------
INTERNAL COORDINATES (A.U.)
---------------------------
 C      0   0   0     0.000000000000     0.00000000     0.00000000
 H      1   0   0     2.067567662693     0.00000000     0.00000000
 H      1   2   0     2.073330146219   106.54353617     0.00000000
 H      1   2   3     2.063422589730   110.97752046   117.82321123
 C      1   2   3     2.897672434329   114.66096006   238.67700323
 O      5   1   2     2.321169156707   121.10308337   219.33361627
 N      5   1   2     2.590610524880   115.38053461    39.20708700
 C      7   5   1     2.752265286999   118.44756805   177.49873195
 H      8   7   5     2.070439698150   109.73281261   241.77260311
 H      8   7   5     2.066715986744   108.06623895     0.50634326
 C      7   5   1     2.789033478575   124.35237581   358.22063216
 H     11   7   5     2.064783298274   109.19070715    32.00761218
 H     11   7   5     2.071444142196   106.53469897   148.11037411
 C     11   7   5     2.892780643289   114.21679524   271.19891660
 H     14  11   7     2.068298131481   112.20666629   262.18302678
 H     14  11   7     2.074611202065   109.17127604    20.67759348
 C      8   7   5     2.883631060008   112.02427864   125.18098510
 N     17   8   7     2.583349625831   118.17097349   291.54715886
 O     17   8   7     2.354321202459   119.49524689   112.14921984
 C     18  17   8     2.752631806411   124.65755266     4.67738052
 H     20  18  17     2.074861638666   111.07064250    99.15904384
 H     20  18  17     2.072486869131   108.24517797   218.05362443
 H     20  18  17     2.057662731274   111.69046529   337.50483035
 C     18  17   8     2.751608673554   118.21669685   167.41678705
 H     24  18  17     2.074883152428   110.32350345   264.12094861
 H     24  18  17     2.059068002944   108.99655791    24.09992856
 H     24  18  17     2.069551242870   109.14956281   144.23639082
 C     14  11   7     2.955641623504   113.56339839   138.23190813
 O     28  14  11     2.404615431958   115.67006218   333.04060846
 O     28  14  11     2.388633268672   114.94599464   156.04277832

---------------------
BASIS SET INFORMATION
---------------------
There are 4 groups of distinct atoms

 Group   1 Type C   : 11s5p1d contracted to 4s3p1d pattern {6311/311/1}
 Group   2 Type H   : 4s contracted to 2s pattern {31}
 Group   3 Type O   : 11s5p1d contracted to 4s3p1d pattern {6311/311/1}
 Group   4 Type N   : 11s5p1d contracted to 4s3p1d pattern {6311/311/1}

Atom   0C    basis set group =>   1
Atom   1H    basis set group =>   2
Atom   2H    basis set group =>   2
Atom   3H    basis set group =>   2
Atom   4C    basis set group =>   1
Atom   5O    basis set group =>   3
Atom   6N    basis set group =>   4
Atom   7C    basis set group =>   1
Atom   8H    basis set group =>   2
Atom   9H    basis set group =>   2
Atom  10C    basis set group =>   1
Atom  11H    basis set group =>   2
Atom  12H    basis set group =>   2
Atom  13C    basis set group =>   1
Atom  14H    basis set group =>   2
Atom  15H    basis set group =>   2
Atom  16C    basis set group =>   1
Atom  17N    basis set group =>   4
Atom  18O    basis set group =>   3
Atom  19C    basis set group =>   1
Atom  20H    basis set group =>   2
Atom  21H    basis set group =>   2
Atom  22H    basis set group =>   2
Atom  23C    basis set group =>   1
Atom  24H    basis set group =>   2
Atom  25H    basis set group =>   2
Atom  26H    basis set group =>   2
Atom  27C    basis set group =>   1
Atom  28O    basis set group =>   3
Atom  29O    basis set group =>   3
---------------------------------
AUXILIARY/J BASIS SET INFORMATION
---------------------------------
There are 4 groups of distinct atoms

 Group   1 Type C   : 16s13p12d2f contracted to 16s13p12d2f pattern {1111111111111111/1111111111111/111111111111/11}
 Group   2 Type H   : 9s2p contracted to 9s2p pattern {111111111/11}
 Group   3 Type O   : 16s13p12d3f contracted to 16s13p12d3f pattern {1111111111111111/1111111111111/111111111111/111}
 Group   4 Type N   : 16s13p12d3f contracted to 16s13p12d3f pattern {1111111111111111/1111111111111/111111111111/111}

Atom   0C    basis set group =>   1
Atom   1H    basis set group =>   2
Atom   2H    basis set group =>   2
Atom   3H    basis set group =>   2
Atom   4C    basis set group =>   1
Atom   5O    basis set group =>   3
Atom   6N    basis set group =>   4
Atom   7C    basis set group =>   1
Atom   8H    basis set group =>   2
Atom   9H    basis set group =>   2
Atom  10C    basis set group =>   1
Atom  11H    basis set group =>   2
Atom  12H    basis set group =>   2
Atom  13C    basis set group =>   1
Atom  14H    basis set group =>   2
Atom  15H    basis set group =>   2
Atom  16C    basis set group =>   1
Atom  17N    basis set group =>   4
Atom  18O    basis set group =>   3
Atom  19C    basis set group =>   1
Atom  20H    basis set group =>   2
Atom  21H    basis set group =>   2
Atom  22H    basis set group =>   2
Atom  23C    basis set group =>   1
Atom  24H    basis set group =>   2
Atom  25H    basis set group =>   2
Atom  26H    basis set group =>   2
Atom  27C    basis set group =>   1
Atom  28O    basis set group =>   3
Atom  29O    basis set group =>   3
---------------------------------
AUXILIARY/C BASIS SET INFORMATION
---------------------------------
There are 4 groups of distinct atoms

 Group   1 Type C   : 16s13p12d2f contracted to 16s13p12d2f pattern {1111111111111111/1111111111111/111111111111/11}
 Group   2 Type H   : 9s2p contracted to 9s2p pattern {111111111/11}
 Group   3 Type O   : 16s13p12d3f contracted to 16s13p12d3f pattern {1111111111111111/1111111111111/111111111111/111}
 Group   4 Type N   : 16s13p12d3f contracted to 16s13p12d3f pattern {1111111111111111/1111111111111/111111111111/111}

Atom   0C    basis set group =>   1
Atom   1H    basis set group =>   2
Atom   2H    basis set group =>   2
Atom   3H    basis set group =>   2
Atom   4C    basis set group =>   1
Atom   5O    basis set group =>   3
Atom   6N    basis set group =>   4
Atom   7C    basis set group =>   1
Atom   8H    basis set group =>   2
Atom   9H    basis set group =>   2
Atom  10C    basis set group =>   1
Atom  11H    basis set group =>   2
Atom  12H    basis set group =>   2
Atom  13C    basis set group =>   1
Atom  14H    basis set group =>   2
Atom  15H    basis set group =>   2
Atom  16C    basis set group =>   1
Atom  17N    basis set group =>   4
Atom  18O    basis set group =>   3
Atom  19C    basis set group =>   1
Atom  20H    basis set group =>   2
Atom  21H    basis set group =>   2
Atom  22H    basis set group =>   2
Atom  23C    basis set group =>   1
Atom  24H    basis set group =>   2
Atom  25H    basis set group =>   2
Atom  26H    basis set group =>   2
Atom  27C    basis set group =>   1
Atom  28O    basis set group =>   3
Atom  29O    basis set group =>   3
----------------------------------
AUXILIARY/JK BASIS SET INFORMATION
----------------------------------
There are 4 groups of distinct atoms

 Group   1 Type C   : 16s13p12d2f contracted to 16s13p12d2f pattern {1111111111111111/1111111111111/111111111111/11}
 Group   2 Type H   : 9s2p contracted to 9s2p pattern {111111111/11}
 Group   3 Type O   : 16s13p12d3f contracted to 16s13p12d3f pattern {1111111111111111/1111111111111/111111111111/111}
 Group   4 Type N   : 16s13p12d3f contracted to 16s13p12d3f pattern {1111111111111111/1111111111111/111111111111/111}

Atom   0C    basis set group =>   1
Atom   1H    basis set group =>   2
Atom   2H    basis set group =>   2
Atom   3H    basis set group =>   2
Atom   4C    basis set group =>   1
Atom   5O    basis set group =>   3
Atom   6N    basis set group =>   4
Atom   7C    basis set group =>   1
Atom   8H    basis set group =>   2
Atom   9H    basis set group =>   2
Atom  10C    basis set group =>   1
Atom  11H    basis set group =>   2
Atom  12H    basis set group =>   2
Atom  13C    basis set group =>   1
Atom  14H    basis set group =>   2
Atom  15H    basis set group =>   2
Atom  16C    basis set group =>   1
Atom  17N    basis set group =>   4
Atom  18O    basis set group =>   3
Atom  19C    basis set group =>   1
Atom  20H    basis set group =>   2
Atom  21H    basis set group =>   2
Atom  22H    basis set group =>   2
Atom  23C    basis set group =>   1
Atom  24H    basis set group =>   2
Atom  25H    basis set group =>   2
Atom  26H    basis set group =>   2
Atom  27C    basis set group =>   1
Atom  28O    basis set group =>   3
Atom  29O    basis set group =>   3


           ************************************************************
           *        Program running with 4 parallel MPI-processes     *
           *              working on a common directory               *
           ************************************************************
------------------------------------------------------------------------------
                           ORCA GTO INTEGRAL CALCULATION
                           -- RI-GTO INTEGRALS CHOSEN --
------------------------------------------------------------------------------
------------------------------------------------------------------------------
                   ___                                                        
                  /   \      - P O W E R E D   B Y -                         
                 /     \                                                     
                 |  |  |   _    _      __       _____    __    __             
                 |  |  |  | |  | |    /  \     |  _  \  |  |  /  |          
                  \  \/   | |  | |   /    \    | | | |  |  | /  /          
                 / \  \   | |__| |  /  /\  \   | |_| |  |  |/  /          
                |  |  |   |  __  | /  /__\  \  |    /   |      \           
                |  |  |   | |  | | |   __   |  |    \   |  |\   \          
                \     /   | |  | | |  |  |  |  | |\  \  |  | \   \       
                 \___/    |_|  |_| |__|  |__|  |_| \__\ |__|  \__/        
                                                                              
                      - O R C A' S   B I G   F R I E N D -                    
                                      &                                       
                       - I N T E G R A L  F E E D E R -                       
                                                                              
 v1 FN, 2020, v2 2021                                                         
------------------------------------------------------------------------------


Reading SHARK input file Ne_octanol.SHARKINP.tmp ... ok
----------------------
SHARK INTEGRAL PACKAGE
----------------------

Number of atoms                             ...     30
Number of basis functions                   ...    300
Number of shells                            ...    150
Maximum angular momentum                    ...      2
Integral batch strategy                     ... SHARK/LIBINT Hybrid
RI-J (if used) integral strategy            ... SPLIT-RIJ (Revised 2003 algorithm where possible)
Printlevel                                  ...      1
Contraction scheme used                     ... SEGMENTED contraction
Coulomb Range Separation                    ... NOT USED
Exchange Range Separation                   ... NOT USED
Finite Nucleus Model                        ... NOT USED
Auxiliary Coulomb fitting basis             ... AVAILABLE
   # of basis functions in Aux-J            ...   2202
   # of shells in Aux-J                     ...    816
   Maximum angular momentum in Aux-J        ...      3
Auxiliary J/K fitting basis                 ... AVAILABLE
   # of basis functions in Aux-JK           ...   2202
   # of shells in Aux-JK                    ...    816
   Maximum angular momentum in Aux-JK       ...      3
Auxiliary Correlation fitting basis         ... AVAILABLE
   # of basis functions in Aux-C            ...   2202
   # of shells in Aux-C                     ...    816
   Maximum angular momentum in Aux-C        ...      3
Auxiliary 'external' fitting basis          ... NOT available
Integral threshold                          ...     2.500000e-11
Primitive cut-off                           ...     2.500000e-12
Primitive pair pre-selection threshold      ...     2.500000e-12

Calculating pre-screening integrals         ... done (  0.1 sec) Dimension = 150
Organizing shell pair data                  ... done (  0.1 sec)
Shell pair information
Total number of shell pairs                 ...     11325
Shell pairs after pre-screening             ...     10344
Total number of primitive shell pairs       ...     50130
Primitive shell pairs kept                  ...     29693
          la=0 lb=0:   3646 shell pairs
          la=1 lb=0:   3837 shell pairs
          la=1 lb=1:   1010 shell pairs
          la=2 lb=0:   1134 shell pairs
          la=2 lb=1:    626 shell pairs
          la=2 lb=2:     91 shell pairs

Calculating one electron integrals          ... done (  0.0 sec)
Calculating RI/J V-Matrix + Cholesky decomp.... done (  0.6 sec)
Calculating RI/JK V-Matrix + Cholesky decomp... done (  0.5 sec)
Calculating RI/C V-Matrix + Cholesky decomp.... done (  0.4 sec)
Calculating Nuclear repulsion               ... done (  0.0 sec) ENN=   1078.445512131213 Eh

SHARK setup successfully completed in   2.0 seconds

Maximum memory used throughout the entire GTOINT-calculation: 43.3 MB


           ************************************************************
           *        Program running with 4 parallel MPI-processes     *
           *              working on a common directory               *
           ************************************************************
-------------------------------------------------------------------------------
                                 ORCA SCF
-------------------------------------------------------------------------------

------------
SCF SETTINGS
------------
Hamiltonian:
 Density Functional     Method          .... DFT(GTOs)
 Exchange Functional    Exchange        .... B88
   X-Alpha parameter    XAlpha          ....  0.666667
   Becke's b parameter  XBeta           ....  0.004200
 Correlation Functional Correlation     .... LYP
 LDA part of GGA corr.  LDAOpt          .... VWN-5
 Gradients option       PostSCFGGA      .... off
 Hybrid DFT is turned on
   Fraction HF Exchange ScalHFX         ....  0.200000
   Scaling of DF-GGA-X  ScalDFX         ....  0.720000
   Scaling of DF-GGA-C  ScalDFC         ....  0.810000
   Scaling of DF-LDA-C  ScalLDAC        ....  1.000000
   Perturbative correction              ....  0.000000
   Density functional embedding theory  .... OFF
   NL short-range parameter             ....  4.800000
 RI-approximation to the Coulomb term is turned on
   Number of AuxJ basis functions       .... 2202
   RIJ-COSX (HFX calculated with COS-X)).... on


General Settings:
 Integral files         IntName         .... Ne_octanol
 Hartree-Fock type      HFTyp           .... RHF
 Total Charge           Charge          ....   -1
 Multiplicity           Mult            ....    1
 Number of Electrons    NEL             ....  116
 Basis Dimension        Dim             ....  300
 Nuclear Repulsion      ENuc            ....   1078.4455121312 Eh

Convergence Acceleration:
 DIIS                   CNVDIIS         .... on
   Start iteration      DIISMaxIt       ....    12
   Startup error        DIISStart       ....  0.200000
   # of expansion vecs  DIISMaxEq       ....     5
   Bias factor          DIISBfac        ....   1.050
   Max. coefficient     DIISMaxC        ....  10.000
 Trust-Rad. Augm. Hess. CNVTRAH         .... auto
   Auto Start mean grad. ratio tolernc. ....  1.125000
   Auto Start start iteration           ....    20
   Auto Start num. interpolation iter.  ....    10
   Max. Number of Micro iterations      ....    16
   Max. Number of Macro iterations      .... Maxiter - #DIIS iter
   Number of Davidson start vectors     ....     2
   Converg. threshold I  (grad. norm)   ....   1.000e-05
   Converg. threshold II (energy diff.) ....   1.000e-08
   Grad. Scal. Fac. for Micro threshold ....   0.100
   Minimum threshold for Micro iter.    ....   0.010
   NR start threshold (gradient norm)   ....   0.001
   Initial trust radius                 ....   0.400
   Minimum AH scaling param. (alpha)    ....   1.000
   Maximum AH scaling param. (alpha)    .... 1000.000
   Orbital update algorithm             .... Taylor
   White noise on init. David. guess    .... on
   Maximum white noise                  ....   0.010
   Quad. conv. algorithm                .... NR
 SOSCF                  CNVSOSCF        .... on
   Start iteration      SOSCFMaxIt      ....   150
   Startup grad/error   SOSCFStart      ....  0.003300
 Level Shifting         CNVShift        .... on
   Level shift para.    LevelShift      ....    0.2500
   Turn off err/grad.   ShiftErr        ....    0.0010
 Zerner damping         CNVZerner       .... off
 Static damping         CNVDamp         .... on
   Fraction old density DampFac         ....    0.7000
   Max. Damping (<1)    DampMax         ....    0.9800
   Min. Damping (>=0)   DampMin         ....    0.0000
   Turn off err/grad.   DampErr         ....    0.1000
 Fernandez-Rico         CNVRico         .... off

SCF Procedure:
 Maximum # iterations   MaxIter         ....   125
 SCF integral mode      SCFMode         .... Direct
   Integral package                     .... SHARK and LIBINT hybrid scheme
 Reset frequency        DirectResetFreq ....    20
 Integral Threshold     Thresh          ....  2.500e-11 Eh
 Primitive CutOff       TCut            ....  2.500e-12 Eh

Convergence Tolerance:
 Convergence Check Mode ConvCheckMode   .... Total+1el-Energy
 Convergence forced     ConvForced      .... 0
 Energy Change          TolE            ....  1.000e-08 Eh
 1-El. energy change                    ....  1.000e-05 Eh
 Orbital Gradient       TolG            ....  1.000e-05
 Orbital Rotation angle TolX            ....  1.000e-05
 DIIS Error             TolErr          ....  5.000e-07


Diagonalization of the overlap matrix:
Smallest eigenvalue                        ... 1.238e-05
Time for diagonalization                   ...    0.133 sec
Threshold for overlap eigenvalues          ... 1.000e-08
Number of eigenvalues below threshold      ... 0
Time for construction of square roots      ...    0.009 sec
Total time needed                          ...    0.144 sec

Time for model grid setup =    0.381 sec

------------------------------
INITIAL GUESS: MODEL POTENTIAL
------------------------------
Loading Hartree-Fock densities                     ... done
Calculating cut-offs                               ... done
Initializing the effective Hamiltonian             ... done
Setting up the integral package (SHARK)            ... done
Starting the Coulomb interaction                   ... done (   0.6 sec)
Reading the grid                                   ... done
Mapping shells                                     ... done
Starting the XC term evaluation                    ... done (   0.3 sec)
  promolecular density results
     # of electrons  =    114.996744764
     EX              =    -96.621579722
     EC              =     -3.941197601
     EX+EC           =   -100.562777322
Transforming the Hamiltonian                       ... done (   0.1 sec)
Diagonalizing the Hamiltonian                      ... done (   0.0 sec)
Back transforming the eigenvectors                 ... done (   0.0 sec)
Now organizing SCF variables                       ... done
                      ------------------
                      INITIAL GUESS DONE (   1.4 sec)
                      ------------------
-------------------
DFT GRID GENERATION
-------------------

General Integration Accuracy     IntAcc      ... 4.388
Radial Grid Type                 RadialGrid  ... OptM3 with GC (2021)
Angular Grid (max. ang.)         AngularGrid ... 4 (Lebedev-302)
Angular grid pruning method      GridPruning ... 4 (adaptive)
Weight generation scheme         WeightScheme... Becke
Basis function cutoff            BFCut       ... 1.0000e-11
Integration weight cutoff        WCut        ... 1.0000e-14
Angular grids for H and He will be reduced by one unit
Partially contracted basis set               ... off
Rotationally invariant grid construction     ... off

Total number of grid points                  ...   141041
Total number of batches                      ...     2221
Average number of points per batch           ...       63
Average number of grid points per atom       ...     4701
Time for grid setup =    4.081 sec

--------------------
COSX GRID GENERATION
--------------------

GRIDX 1
-------
General Integration Accuracy     IntAcc      ... 3.816
Radial Grid Type                 RadialGrid  ... OptM3 with GC (2021)
Angular Grid (max. ang.)         AngularGrid ... 1 (Lebedev-50)
Angular grid pruning method      GridPruning ... 4 (adaptive)
Weight generation scheme         WeightScheme... Becke
Basis function cutoff            BFCut       ... 1.0000e-11
Integration weight cutoff        WCut        ... 1.0000e-14
Angular grids for H and He will be reduced by one unit
Partially contracted basis set               ... on
Rotationally invariant grid construction     ... off

Total number of grid points                  ...    17918
Total number of batches                      ...      295
Average number of points per batch           ...       60
Average number of grid points per atom       ...      597
UseSFitting                                  ... on

GRIDX 2
-------
General Integration Accuracy     IntAcc      ... 4.020
Radial Grid Type                 RadialGrid  ... OptM3 with GC (2021)
Angular Grid (max. ang.)         AngularGrid ... 2 (Lebedev-110)
Angular grid pruning method      GridPruning ... 4 (adaptive)
Weight generation scheme         WeightScheme... Becke
Basis function cutoff            BFCut       ... 1.0000e-11
Integration weight cutoff        WCut        ... 1.0000e-14
Angular grids for H and He will be reduced by one unit
Partially contracted basis set               ... on
Rotationally invariant grid construction     ... off

Total number of grid points                  ...    41412
Total number of batches                      ...      660
Average number of points per batch           ...       62
Average number of grid points per atom       ...     1380
UseSFitting                                  ... on

GRIDX 3
-------
General Integration Accuracy     IntAcc      ... 4.338
Radial Grid Type                 RadialGrid  ... OptM3 with GC (2021)
Angular Grid (max. ang.)         AngularGrid ... 3 (Lebedev-194)
Angular grid pruning method      GridPruning ... 4 (adaptive)
Weight generation scheme         WeightScheme... Becke
Basis function cutoff            BFCut       ... 1.0000e-11
Integration weight cutoff        WCut        ... 1.0000e-14
Angular grids for H and He will be reduced by one unit
Partially contracted basis set               ... on
Rotationally invariant grid construction     ... off

Total number of grid points                  ...    89207
Total number of batches                      ...     1410
Average number of points per batch           ...       63
Average number of grid points per atom       ...     2974
UseSFitting                                  ... on

Time for X-Grid setup             =    3.036 sec


--------------------
CPCM SOLVATION MODEL
--------------------
CPCM parameters:
  Epsilon                                         ...       9.8629
  Refrac                                          ...       1.4295
  Rsolv                                           ...       1.3000
  Surface type                                    ... GAUSSIAN VDW
  Epsilon function type                           ...         CPCM
Radii:
 Radius for C  used is    3.8550 Bohr (=   2.0400 Ang.)
 Radius for H  used is    2.4944 Bohr (=   1.3200 Ang.)
 Radius for O  used is    3.4469 Bohr (=   1.8240 Ang.)
 Radius for N  used is    3.5149 Bohr (=   1.8600 Ang.)
Calculating surface                               ...        done! (  0.0s)
GEPOL surface points                              ...         1560
GEPOL Volume                                      ...    1747.5268
GEPOL Surface-area                                ...     912.5115
Calculating surface distance matrix               ...        done! (  0.0s)
Performing Cholesky decomposition & store         ...        done! (  0.2s)
Overall time for CPCM initialization              ...                 0.3s
--------------
SCF ITERATIONS
--------------
ITER       Energy         Delta-E        Max-DP      RMS-DP      [F,P]     Damp
               ***  Starting incremental Fock matrix formation  ***
  0   -761.6230332664   0.000000000000 0.31590730  0.00398685  0.2936465 0.7000
  1   -761.8874606012  -0.264427334811 0.44941533  0.00405996  0.1211396 0.7000
                               ***Turning on DIIS***
  2   -761.9803971971  -0.092936595952 1.01245447  0.00818403  0.0378482 0.0000
  3   -762.1364875327  -0.156090335597 0.40543497  0.00321560  0.0668974 0.0000
  4   -762.1683115846  -0.031824051885 0.25181626  0.00180754  0.0132395 0.0000
  5   -762.1707121985  -0.002400613903 0.13308027  0.00087416  0.0036794 0.0000
                      *** Initiating the SOSCF procedure ***
                           *** Shutting down DIIS ***
                      *** Re-Reading the Fockian *** 
                      *** Removing any level shift *** 
ITER      Energy       Delta-E        Grad      Rot      Max-DP    RMS-DP
  6   -762.17081339  -0.0001011866  0.000238  0.000238  0.059948  0.000393
               *** Restarting incremental Fock matrix formation ***
  7   -762.17083552  -0.0000221343  0.000173  0.000410  0.050783  0.000333
  8   -762.17083445   0.0000010650  0.000301  0.000481  0.010521  0.000078
  9   -762.17083878  -0.0000043245  0.000056  0.000141  0.008815  0.000054
 10   -762.17083860   0.0000001778  0.000074  0.000073  0.001188  0.000011
 11   -762.17083897  -0.0000003738  0.000016  0.000023  0.002102  0.000014
 12   -762.17083898  -0.0000000081  0.000021  0.000010  0.001311  0.000012
                  ***Gradient check signals convergence***
              ***Rediagonalizing the Fockian in SOSCF/NRSCF***

               *****************************************************
               *                     SUCCESS                       *
               *           SCF CONVERGED AFTER  13 CYCLES          *
               *****************************************************

Old exchange energy                            =    -19.660040186 Eh
New exchange energy                            =    -19.660013680 Eh
Exchange energy change after final integration =      0.000026506 Eh
Total energy after final integration           =   -762.170812489 Eh
Final COS-X integration done in                =    16.751 sec

----------------
TOTAL SCF ENERGY
----------------

Total Energy       :         -762.17081249 Eh          -20739.72219 eV

Components:
Nuclear Repulsion  :         1078.44551213 Eh           29345.99431 eV
Electronic Energy  :        -1840.61632462 Eh          -50085.71650 eV
One Electron Energy:        -3196.05556143 Eh          -86969.09325 eV
Two Electron Energy:         1355.43923681 Eh           36883.37675 eV
Max COSX asymmetry :            0.00001125 Eh               0.00031 eV
CPCM Dielectric    :           -0.10109809 Eh              -2.75102 eV

Virial components:
Potential Energy   :        -1519.55976947 Eh          -41349.32349 eV
Kinetic Energy     :          757.38895698 Eh           20609.60129 eV
Virial Ratio       :            2.00631361


DFT components:
N(Alpha)           :       58.000218496758 electrons
N(Beta)            :       58.000218496758 electrons
N(Total)           :      116.000436993516 electrons
E(X)               :      -78.166588742439 Eh       
E(C)               :       -4.670094402252 Eh       
E(XC)              :      -82.836683144691 Eh       
DFET-embed. en.    :        0.000000000000 Eh       
CPCM Solvation Model Properties:
Surface-charge          :            0.96158316
Charge-correction       :           -0.00439392 Eh              -0.11956 eV
Free-energy (cav+disp)  :  This term is not implemented in the current solvation scheme

---------------
SCF CONVERGENCE
---------------

  Last Energy change         ...   -1.2313e-08  Tolerance :   1.0000e-08
  Last MAX-Density change    ...    4.4409e-15  Tolerance :   1.0000e-07
  Last RMS-Density change    ...    3.9223e-17  Tolerance :   5.0000e-09
  Last Orbital Gradient      ...    1.4434e-06  Tolerance :   1.0000e-05
  Last Orbital Rotation      ...    2.6994e-06  Tolerance :   1.0000e-05

             **** THE GBW FILE WAS UPDATED (Ne_octanol.gbw) ****
             **** DENSITY Ne_octanol.scfp WAS UPDATED ****
             **** ENERGY FILE WAS UPDATED (Ne_octanol.en.tmp) ****
             **** THE GBW FILE WAS UPDATED (Ne_octanol.gbw) ****
             **** DENSITY Ne_octanol.scfp WAS UPDATED ****
----------------
ORBITAL ENERGIES
----------------

  NO   OCC          E(Eh)            E(eV) 
   0   2.0000     -19.116031      -520.1736 
   1   2.0000     -19.115506      -520.1594 
   2   2.0000     -19.076162      -519.0887 
   3   2.0000     -19.075953      -519.0831 
   4   2.0000     -14.361154      -390.7869 
   5   2.0000     -14.357153      -390.6780 
   6   2.0000     -10.282461      -279.8000 
   7   2.0000     -10.281485      -279.7734 
   8   2.0000     -10.254127      -279.0290 
   9   2.0000     -10.208666      -277.7919 
  10   2.0000     -10.196098      -277.4499 
  11   2.0000     -10.195597      -277.4363 
  12   2.0000     -10.192448      -277.3506 
  13   2.0000     -10.161988      -276.5217 
  14   2.0000     -10.154048      -276.3057 
  15   2.0000      -1.038137       -28.2491 
  16   2.0000      -1.029203       -28.0060 
  17   2.0000      -1.000174       -27.2161 
  18   2.0000      -0.933964       -25.4145 
  19   2.0000      -0.925136       -25.1742 
  20   2.0000      -0.917497       -24.9664 
  21   2.0000      -0.759272       -20.6608 
  22   2.0000      -0.739868       -20.1328 
  23   2.0000      -0.712811       -19.3966 
  24   2.0000      -0.701603       -19.0916 
  25   2.0000      -0.666176       -18.1276 
  26   2.0000      -0.635848       -17.3023 
  27   2.0000      -0.546415       -14.8687 
  28   2.0000      -0.533153       -14.5078 
  29   2.0000      -0.507813       -13.8183 
  30   2.0000      -0.483060       -13.1447 
  31   2.0000      -0.481215       -13.0945 
  32   2.0000      -0.470104       -12.7922 
  33   2.0000      -0.461767       -12.5653 
  34   2.0000      -0.452724       -12.3192 
  35   2.0000      -0.443490       -12.0680 
  36   2.0000      -0.426183       -11.5970 
  37   2.0000      -0.413369       -11.2483 
  38   2.0000      -0.405923       -11.0457 
  39   2.0000      -0.401539       -10.9264 
  40   2.0000      -0.396083       -10.7780 
  41   2.0000      -0.391091       -10.6421 
  42   2.0000      -0.389741       -10.6054 
  43   2.0000      -0.383823       -10.4444 
  44   2.0000      -0.378907       -10.3106 
  45   2.0000      -0.373556       -10.1650 
  46   2.0000      -0.367597       -10.0028 
  47   2.0000      -0.357752        -9.7349 
  48   2.0000      -0.347013        -9.4427 
  49   2.0000      -0.342655        -9.3241 
  50   2.0000      -0.323277        -8.7968 
  51   2.0000      -0.263015        -7.1570 
  52   2.0000      -0.256522        -6.9803 
  53   2.0000      -0.241783        -6.5793 
  54   2.0000      -0.239268        -6.5108 
  55   2.0000      -0.235935        -6.4201 
  56   2.0000      -0.219747        -5.9796 
  57   2.0000      -0.214556        -5.8384 
  58   0.0000       0.007612         0.2071 
  59   0.0000       0.018559         0.5050 
  60   0.0000       0.024602         0.6694 
  61   0.0000       0.028639         0.7793 
  62   0.0000       0.033520         0.9121 
  63   0.0000       0.037207         1.0125 
  64   0.0000       0.050747         1.3809 
  65   0.0000       0.053753         1.4627 
  66   0.0000       0.055442         1.5087 
  67   0.0000       0.061413         1.6711 
  68   0.0000       0.064383         1.7520 
  69   0.0000       0.072732         1.9791 
  70   0.0000       0.078448         2.1347 
  71   0.0000       0.082628         2.2484 
  72   0.0000       0.085139         2.3168 
  73   0.0000       0.091723         2.4959 
  74   0.0000       0.095159         2.5894 
  75   0.0000       0.097282         2.6472 
  76   0.0000       0.103067         2.8046 
  77   0.0000       0.111917         3.0454 
  78   0.0000       0.117446         3.1959 
  79   0.0000       0.120133         3.2690 
  80   0.0000       0.122292         3.3277 
  81   0.0000       0.129512         3.5242 
  82   0.0000       0.132320         3.6006 
  83   0.0000       0.134888         3.6705 
  84   0.0000       0.144280         3.9261 
  85   0.0000       0.159139         4.3304 
  86   0.0000       0.164842         4.4856 
  87   0.0000       0.166373         4.5272 
  88   0.0000       0.169532         4.6132 
  89   0.0000       0.174005         4.7349 
  90   0.0000       0.180033         4.8989 
  91   0.0000       0.182105         4.9553 
  92   0.0000       0.190838         5.1930 
  93   0.0000       0.193879         5.2757 
  94   0.0000       0.198982         5.4146 
  95   0.0000       0.202573         5.5123 
  96   0.0000       0.208654         5.6778 
  97   0.0000       0.211324         5.7504 
  98   0.0000       0.212010         5.7691 
  99   0.0000       0.217764         5.9256 
 100   0.0000       0.226600         6.1661 
 101   0.0000       0.233479         6.3533 
 102   0.0000       0.237643         6.4666 
 103   0.0000       0.239200         6.5090 
 104   0.0000       0.244267         6.6468 
 105   0.0000       0.251760         6.8507 
 106   0.0000       0.257011         6.9936 
 107   0.0000       0.261477         7.1151 
 108   0.0000       0.267241         7.2720 
 109   0.0000       0.273384         7.4392 
 110   0.0000       0.276343         7.5197 
 111   0.0000       0.286103         7.7853 
 112   0.0000       0.288274         7.8443 
 113   0.0000       0.290458         7.9038 
 114   0.0000       0.298181         8.1139 
 115   0.0000       0.301233         8.1970 
 116   0.0000       0.305475         8.3124 
 117   0.0000       0.313311         8.5256 
 118   0.0000       0.316747         8.6191 
 119   0.0000       0.321051         8.7362 
 120   0.0000       0.321913         8.7597 
 121   0.0000       0.322786         8.7835 
 122   0.0000       0.330360         8.9896 
 123   0.0000       0.334327         9.0975 
 124   0.0000       0.339321         9.2334 
 125   0.0000       0.346249         9.4219 
 126   0.0000       0.352419         9.5898 
 127   0.0000       0.353404         9.6166 
 128   0.0000       0.361378         9.8336 
 129   0.0000       0.364717         9.9244 
 130   0.0000       0.371275        10.1029 
 131   0.0000       0.377364        10.2686 
 132   0.0000       0.387984        10.5576 
 133   0.0000       0.390130        10.6160 
 134   0.0000       0.394047        10.7226 
 135   0.0000       0.401205        10.9173 
 136   0.0000       0.406179        11.0527 
 137   0.0000       0.415853        11.3159 
 138   0.0000       0.421348        11.4655 
 139   0.0000       0.430401        11.7118 
 140   0.0000       0.439145        11.9497 
 141   0.0000       0.446818        12.1585 
 142   0.0000       0.461517        12.5585 
 143   0.0000       0.477224        12.9859 
 144   0.0000       0.488110        13.2822 
 145   0.0000       0.500923        13.6308 
 146   0.0000       0.518482        14.1086 
 147   0.0000       0.526322        14.3219 
 148   0.0000       0.532579        14.4922 
 149   0.0000       0.567082        15.4311 
 150   0.0000       0.673697        18.3322 
 151   0.0000       0.677900        18.4466 
 152   0.0000       0.691244        18.8097 
 153   0.0000       0.700456        19.0604 
 154   0.0000       0.713219        19.4077 
 155   0.0000       0.727010        19.7829 
 156   0.0000       0.728277        19.8174 
 157   0.0000       0.732581        19.9345 
 158   0.0000       0.743550        20.2330 
 159   0.0000       0.763763        20.7830 
 160   0.0000       0.786616        21.4049 
 161   0.0000       0.803477        21.8637 
 162   0.0000       0.808928        22.0121 
 163   0.0000       0.814992        22.1771 
 164   0.0000       0.819056        22.2876 
 165   0.0000       0.831298        22.6208 
 166   0.0000       0.850840        23.1525 
 167   0.0000       0.869387        23.6572 
 168   0.0000       0.872556        23.7435 
 169   0.0000       0.897150        24.4127 
 170   0.0000       0.907403        24.6917 
 171   0.0000       0.915058        24.9000 
 172   0.0000       0.923834        25.1388 
 173   0.0000       0.933767        25.4091 
 174   0.0000       0.955248        25.9936 
 175   0.0000       0.963831        26.2272 
 176   0.0000       0.985850        26.8263 
 177   0.0000       0.991799        26.9882 
 178   0.0000       1.001649        27.2563 
 179   0.0000       1.012433        27.5497 
 180   0.0000       1.018458        27.7137 
 181   0.0000       1.032584        28.0981 
 182   0.0000       1.043100        28.3842 
 183   0.0000       1.046206        28.4687 
 184   0.0000       1.073389        29.2084 
 185   0.0000       1.077658        29.3246 
 186   0.0000       1.099684        29.9239 
 187   0.0000       1.114104        30.3163 
 188   0.0000       1.132076        30.8054 
 189   0.0000       1.145092        31.1595 
 190   0.0000       1.155149        31.4332 
 191   0.0000       1.164806        31.6960 
 192   0.0000       1.170039        31.8384 
 193   0.0000       1.186627        32.2898 
 194   0.0000       1.189074        32.3564 
 195   0.0000       1.211407        32.9641 
 196   0.0000       1.235735        33.6261 
 197   0.0000       1.259552        34.2741 
 198   0.0000       1.267525        34.4911 
 199   0.0000       1.288594        35.0644 
 200   0.0000       1.293465        35.1970 
 201   0.0000       1.315415        35.7943 
 202   0.0000       1.322604        35.9899 
 203   0.0000       1.339886        36.4602 
 204   0.0000       1.352753        36.8103 
 205   0.0000       1.359352        36.9899 
 206   0.0000       1.361200        37.0401 
 207   0.0000       1.373819        37.3835 
 208   0.0000       1.381512        37.5928 
 209   0.0000       1.389788        37.8181 
 210   0.0000       1.410649        38.3857 
 211   0.0000       1.416537        38.5459 
 212   0.0000       1.429088        38.8875 
 213   0.0000       1.439332        39.1662 
 214   0.0000       1.443967        39.2923 
 215   0.0000       1.456845        39.6428 
 216   0.0000       1.463150        39.8143 
 217   0.0000       1.475999        40.1640 
 218   0.0000       1.497251        40.7423 
 219   0.0000       1.507882        41.0315 
 220   0.0000       1.540671        41.9238 
 221   0.0000       1.566653        42.6308 
 222   0.0000       1.585524        43.1443 
 223   0.0000       1.600295        43.5462 
 224   0.0000       1.659915        45.1686 
 225   0.0000       1.680693        45.7340 
 226   0.0000       1.696045        46.1517 
 227   0.0000       1.713582        46.6289 
 228   0.0000       1.755407        47.7671 
 229   0.0000       1.765056        48.0296 
 230   0.0000       1.786740        48.6197 
 231   0.0000       1.795890        48.8686 
 232   0.0000       1.814481        49.3745 
 233   0.0000       1.822324        49.5880 
 234   0.0000       1.831802        49.8459 
 235   0.0000       1.849073        50.3158 
 236   0.0000       1.864088        50.7244 
 237   0.0000       1.868631        50.8480 
 238   0.0000       1.871785        50.9339 
 239   0.0000       1.880339        51.1666 
 240   0.0000       1.885050        51.2948 
 241   0.0000       1.905726        51.8574 
 242   0.0000       1.922488        52.3136 
 243   0.0000       1.928130        52.4671 
 244   0.0000       1.957750        53.2731 
 245   0.0000       1.964453        53.4555 
 246   0.0000       1.972392        53.6715 
 247   0.0000       1.982317        53.9416 
 248   0.0000       1.999792        54.4171 
 249   0.0000       2.038408        55.4679 
 250   0.0000       2.041271        55.5458 
 251   0.0000       2.044756        55.6406 
 252   0.0000       2.056433        55.9584 
 253   0.0000       2.078228        56.5514 
 254   0.0000       2.081734        56.6469 
 255   0.0000       2.096379        57.0454 
 256   0.0000       2.118990        57.6607 
 257   0.0000       2.126230        57.8577 
 258   0.0000       2.136660        58.1415 
 259   0.0000       2.148220        58.4560 
 260   0.0000       2.192672        59.6656 
 261   0.0000       2.202233        59.9258 
 262   0.0000       2.227111        60.6028 
 263   0.0000       2.235603        60.8339 
 264   0.0000       2.277532        61.9748 
 265   0.0000       2.286667        62.2234 
 266   0.0000       2.307538        62.7913 
 267   0.0000       2.323213        63.2178 
 268   0.0000       2.327014        63.3213 
 269   0.0000       2.348187        63.8974 
 270   0.0000       2.379762        64.7566 
 271   0.0000       2.397330        65.2347 
 272   0.0000       2.419155        65.8286 
 273   0.0000       2.451742        66.7153 
 274   0.0000       2.467492        67.1439 
 275   0.0000       2.477336        67.4117 
 276   0.0000       2.488231        67.7082 
 277   0.0000       2.492597        67.8270 
 278   0.0000       2.557848        69.6026 
 279   0.0000       2.605361        70.8955 
 280   0.0000       2.626504        71.4708 
 281   0.0000       2.654877        72.2429 
 282   0.0000       2.666065        72.5473 
 283   0.0000       2.681163        72.9581 
 284   0.0000       2.694880        73.3314 
 285   0.0000       2.700940        73.4963 
 286   0.0000       2.752420        74.8972 
 287   0.0000       2.760934        75.1288 
 288   0.0000       2.772974        75.4565 
 289   0.0000       2.802806        76.2682 
 290   0.0000       2.926301        79.6287 
 291   0.0000       2.969755        80.8111 
 292   0.0000       2.987034        81.2813 
 293   0.0000       3.043809        82.8262 
 294   0.0000       3.108242        84.5796 
 295   0.0000       3.126267        85.0701 
 296   0.0000       3.153057        85.7990 
 297   0.0000       3.211168        87.3803 
 298   0.0000       3.228435        87.8502 
 299   0.0000       3.232195        87.9525 

                    ********************************
                    * MULLIKEN POPULATION ANALYSIS *
                    ********************************

-----------------------
MULLIKEN ATOMIC CHARGES
-----------------------
   0 C :   -0.956906
   1 H :    0.272530
   2 H :    0.252975
   3 H :    0.229781
   4 C :    0.652967
   5 O :   -0.574750
   6 N :   -0.017468
   7 C :   -0.731185
   8 H :    0.242774
   9 H :    0.266026
  10 C :   -0.604127
  11 H :    0.253884
  12 H :    0.238901
  13 C :   -0.413444
  14 H :    0.233343
  15 H :    0.236874
  16 C :    0.639313
  17 N :   -0.085887
  18 O :   -0.571435
  19 C :   -0.488868
  20 H :    0.229562
  21 H :    0.222132
  22 H :    0.236533
  23 C :   -0.555788
  24 H :    0.232998
  25 H :    0.241592
  26 H :    0.218517
  27 C :    0.501551
  28 O :   -0.695005
  29 O :   -0.707391
Sum of atomic charges:   -1.0000000

--------------------------------
MULLIKEN REDUCED ORBITAL CHARGES
--------------------------------
  0 C s       :     3.694656  s :     3.694656
      pz      :     1.131704  p :     3.230872
      px      :     0.991832
      py      :     1.107336
      dz2     :     0.005627  d :     0.031378
      dxz     :     0.003682
      dyz     :     0.009439
      dx2y2   :     0.003893
      dxy     :     0.008737
  1 H s       :     0.727470  s :     0.727470
  2 H s       :     0.747025  s :     0.747025
  3 H s       :     0.770219  s :     0.770219
  4 C s       :     2.960949  s :     2.960949
      pz      :     0.775097  p :     2.274050
      px      :     0.745690
      py      :     0.753263
      dz2     :     0.019274  d :     0.112034
      dxz     :     0.018998
      dyz     :     0.016616
      dx2y2   :     0.033695
      dxy     :     0.023453
  5 O s       :     3.926686  s :     3.926686
      pz      :     1.570411  p :     4.624019
      px      :     1.436660
      py      :     1.616948
      dz2     :     0.003699  d :     0.024046
      dxz     :     0.006407
      dyz     :     0.002106
      dx2y2   :     0.005406
      dxy     :     0.006429
  6 N s       :     3.170934  s :     3.170934
      pz      :     1.452677  p :     3.809628
      px      :     1.066597
      py      :     1.290353
      dz2     :     0.006094  d :     0.036906
      dxz     :     0.006571
      dyz     :     0.005469
      dx2y2   :     0.009669
      dxy     :     0.009102
  7 C s       :     3.761775  s :     3.761775
      pz      :     1.143134  p :     2.917602
      px      :     0.869494
      py      :     0.904974
      dz2     :     0.013979  d :     0.051808
      dxz     :     0.009158
      dyz     :     0.005000
      dx2y2   :     0.011302
      dxy     :     0.012369
  8 H s       :     0.757226  s :     0.757226
  9 H s       :     0.733974  s :     0.733974
 10 C s       :     3.758628  s :     3.758628
      pz      :     0.972051  p :     2.793214
      px      :     0.835946
      py      :     0.985218
      dz2     :     0.011437  d :     0.052284
      dxz     :     0.009238
      dyz     :     0.008550
      dx2y2   :     0.006570
      dxy     :     0.016490
 11 H s       :     0.746116  s :     0.746116
 12 H s       :     0.761099  s :     0.761099
 13 C s       :     3.002109  s :     3.002109
      pz      :     1.011325  p :     3.375044
      px      :     1.345061
      py      :     1.018658
      dz2     :     0.008999  d :     0.036291
      dxz     :     0.005642
      dyz     :     0.005438
      dx2y2   :     0.010277
      dxy     :     0.005935
 14 H s       :     0.766657  s :     0.766657
 15 H s       :     0.763126  s :     0.763126
 16 C s       :     3.064624  s :     3.064624
      pz      :     0.719541  p :     2.187587
      px      :     0.753353
      py      :     0.714693
      dz2     :     0.037304  d :     0.108476
      dxz     :     0.023350
      dyz     :     0.026636
      dx2y2   :     0.012630
      dxy     :     0.008556
 17 N s       :     3.277803  s :     3.277803
      pz      :     1.099278  p :     3.770173
      px      :     1.597648
      py      :     1.073247
      dz2     :     0.009793  d :     0.037911
      dxz     :     0.006615
      dyz     :     0.011243
      dx2y2   :     0.005321
      dxy     :     0.004939
 18 O s       :     3.920727  s :     3.920727
      pz      :     1.545464  p :     4.627544
      px      :     1.510946
      py      :     1.571134
      dz2     :     0.005132  d :     0.023164
      dxz     :     0.004836
      dyz     :     0.006490
      dx2y2   :     0.002691
      dxy     :     0.004015
 19 C s       :     3.399617  s :     3.399617
      pz      :     0.916110  p :     3.041186
      px      :     1.131081
      py      :     0.993996
      dz2     :     0.006785  d :     0.048065
      dxz     :     0.013752
      dyz     :     0.012019
      dx2y2   :     0.011218
      dxy     :     0.004291
 20 H s       :     0.770438  s :     0.770438
 21 H s       :     0.777868  s :     0.777868
 22 H s       :     0.763467  s :     0.763467
 23 C s       :     3.460381  s :     3.460381
      pz      :     1.127839  p :     3.047753
      px      :     1.130704
      py      :     0.789209
      dz2     :     0.006811  d :     0.047654
      dxz     :     0.008029
      dyz     :     0.010153
      dx2y2   :     0.014148
      dxy     :     0.008513
 24 H s       :     0.767002  s :     0.767002
 25 H s       :     0.758408  s :     0.758408
 26 H s       :     0.781483  s :     0.781483
 27 C s       :     2.984095  s :     2.984095
      pz      :     0.750832  p :     2.378888
      px      :     0.934622
      py      :     0.693435
      dz2     :     0.009392  d :     0.135466
      dxz     :     0.008259
      dyz     :     0.029223
      dx2y2   :     0.049192
      dxy     :     0.039401
 28 O s       :     3.916760  s :     3.916760
      pz      :     1.610977  p :     4.757896
      px      :     1.746681
      py      :     1.400238
      dz2     :     0.002105  d :     0.020349
      dxz     :     0.001671
      dyz     :     0.005606
      dx2y2   :     0.005522
      dxy     :     0.005445
 29 O s       :     3.931839  s :     3.931839
      pz      :     1.577873  p :     4.755094
      px      :     1.752028
      py      :     1.425192
      dz2     :     0.002619  d :     0.020458
      dxz     :     0.001682
      dyz     :     0.005710
      dx2y2   :     0.005244
      dxy     :     0.005203


                     *******************************
                     * LOEWDIN POPULATION ANALYSIS *
                     *******************************

----------------------
LOEWDIN ATOMIC CHARGES
----------------------
   0 C :   -0.477126
   1 H :    0.238207
   2 H :    0.223359
   3 H :    0.212657
   4 C :    0.095748
   5 O :   -0.466727
   6 N :   -0.321372
   7 C :   -0.216236
   8 H :    0.236835
   9 H :    0.258581
  10 C :   -0.247965
  11 H :    0.244800
  12 H :    0.229243
  13 C :   -0.360444
  14 H :    0.222083
  15 H :    0.239111
  16 C :    0.093846
  17 N :   -0.328694
  18 O :   -0.458705
  19 C :   -0.359505
  20 H :    0.216462
  21 H :    0.206709
  22 H :    0.241591
  23 C :   -0.359664
  24 H :    0.214565
  25 H :    0.230465
  26 H :    0.206355
  27 C :    0.131251
  28 O :   -0.580647
  29 O :   -0.564785

-------------------------------
LOEWDIN REDUCED ORBITAL CHARGES
-------------------------------
  0 C s       :     2.989760  s :     2.989760
      pz      :     1.171834  p :     3.426093
      px      :     1.090864
      py      :     1.163395
      dz2     :     0.010664  d :     0.061272
      dxz     :     0.007326
      dyz     :     0.017035
      dx2y2   :     0.008783
      dxy     :     0.017465
  1 H s       :     0.761793  s :     0.761793
  2 H s       :     0.776641  s :     0.776641
  3 H s       :     0.787343  s :     0.787343
  4 C s       :     2.798434  s :     2.798434
      pz      :     0.854430  p :     2.847139
      px      :     1.069249
      py      :     0.923461
      dz2     :     0.041534  d :     0.258679
      dxz     :     0.041318
      dyz     :     0.041986
      dx2y2   :     0.079972
      dxy     :     0.053869
  5 O s       :     3.560425  s :     3.560425
      pz      :     1.592701  p :     4.852831
      px      :     1.595422
      py      :     1.664708
      dz2     :     0.007238  d :     0.053471
      dxz     :     0.013272
      dyz     :     0.004651
      dx2y2   :     0.013362
      dxy     :     0.014948
  6 N s       :     3.108162  s :     3.108162
      pz      :     1.488262  p :     4.117003
      px      :     1.265341
      py      :     1.363400
      dz2     :     0.012732  d :     0.096207
      dxz     :     0.017353
[...]
     46       0.011759   0.000480  -0.018152  -0.016216   0.000532   0.000106
     47       0.023887   0.001089  -0.051095  -0.041148   0.001368   0.000179
     48       0.000000  -0.000200   0.000061   0.000060  -0.000193   0.000010
     49       0.000038   0.001122  -0.000033  -0.000013   0.000173  -0.000984
     50       0.000003   0.001397   0.000165   0.000062   0.000136  -0.000790
     51       0.000002   0.000033  -0.000078  -0.000044  -0.000113   0.000049
     52      -0.000006   0.000152   0.000029   0.000007  -0.000372   0.000112
     53       0.000012   0.000117  -0.000041  -0.000024  -0.000588  -0.000224
     54      -0.000002   0.000242  -0.000034  -0.000026   0.000041  -0.000016
     55      -0.000012  -0.000457   0.000012   0.000006   0.000083   0.000824
     56      -0.000006  -0.000673  -0.000046  -0.000014  -0.000062  -0.000304
     57       0.000187  -0.002746  -0.000019  -0.000097   0.024939  -0.005872
     58      -0.000179  -0.006663  -0.000187   0.000000   0.075380  -0.016129
     59       0.000062   0.003365   0.000220   0.000073  -0.038972   0.008701
     60      -0.001672   0.017361   0.001007   0.001227  -0.152318   0.035357
     61       0.000124  -0.002081  -0.000120  -0.000106   0.022690  -0.004585
     62       0.000749  -0.006227  -0.000308  -0.000512   0.053603  -0.012434
     63      -0.000984  -0.010784  -0.001265  -0.000091   0.145985  -0.029647
     64       0.000502   0.003917   0.000663   0.000083  -0.073371   0.016310
     65      -0.001062  -0.009672  -0.001363  -0.000134   0.149706  -0.030072
     66       0.000447   0.024003   0.000622   0.000114  -0.285576   0.063289
     67       0.001467   0.073316   0.001809   0.000129  -0.839087   0.184984
     68      -0.000507  -0.025059  -0.000594  -0.000020   0.278606  -0.061084
     69      -0.000018  -0.000138  -0.000114  -0.000077  -0.000519  -0.002513
     70       0.000011   0.000243  -0.000110  -0.000059  -0.008987  -0.038923
     71      -0.000010  -0.000375   0.000004  -0.000004  -0.017479  -0.078888
     72      -0.000004  -0.001756   0.001484   0.000830  -0.031143  -0.139912
     73      -0.000021  -0.000638   0.000314   0.000160  -0.006759  -0.027690
     74      -0.000003   0.001139  -0.000892  -0.000505   0.016010   0.074710
     75      -0.000012  -0.000036   0.000001  -0.000000   0.000401   0.000922
     76      -0.000022   0.000056   0.000606   0.000375   0.116152   0.531807
     77      -0.000021   0.000555   0.000917   0.000541   0.169342   0.771523
     78       0.000210   0.003606  -0.000122   0.000074   0.039020   0.168189
     79      -0.000063  -0.001344   0.000078  -0.000002  -0.011882  -0.047263
     80       0.000156   0.002618  -0.000115   0.000037   0.024726   0.107367
     81       0.000026   0.000003  -0.000324  -0.000135  -0.000009   0.000000
     82      -0.000002  -0.000026   0.000308   0.000242   0.000002  -0.000001
     83      -0.000034   0.000036  -0.000610  -0.000371  -0.000005   0.000003
     84      -0.000007   0.000005  -0.000067  -0.000067   0.000003  -0.000001
     85      -0.000014   0.000024  -0.000372  -0.000246  -0.000000   0.000003
     86       0.000000  -0.000013   0.000207   0.000122   0.000002  -0.000002
     87      -0.000013   0.000004   0.000093   0.000031   0.000004   0.000001
     88      -0.000006   0.000019  -0.000037  -0.000057   0.000005   0.000001
     89       0.000014  -0.000007   0.000101   0.000072   0.000001  -0.000004


-----------
IR SPECTRUM
-----------

 Mode   freq       eps      Int      T**2         TX        TY        TZ
       cm**-1   L/(mol*cm) km/mol    a.u.
----------------------------------------------------------------------------
  6:     30.73   0.000171    0.86  0.001735  ( 0.014072 -0.036514 -0.014289)
  7:     41.95   0.002742   13.86  0.020394  ( 0.014683 -0.120235 -0.075640)
  8:     46.49   0.002328   11.76  0.015625  ( 0.106258 -0.060481 -0.026011)
  9:     51.21   0.001211    6.12  0.007382  (-0.053439 -0.031101 -0.059656)
 10:     71.67   0.000525    2.66  0.002288  (-0.000473 -0.024888 -0.040845)
 11:     79.50   0.001986   10.04  0.007797  (-0.065494  0.030230  0.050929)
 12:     99.95   0.005709   28.85  0.017823  ( 0.017281 -0.095909  0.091245)
 13:    116.81   0.000274    1.39  0.000733  (-0.014127  0.021824  0.007576)
 14:    144.76   0.000752    3.80  0.001621  (-0.006180  0.036666 -0.015439)
 15:    163.51   0.000081    0.41  0.000155  ( 0.011050  0.005692  0.000944)
 16:    173.04   0.000088    0.45  0.000159  ( 0.011442 -0.000958 -0.005236)
 17:    193.16   0.000601    3.04  0.000972  ( 0.028685  0.009984  0.007000)
 18:    227.94   0.001002    5.07  0.001372  (-0.025622 -0.026694  0.001837)
 19:    261.98   0.003276   16.55  0.003902  (-0.061848  0.006754 -0.005565)
 20:    278.62   0.000392    1.98  0.000440  ( 0.010474 -0.007063  0.016734)
 21:    344.81   0.002574   13.01  0.002330  (-0.012142 -0.003751  0.046563)
 22:    356.31   0.001488    7.52  0.001303  ( 0.023453 -0.026010  0.008741)
 23:    386.41   0.001432    7.24  0.001156  (-0.006719 -0.019394  0.027113)
 24:    421.96   0.000890    4.50  0.000658  (-0.003227 -0.025179  0.003713)
 25:    451.38   0.003276   16.56  0.002265  ( 0.029821  0.034697  0.013103)
 26:    481.89   0.002408   12.17  0.001559  ( 0.003021 -0.029504  0.026067)
 27:    506.49   0.005728   28.95  0.003529  ( 0.055881 -0.006964 -0.018925)
 28:    573.44   0.004909   24.81  0.002671  (-0.011245 -0.050064  0.006202)
 29:    585.78   0.001006    5.09  0.000536  ( 0.004715 -0.014897 -0.017087)
 30:    599.70   0.003284   16.59  0.001709  ( 0.025213  0.031642  0.008476)
 31:    620.40   0.005020   25.37  0.002525  ( 0.023460  0.002645  0.044358)
 32:    675.11   0.003984   20.13  0.001842  ( 0.038396  0.012578 -0.014459)
 33:    711.81   0.004870   24.61  0.002135  (-0.037631 -0.007056 -0.025870)
 34:    757.36   0.003277   16.56  0.001350  ( 0.015049 -0.019668  0.027145)
 35:    791.78   0.003610   18.24  0.001423  (-0.027037  0.026073  0.003463)
 36:    829.58   0.004183   21.14  0.001574  (-0.011923  0.015456  0.034533)
 37:    919.85   0.006048   30.57  0.002052  ( 0.033347  0.026012  0.016228)
 38:    954.50   0.003214   16.24  0.001051  (-0.022184 -0.019666 -0.013112)
 39:    998.32   0.008563   43.28  0.002677  ( 0.007381  0.026261 -0.043962)
 40:   1010.98   0.007302   36.90  0.002254  ( 0.026013  0.038810  0.008419)
 41:   1044.43   0.004779   24.15  0.001428  (-0.003771  0.031771  0.020109)
 42:   1061.19   0.001361    6.88  0.000400  (-0.004509  0.010708 -0.016286)
 43:   1070.54   0.000871    4.40  0.000254  ( 0.007448  0.005761 -0.012859)
 44:   1084.86   0.003371   17.03  0.000970  ( 0.003343  0.028152  0.012878)
 45:   1107.08   0.003693   18.66  0.001041  (-0.009512 -0.008044 -0.029763)
 46:   1130.23   0.000440    2.22  0.000121  (-0.003252  0.009278  0.004980)
 47:   1168.16   0.010260   51.85  0.002741  ( 0.025305 -0.010034  0.044719)
 48:   1177.68   0.000568    2.87  0.000150  ( 0.000098  0.005420  0.011001)
 49:   1213.62   0.011960   60.44  0.003075  (-0.022184  0.003588  0.050698)
 50:   1249.11   0.016369   82.72  0.004089  (-0.014801 -0.057628 -0.023437)
 51:   1279.11   0.009847   49.76  0.002402  ( 0.006697  0.036434 -0.032093)
 52:   1286.00   0.026850  135.69  0.006515  ( 0.028041 -0.062977 -0.041988)
 53:   1298.02   0.010000   50.54  0.002404  ( 0.004026  0.046317 -0.015582)
 54:   1332.97   0.006535   33.03  0.001530  (-0.022884 -0.031681 -0.001600)
 55:   1369.31   0.002244   11.34  0.000511  ( 0.012044  0.016612  0.009507)
 56:   1391.26   0.082762  418.25  0.018564  ( 0.122150  0.047111  0.037735)
 57:   1399.08   0.012837   64.87  0.002863  ( 0.040705  0.023665  0.025423)
 58:   1412.12   0.002606   13.17  0.000576  (-0.012344  0.010828  0.017499)
 59:   1439.28   0.016564   83.71  0.003591  ( 0.008330 -0.021495  0.055317)
 60:   1453.73   0.012470   63.02  0.002677  ( 0.009748 -0.040989  0.030029)
 61:   1472.62   0.042680  215.69  0.009044  (-0.006571 -0.084859 -0.042427)
 62:   1477.20   0.004994   25.24  0.001055  (-0.026603 -0.018627 -0.000577)
 63:   1480.52   0.003426   17.31  0.000722  (-0.012448  0.023399 -0.004432)
 64:   1484.84   0.010687   54.01  0.002246  (-0.027201  0.038777  0.001553)
 65:   1497.24   0.003186   16.10  0.000664  ( 0.013808 -0.019836 -0.008935)
 66:   1499.80   0.006284   31.75  0.001307  (-0.007273  0.006907  0.034740)
 67:   1501.84   0.001566    7.92  0.000325  ( 0.016598  0.002540 -0.006596)
 68:   1510.39   0.001668    8.43  0.000345  (-0.015781  0.005269 -0.008237)
 69:   1522.75   0.009616   48.59  0.001971  (-0.043744 -0.007499  0.000867)
 70:   1524.59   0.006661   33.66  0.001363  ( 0.013858 -0.001759 -0.034181)
 71:   1547.16   0.017750   89.70  0.003580  (-0.000656  0.049597 -0.033466)
 72:   1589.12   0.223705  1130.51  0.043930  (-0.004068  0.143428 -0.152781)
 73:   1652.91   0.168938  853.75  0.031895  ( 0.111517  0.106965  0.089539)
 74:   1664.24   0.139642  705.69  0.026184  (-0.017946  0.047459  0.153655)
 75:   3037.48   0.006873   34.73  0.000706  (-0.000240  0.026432 -0.002720)
 76:   3043.14   0.018006   91.00  0.001846  (-0.010513 -0.007664  0.040954)
 77:   3053.71   0.004643   23.47  0.000475  (-0.001057  0.003209 -0.021519)
 78:   3061.51   0.000982    4.96  0.000100  ( 0.007665 -0.005097 -0.003915)
 79:   3082.39   0.005150   26.03  0.000521  ( 0.012331 -0.007268 -0.017792)
 80:   3091.30   0.008994   45.45  0.000908  (-0.005169 -0.000366 -0.029683)
 81:   3093.74   0.010731   54.23  0.001082  (-0.031044  0.006136 -0.009006)
 82:   3103.14   0.005669   28.65  0.000570  (-0.020016  0.003745 -0.012468)
 83:   3105.71   0.005336   26.97  0.000536  ( 0.009414 -0.019213 -0.008855)
 84:   3127.54   0.001754    8.87  0.000175  ( 0.004363  0.003782 -0.011905)
 85:   3148.65   0.002416   12.21  0.000239  ( 0.004744 -0.013560  0.005754)
 86:   3159.73   0.005702   28.82  0.000563  (-0.007287  0.021665  0.006379)
 87:   3164.54   0.001865    9.42  0.000184  (-0.011826 -0.003050 -0.005893)
 88:   3186.81   0.000515    2.60  0.000050  ( 0.006722 -0.001282 -0.001903)
 89:   3189.84   0.000776    3.92  0.000076  (-0.001808 -0.007908 -0.003185)

* The epsilon (eps) is given for a Dirac delta lineshape.
** The dipole moment derivative (T) already includes vibrational overlap.

The first frequency considered to be a vibration is 6
The total number of vibrations considered is 84


--------------------------
THERMOCHEMISTRY AT 298.15K
--------------------------

Temperature         ... 298.15 K
Pressure            ... 1.00 atm
Total Mass          ... 215.23 AMU

Throughout the following assumptions are being made:
  (1) The electronic state is orbitally nondegenerate
  (2) There are no thermally accessible electronically excited states
  (3) Hindered rotations indicated by low frequency modes are not
      treated as such but are treated as vibrations and this may
      cause some error
  (4) All equations used are the standard statistical mechanics
      equations for an ideal gas
  (5) All vibrations are strictly harmonic

freq.      30.73  E(vib)   ...       0.55 
freq.      41.95  E(vib)   ...       0.53 
freq.      46.49  E(vib)   ...       0.53 
freq.      51.21  E(vib)   ...       0.52 
freq.      71.67  E(vib)   ...       0.50 
freq.      79.50  E(vib)   ...       0.49 
freq.      99.95  E(vib)   ...       0.46 
freq.     116.81  E(vib)   ...       0.44 
freq.     144.76  E(vib)   ...       0.41 
freq.     163.51  E(vib)   ...       0.39 
freq.     173.04  E(vib)   ...       0.38 
freq.     193.16  E(vib)   ...       0.36 
freq.     227.94  E(vib)   ...       0.33 
freq.     261.98  E(vib)   ...       0.29 
freq.     278.62  E(vib)   ...       0.28 
freq.     344.81  E(vib)   ...       0.23 
freq.     356.31  E(vib)   ...       0.22 
freq.     386.41  E(vib)   ...       0.20 
freq.     421.96  E(vib)   ...       0.18 
freq.     451.38  E(vib)   ...       0.16 
freq.     481.89  E(vib)   ...       0.15 
freq.     506.49  E(vib)   ...       0.14 
freq.     573.44  E(vib)   ...       0.11 
freq.     585.78  E(vib)   ...       0.11 
freq.     599.70  E(vib)   ...       0.10 
freq.     620.40  E(vib)   ...       0.09 
freq.     675.11  E(vib)   ...       0.08 
freq.     711.81  E(vib)   ...       0.07 
freq.     757.36  E(vib)   ...       0.06 
freq.     791.78  E(vib)   ...       0.05 
freq.     829.58  E(vib)   ...       0.04 
freq.     919.85  E(vib)   ...       0.03 
freq.     954.50  E(vib)   ...       0.03 
freq.     998.32  E(vib)   ...       0.02 
freq.    1010.98  E(vib)   ...       0.02 
freq.    1044.43  E(vib)   ...       0.02 
freq.    1061.19  E(vib)   ...       0.02 
freq.    1070.54  E(vib)   ...       0.02 
freq.    1084.86  E(vib)   ...       0.02 
freq.    1107.08  E(vib)   ...       0.02 
freq.    1130.23  E(vib)   ...       0.01 
freq.    1168.16  E(vib)   ...       0.01 
freq.    1177.68  E(vib)   ...       0.01 
freq.    1213.62  E(vib)   ...       0.01 
freq.    1249.11  E(vib)   ...       0.01 
freq.    1279.11  E(vib)   ...       0.01 
freq.    1286.00  E(vib)   ...       0.01 
freq.    1298.02  E(vib)   ...       0.01 
freq.    1332.97  E(vib)   ...       0.01 
freq.    1369.31  E(vib)   ...       0.01 
freq.    1391.26  E(vib)   ...       0.00 
freq.    1399.08  E(vib)   ...       0.00 
freq.    1412.12  E(vib)   ...       0.00 
freq.    1439.28  E(vib)   ...       0.00 
freq.    1453.73  E(vib)   ...       0.00 
freq.    1472.62  E(vib)   ...       0.00 
freq.    1477.20  E(vib)   ...       0.00 
freq.    1480.52  E(vib)   ...       0.00 
freq.    1484.84  E(vib)   ...       0.00 
freq.    1497.24  E(vib)   ...       0.00 
freq.    1499.80  E(vib)   ...       0.00 
freq.    1501.84  E(vib)   ...       0.00 
freq.    1510.39  E(vib)   ...       0.00 
freq.    1522.75  E(vib)   ...       0.00 
freq.    1524.59  E(vib)   ...       0.00 
freq.    1547.16  E(vib)   ...       0.00 
freq.    1589.12  E(vib)   ...       0.00 
freq.    1652.91  E(vib)   ...       0.00 
freq.    1664.24  E(vib)   ...       0.00 
freq.    3037.48  E(vib)   ...       0.00 
freq.    3043.14  E(vib)   ...       0.00 
freq.    3053.71  E(vib)   ...       0.00 
freq.    3061.51  E(vib)   ...       0.00 
freq.    3082.39  E(vib)   ...       0.00 
freq.    3091.30  E(vib)   ...       0.00 
freq.    3093.74  E(vib)   ...       0.00 
freq.    3103.14  E(vib)   ...       0.00 
freq.    3105.71  E(vib)   ...       0.00 
freq.    3127.54  E(vib)   ...       0.00 
freq.    3148.65  E(vib)   ...       0.00 
freq.    3159.73  E(vib)   ...       0.00 
freq.    3164.54  E(vib)   ...       0.00 
freq.    3186.81  E(vib)   ...       0.00 
freq.    3189.84  E(vib)   ...       0.00 

------------
INNER ENERGY
------------

The inner energy is: U= E(el) + E(ZPE) + E(vib) + E(rot) + E(trans)
    E(el)   - is the total energy from the electronic structure calculation
              = E(kin-el) + E(nuc-el) + E(el-el) + E(nuc-nuc)
    E(ZPE)  - the the zero temperature vibrational energy from the frequency calculation
    E(vib)  - the the finite temperature correction to E(ZPE) due to population
              of excited vibrational states
    E(rot)  - is the rotational thermal energy
    E(trans)- is the translational thermal energy

Summary of contributions to the inner energy U:
Electronic energy                ...   -762.23200860 Eh
Zero point energy                ...      0.24604530 Eh     154.40 kcal/mol
Thermal vibrational correction   ...      0.01401304 Eh       8.79 kcal/mol
Thermal rotational correction    ...      0.00141627 Eh       0.89 kcal/mol
Thermal translational correction ...      0.00141627 Eh       0.89 kcal/mol
-----------------------------------------------------------------------
Total thermal energy                   -761.96911772 Eh


Summary of corrections to the electronic energy:
(perhaps to be used in another calculation)
Total thermal correction                  0.01684558 Eh      10.57 kcal/mol
Non-thermal (ZPE) correction              0.24604530 Eh     154.40 kcal/mol
-----------------------------------------------------------------------
Total correction                          0.26289088 Eh     164.97 kcal/mol


--------
ENTHALPY
--------

The enthalpy is H = U + kB*T
                kB is Boltzmann's constant
Total free energy                 ...   -761.96911772 Eh 
Thermal Enthalpy correction       ...      0.00094421 Eh       0.59 kcal/mol
-----------------------------------------------------------------------
Total Enthalpy                    ...   -761.96817352 Eh


Note: Only C1 symmetry has been detected, increase convergence thresholds 
      if your molecule has a higher symmetry. Symmetry factor of 1.0 is   
      used for the rotational entropy correction. 
 

Note: Rotational entropy computed according to Herzberg 
Infrared and Raman Spectra, Chapter V,1, Van Nostrand Reinhold, 1945 
Point Group:  C1, Symmetry Number:   1  
Rotational constants in cm-1:     0.020668     0.015957     0.011251 

Vibrational entropy computed according to the QRRHO of S. Grimme
Chem.Eur.J. 2012 18 9955


-------
ENTROPY
-------

The entropy contributions are T*S = T*(S(el)+S(vib)+S(rot)+S(trans))
     S(el)   - electronic entropy
     S(vib)  - vibrational entropy
     S(rot)  - rotational entropy
     S(trans)- translational entropy
The entropies will be listed as multiplied by the temperature to get
units of energy

Electronic entropy                ...      0.00000000 Eh      0.00 kcal/mol
Vibrational entropy               ...      0.02549308 Eh     16.00 kcal/mol
Rotational entropy                ...      0.01541396 Eh      9.67 kcal/mol
Translational entropy             ...      0.01995686 Eh     12.52 kcal/mol
-----------------------------------------------------------------------
Final entropy term                ...      0.06086390 Eh     38.19 kcal/mol

In case the symmetry of your molecule has not been determined correctly
or in case you have a reason to use a different symmetry number we print 
out the resulting rotational entropy values for sn=1,12 :
 --------------------------------------------------------
|  sn= 1 | S(rot)=       0.01541396 Eh      9.67 kcal/mol|
|  sn= 2 | S(rot)=       0.01475950 Eh      9.26 kcal/mol|
|  sn= 3 | S(rot)=       0.01437667 Eh      9.02 kcal/mol|
|  sn= 4 | S(rot)=       0.01410505 Eh      8.85 kcal/mol|
|  sn= 5 | S(rot)=       0.01389436 Eh      8.72 kcal/mol|
|  sn= 6 | S(rot)=       0.01372221 Eh      8.61 kcal/mol|
|  sn= 7 | S(rot)=       0.01357667 Eh      8.52 kcal/mol|
|  sn= 8 | S(rot)=       0.01345059 Eh      8.44 kcal/mol|
|  sn= 9 | S(rot)=       0.01333938 Eh      8.37 kcal/mol|
|  sn=10 | S(rot)=       0.01323990 Eh      8.31 kcal/mol|
|  sn=11 | S(rot)=       0.01314991 Eh      8.25 kcal/mol|
|  sn=12 | S(rot)=       0.01306776 Eh      8.20 kcal/mol|
 --------------------------------------------------------


-------------------
GIBBS FREE ENERGY
-------------------

The Gibbs free energy is G = H - T*S

Total enthalpy                    ...   -761.96817352 Eh 
Total entropy correction          ...     -0.06086390 Eh    -38.19 kcal/mol
-----------------------------------------------------------------------
Final Gibbs free energy         ...   -762.02903742 Eh

For completeness - the Gibbs free energy minus the electronic energy
G-E(el)                           ...      0.20297118 Eh    127.37 kcal/mol


Timings for individual modules:

Sum of individual times         ...     6025.713 sec (= 100.429 min)
GTO integral calculation        ...       60.324 sec (=   1.005 min)   1.0 %
SCF iterations                  ...     3659.343 sec (=  60.989 min)  60.7 %
SCF Gradient evaluation         ...     1030.232 sec (=  17.171 min)  17.1 %
Geometry relaxation             ...        2.831 sec (=   0.047 min)   0.0 %
Analytical frequency calculation...     1272.983 sec (=  21.216 min)  21.1 %
                             ****ORCA TERMINATED NORMALLY****
TOTAL RUN TIME: 0 days 1 hours 40 minutes 40 seconds 767 msec
