
                                 *****************
                                 * O   R   C   A *
                                 *****************

                                            #,                                       
                                            ###                                      
                                            ####                                     
                                            #####                                    
                                            ######                                   
                                           ########,                                 
                                     ,,################,,,,,                         
                               ,,#################################,,                 
                          ,,##########################################,,             
                       ,#########################################, ''#####,          
                    ,#############################################,,   '####,        
                  ,##################################################,,,,####,       
                ,###########''''           ''''###############################       
              ,#####''   ,,,,##########,,,,          '''####'''          '####       
            ,##' ,,,,###########################,,,                        '##       
           ' ,,###''''                  '''############,,,                           
         ,,##''                                '''############,,,,        ,,,,,,###''
      ,#''                                            '''#######################'''  
     '                                                          ''''####''''         
             ,#######,   #######,   ,#######,      ##                                
            ,#'     '#,  ##    ##  ,#'     '#,    #''#        ######   ,####,        
            ##       ##  ##   ,#'  ##            #'  '#       #        #'  '#        
            ##       ##  #######   ##           ,######,      #####,   #    #        
            '#,     ,#'  ##    ##  '#,     ,#' ,#      #,         ##   #,  ,#        
             '#######'   ##     ##  '#######'  #'      '#     #####' # '####'        



                  #######################################################
                  #                        -***-                        #
                  #          Department of theory and spectroscopy      #
                  #    Directorship and core code : Frank Neese         #
                  #        Max Planck Institute fuer Kohlenforschung    #
                  #                Kaiser Wilhelm Platz 1               #
                  #                 D-45470 Muelheim/Ruhr               #
                  #                      Germany                        #
                  #                                                     #
                  #                  All rights reserved                #
                  #                        -***-                        #
                  #######################################################


                         Program Version 5.0.4 -  RELEASE  -


 With contributions from (in alphabetic order):
   Daniel Aravena         : Magnetic Suceptibility
   Michael Atanasov       : Ab Initio Ligand Field Theory (pilot matlab implementation)
   Alexander A. Auer      : GIAO ZORA, VPT2 properties, NMR spectrum
   Ute Becker             : Parallelization
   Giovanni Bistoni       : ED, misc. LED, open-shell LED, HFLD
   Martin Brehm           : Molecular dynamics
   Dmytro Bykov           : SCF Hessian
   Vijay G. Chilkuri      : MRCI spin determinant printing, contributions to CSF-ICE
   Dipayan Datta          : RHF DLPNO-CCSD density
   Achintya Kumar Dutta   : EOM-CC, STEOM-CC
   Dmitry Ganyushin       : Spin-Orbit,Spin-Spin,Magnetic field MRCI
   Miquel Garcia          : C-PCM and meta-GGA Hessian, CC/C-PCM, Gaussian charge scheme
   Yang Guo               : DLPNO-NEVPT2, F12-NEVPT2, CIM, IAO-localization
   Andreas Hansen         : Spin unrestricted coupled pair/coupled cluster methods
   Benjamin Helmich-Paris : MC-RPA, TRAH-SCF, COSX integrals
   Lee Huntington         : MR-EOM, pCC
   Robert Izsak           : Overlap fitted RIJCOSX, COSX-SCS-MP3, EOM
   Marcus Kettner         : VPT2
   Christian Kollmar      : KDIIS, OOCD, Brueckner-CCSD(T), CCSD density, CASPT2, CASPT2-K
   Simone Kossmann        : Meta GGA functionals, TD-DFT gradient, OOMP2, MP2 Hessian
   Martin Krupicka        : Initial AUTO-CI
   Lucas Lang             : DCDCAS
   Marvin Lechner         : AUTO-CI (C++ implementation), FIC-MRCC
   Dagmar Lenk            : GEPOL surface, SMD
   Dimitrios Liakos       : Extrapolation schemes; Compound Job, initial MDCI parallelization
   Dimitrios Manganas     : Further ROCIS development; embedding schemes
   Dimitrios Pantazis     : SARC Basis sets
   Anastasios Papadopoulos: AUTO-CI, single reference methods and gradients
   Taras Petrenko         : DFT Hessian,TD-DFT gradient, ASA, ECA, R-Raman, ABS, FL, XAS/XES, NRVS
   Peter Pinski           : DLPNO-MP2, DLPNO-MP2 Gradient
   Christoph Reimann      : Effective Core Potentials
   Marius Retegan         : Local ZFS, SOC
   Christoph Riplinger    : Optimizer, TS searches, QM/MM, DLPNO-CCSD(T), (RO)-DLPNO pert. Triples
   Tobias Risthaus        : Range-separated hybrids, TD-DFT gradient, RPA, STAB
   Michael Roemelt        : Original ROCIS implementation
   Masaaki Saitow         : Open-shell DLPNO-CCSD energy and density
   Barbara Sandhoefer     : DKH picture change effects
   Avijit Sen             : IP-ROCIS
   Kantharuban Sivalingam : CASSCF convergence, NEVPT2, FIC-MRCI
   Bernardo de Souza      : ESD, SOC TD-DFT
   Georgi Stoychev        : AutoAux, RI-MP2 NMR, DLPNO-MP2 response
   Willem Van den Heuvel  : Paramagnetic NMR
   Boris Wezisla          : Elementary symmetry handling
   Frank Wennmohs         : Technical directorship


 We gratefully acknowledge several colleagues who have allowed us to
 interface, adapt or use parts of their codes:
   Stefan Grimme, W. Hujo, H. Kruse, P. Pracht,  : VdW corrections, initial TS optimization,
                  C. Bannwarth, S. Ehlert          DFT functionals, gCP, sTDA/sTD-DF
   Ed Valeev, F. Pavosevic, A. Kumar             : LibInt (2-el integral package), F12 methods
   Garnet Chan, S. Sharma, J. Yang, R. Olivares  : DMRG
   Ulf Ekstrom                                   : XCFun DFT Library
   Mihaly Kallay                                 : mrcc  (arbitrary order and MRCC methods)
   Jiri Pittner, Ondrej Demel                    : Mk-CCSD
   Frank Weinhold                                : gennbo (NPA and NBO analysis)
   Christopher J. Cramer and Donald G. Truhlar   : smd solvation model
   Lars Goerigk                                  : TD-DFT with DH, B97 family of functionals
   V. Asgeirsson, H. Jonsson                     : NEB implementation
   FAccTs GmbH                                   : IRC, NEB, NEB-TS, DLPNO-Multilevel, CI-OPT
                                                   MM, QMMM, 2- and 3-layer-ONIOM, Crystal-QMMM,
                                                   LR-CPCM, SF, NACMEs, symmetry and pop. for TD-DFT,
                                                   nearIR, NL-DFT gradient (VV10), updates on ESD,
                                                   ML-optimized integration grids
   S Lehtola, MJT Oliveira, MAL Marques          : LibXC Library
   Liviu Ungur et al                             : ANISO software


 Your calculation uses the libint2 library for the computation of 2-el integrals
 For citations please refer to: http://libint.valeyev.net

 Your ORCA version has been built with support for libXC version: 5.1.0
 For citations please refer to: https://tddft.org/programs/libxc/

 This ORCA versions uses:
   CBLAS   interface :  Fast vector & matrix operations
   LAPACKE interface :  Fast linear algebra routines
   SCALAPACK package :  Parallel linear algebra routines
   Shared memory     :  Shared parallel matrices
   BLAS/LAPACK       :  OpenBLAS 0.3.15  USE64BITINT DYNAMIC_ARCH NO_AFFINITY SkylakeX SINGLE_THREADED
        Core in use  :  SkylakeX
   Copyright (c) 2011-2014, The OpenBLAS Project




***************************************
The coordinates will be read from file: /users/fjb15167/WWenergy/structures/Nfe.xyz
***************************************


Your calculation utilizes the atom-pairwise dispersion correction
based on tight binding partial charges (D4)
Cite in your paper:
E.Caldeweyher, C.Bannwarth, S.Grimme, J.Chem.Phys., (2017), 147, 034112.
E.Caldeweyher, S.Ehlert, A.Hansen, H.Neugebauer, S.Grimme, J.Chem.Phys., (2018), in progress.
   

================================================================================

----- Orbital basis set information -----
Your calculation utilizes the basis: 6-31G(d)
   H-He, Li-Ne : W. J. Hehre, R. Ditchfield and J.A. Pople, J. Chem. Phys. 56, 2257 (1972).
                 Note: He and Ne are unpublished basis sets taken from the Gaussian program.
                 Note: Li and B from J. D. Dill and J. A. Pople, J. Chem. Phys. 62, 2921 (1975).
   Na - Ar     : M. M. Francl, W. J. Pietro, W. J. Hehre, J. S. Binkley, M. S. Gordon, 
                 D. J. DeFrees and J. A. Pople, J. Chem. Phys. 77, 3654 (1982).
   K - Zn      : V. A. Rassolov, J. A. Pople, M. A. Ratner, and T. L. Windus, J. Chem. Phys. 109, 1223 (1998).

----- AuxJ basis set information -----
Your calculation utilizes the AutoAux generation procedure.
  G. L. Stoychev, A. A. Auer, F. Neese, J. Chem. Theory Comput. 13, 554 (2017)

----- AuxC basis set information -----
Your calculation utilizes the AutoAux generation procedure.
  G. L. Stoychev, A. A. Auer, F. Neese, J. Chem. Theory Comput. 13, 554 (2017)

----- AuxJK basis set information -----
Your calculation utilizes the AutoAux generation procedure.
  G. L. Stoychev, A. A. Auer, F. Neese, J. Chem. Theory Comput. 13, 554 (2017)

================================================================================
                                        WARNINGS
                       Please study these warnings very carefully!
================================================================================


WARNING: Geometry Optimization
  ===> : Switching off AutoStart
         For restart on a previous wavefunction, please use MOREAD

INFO   : the flag for use of the SHARK integral package has been found!

================================================================================
                                       INPUT FILE
================================================================================
NAME = Nfe_octanol.inp
|  1> ! OPT FREQ B3LYP 6-31G(d) D4 AUTOAUX
|  2> ! CPCM
|  3> 
|  4> %cpcm
|  5> epsilon 9.8629 
|  6> refrac  1.4295 
|  7> end
|  8> 
|  9> %PAL NPROCS 4 END
| 10> 
| 11> %maxcore 3375
| 12> 
| 13> *xyzfile 0 1 /users/fjb15167/WWenergy/structures/Nfe.xyz
| 14> 
| 15>                          ****END OF INPUT****
================================================================================

                       *****************************
                       * Geometry Optimization Run *
                       *****************************

Geometry optimization settings:
Update method            Update   .... BFGS
Choice of coordinates    CoordSys .... Z-matrix Internals
Initial Hessian          InHess   .... Almoef's Model

Convergence Tolerances:
Energy Change            TolE     ....  5.0000e-06 Eh
Max. Gradient            TolMAXG  ....  3.0000e-04 Eh/bohr
RMS Gradient             TolRMSG  ....  1.0000e-04 Eh/bohr
Max. Displacement        TolMAXD  ....  4.0000e-03 bohr
RMS Displacement         TolRMSD  ....  2.0000e-03 bohr
Strict Convergence                ....  False
------------------------------------------------------------------------------
                        ORCA OPTIMIZATION COORDINATE SETUP
------------------------------------------------------------------------------

The optimization will be done in new redundant internal coordinates
Making redundant internal coordinates   ...  (new redundants) done
Evaluating the initial hessian          ...  (Almloef) done
Evaluating the coordinates              ...  done
Calculating the B-matrix                .... done
Calculating the G-matrix                .... done
Diagonalizing the G-matrix              .... done
Small eigenvalue found = 2.790e-03
Small eigenvalue found = 4.893e-03
Small eigenvalue found = 7.091e-03
Small eigenvalue found = 1.154e-02
Small eigenvalue found = 2.025e-02
Small eigenvalue found = 2.221e-02
Small eigenvalue found = 2.860e-02
The first mode is                       ....   79
The number of degrees of freedom        ....  108

    -----------------------------------------------------------------
                    Redundant Internal Coordinates


    -----------------------------------------------------------------
         Definition                    Initial Value    Approx d2E/dq
    -----------------------------------------------------------------
      1. B(H   1,C   0)                  1.0928         0.356441   
      2. B(H   2,C   0)                  1.0946         0.354056   
      3. B(H   3,C   0)                  1.0888         0.361722   
      4. B(C   4,C   0)                  1.5153         0.394285   
      5. B(O   5,C   4)                  1.2395         0.972698   
      6. B(N   6,C   4)                  1.3726         0.596508   
      7. B(C   7,N   6)                  1.4604         0.432146   
      8. B(H   8,C   7)                  1.0946         0.354030   
      9. B(H   9,C   7)                  1.0903         0.359684   
     10. B(C  10,N   6)                  1.4613         0.430617   
     11. B(H  11,C  10)                  1.0941         0.354660   
     12. B(H  12,C  10)                  1.0946         0.354011   
     13. B(C  13,C  10)                  1.5371         0.363951   
     14. B(H  14,C  13)                  1.0940         0.354808   
     15. B(H  15,C  13)                  1.0968         0.351192   
     16. B(C  16,C  13)                  1.5049         0.409643   
     17. B(C  17,C  16)                  1.4032         0.595164   
     18. B(C  18,C  16)                  1.3997         0.603000   
     19. B(C  19,C  17)                  1.3959         0.611443   
     20. B(H  20,C  17)                  1.0895         0.360777   
     21. B(C  21,C  18)                  1.3968         0.609339   
     22. B(H  22,C  18)                  1.0892         0.361197   
     23. B(C  23,C  21)                  1.3964         0.610198   
     24. B(C  23,C  19)                  1.3975         0.607865   
     25. B(H  24,C  19)                  1.0884         0.362279   
     26. B(H  25,C  21)                  1.0880         0.362703   
     27. B(H  26,C  23)                  1.0867         0.364517   
     28. B(C  27,C   7)                  1.5258         0.379368   
     29. B(N  28,C  27)                  1.3644         0.614883   
     30. B(O  29,C  27)                  1.2415         0.965626   
     31. B(C  30,N  28)                  1.4548         0.441003   
     32. B(H  31,C  30)                  1.0977         0.350090   
     33. B(H  32,C  30)                  1.0953         0.353186   
     34. B(H  33,C  30)                  1.0882         0.362537   
     35. B(C  34,N  28)                  1.4554         0.440057   
     36. B(H  35,C  34)                  1.0983         0.349329   
     37. B(H  36,C  34)                  1.0879         0.362883   
     38. B(H  37,C  34)                  1.0933         0.355712   
     39. A(H   3,C   0,C   4)          107.2091         0.327453   
     40. A(H   2,C   0,H   3)          108.8619         0.290272   
     41. A(H   2,C   0,C   4)          110.7417         0.326299   
     42. A(H   1,C   0,H   3)          109.5021         0.290578   
     43. A(H   1,C   0,C   4)          112.4604         0.326660   
     44. A(H   1,C   0,H   2)          108.0134         0.289603   
     45. A(O   5,C   4,N   6)          122.0134         0.461561   
     46. A(C   0,C   4,N   6)          116.9811         0.395213   
     47. A(C   0,C   4,O   5)          121.0012         0.431049   
     48. A(C   4,N   6,C  10)          124.7615         0.398813   
     49. A(C   4,N   6,C   7)          119.0979         0.399061   
     50. A(C   7,N   6,C  10)          116.0491         0.377015   
     51. A(H   8,C   7,H   9)          109.0230         0.290012   
     52. A(H   9,C   7,C  27)          113.6679         0.325078   
     53. A(N   6,C   7,H   9)          107.9814         0.330141   
     54. A(N   6,C   7,H   8)          109.6465         0.329278   
     55. A(H   8,C   7,C  27)          105.3640         0.324233   
     56. A(N   6,C   7,C  27)          111.0916         0.371194   
     57. A(H  12,C  10,C  13)          108.7341         0.322032   
     58. A(H  11,C  10,C  13)          109.9603         0.322128   
     59. A(N   6,C  10,C  13)          113.6969         0.368333   
     60. A(H  11,C  10,H  12)          107.0560         0.289370   
     61. A(N   6,C  10,H  12)          106.9181         0.329082   
     62. A(N   6,C  10,H  11)          110.2091         0.329182   
     63. A(H  15,C  13,C  16)          110.5010         0.327921   
     64. A(H  14,C  13,C  16)          109.8792         0.328476   
     65. A(C  10,C  13,C  16)          110.3713         0.367485   
     66. A(H  14,C  13,H  15)          107.2067         0.289027   
     67. A(C  10,C  13,H  15)          109.8757         0.321610   
     68. A(C  10,C  13,H  14)          108.9400         0.322150   
     69. A(C  17,C  16,C  18)          119.1049         0.428743   
     70. A(C  13,C  16,C  18)          121.4998         0.401199   
     71. A(C  13,C  16,C  17)          119.3163         0.400276   
     72. A(C  16,C  17,C  19)          120.3258         0.429814   
     73. A(C  19,C  17,H  20)          120.5197         0.352192   
     74. A(C  16,C  17,H  20)          119.1538         0.350589   
     75. A(C  21,C  18,H  22)          119.8331         0.352056   
     76. A(C  16,C  18,H  22)          119.6003         0.351434   
     77. A(C  16,C  18,C  21)          120.5572         0.430558   
     78. A(C  23,C  19,H  24)          120.0359         0.352090   
     79. A(C  17,C  19,H  24)          119.7384         0.352440   
     80. A(C  17,C  19,C  23)          120.2255         0.431447   
     81. A(C  23,C  21,H  25)          120.0714         0.352388   
     82. A(C  18,C  21,H  25)          119.8691         0.352304   
     83. A(C  18,C  21,C  23)          120.0593         0.431476   
     84. A(C  21,C  23,H  26)          120.0991         0.352685   
     85. A(C  19,C  23,H  26)          120.1783         0.352457   
     86. A(C  19,C  23,C  21)          119.7211         0.431289   
     87. A(N  28,C  27,O  29)          122.7340         0.463509   
     88. A(C   7,C  27,O  29)          119.2301         0.427517   
     89. A(C   7,C  27,N  28)          118.0156         0.394643   
     90. A(C  30,N  28,C  34)          115.4460         0.379764   
     91. A(C  27,N  28,C  34)          118.1948         0.402482   
     92. A(C  27,N  28,C  30)          125.1468         0.402635   
     93. A(H  32,C  30,H  33)          108.7774         0.290263   
     94. A(H  31,C  30,H  33)          108.4786         0.289862   
     95. A(N  28,C  30,H  33)          111.9470         0.331685   
     96. A(H  31,C  30,H  32)          108.2516         0.288677   
     97. A(N  28,C  30,H  32)          109.0128         0.330253   
     98. A(N  28,C  30,H  31)          110.2910         0.329773   
     99. A(H  35,C  34,H  36)          109.2772         0.289806   
    100. A(N  28,C  34,H  36)          108.6415         0.331619   
    101. A(N  28,C  34,H  35)          110.7795         0.329538   
    102. A(H  36,C  34,H  37)          110.2430         0.290631   
    103. A(H  35,C  34,H  37)          108.6550         0.288901   
    104. A(N  28,C  34,H  37)          109.2410         0.330526   
    105. D(N   6,C   4,C   0,H   2)    -67.9334         0.011553   
    106. D(O   5,C   4,C   0,H   1)   -127.7172         0.011553   
    107. D(N   6,C   4,C   0,H   1)     53.0219         0.011553   
    108. D(O   5,C   4,C   0,H   2)    111.3274         0.011553   
    109. D(O   5,C   4,C   0,H   3)     -7.3051         0.011553   
    110. D(N   6,C   4,C   0,H   3)    173.4341         0.011553   
    111. D(C   7,N   6,C   4,O   5)     -5.5981         0.028648   
    112. D(C  10,N   6,C   4,C   0)     -2.7224         0.028648   
    113. D(C  10,N   6,C   4,O   5)    178.0248         0.028648   
    114. D(C   7,N   6,C   4,C   0)    173.6547         0.028648   
    115. D(C  27,C   7,N   6,C   4)    127.0918         0.015922   
    116. D(H   8,C   7,N   6,C   4)   -116.8538         0.015922   
    117. D(H   9,C   7,N   6,C  10)    178.5018         0.015922   
    118. D(H   8,C   7,N   6,C  10)     59.8337         0.015922   
    119. D(H   9,C   7,N   6,C   4)      1.8143         0.015922   
    120. D(C  27,C   7,N   6,C  10)    -56.2207         0.015922   
    121. D(C  13,C  10,N   6,C   7)     95.3058         0.015809   
    122. D(C  13,C  10,N   6,C   4)    -88.2177         0.015809   
    123. D(H  12,C  10,N   6,C   7)    -24.7020         0.015809   
    124. D(H  11,C  10,N   6,C   7)   -140.7199         0.015809   
    125. D(H  11,C  10,N   6,C   4)     35.7567         0.015809   
    126. D(H  12,C  10,N   6,C   4)    151.7745         0.015809   
    127. D(C  16,C  13,C  10,N   6)   -167.5611         0.010611   
    128. D(C  16,C  13,C  10,H  11)     68.3299         0.010611   
    129. D(H  15,C  13,C  10,H  12)   -170.6923         0.010611   
    130. D(H  15,C  13,C  10,H  11)    -53.7764         0.010611   
    131. D(H  15,C  13,C  10,N   6)     70.3326         0.010611   
    132. D(H  14,C  13,C  10,H  12)     72.1386         0.010611   
    133. D(H  14,C  13,C  10,H  11)   -170.9456         0.010611   
    134. D(C  16,C  13,C  10,H  12)    -48.5859         0.010611   
    135. D(H  14,C  13,C  10,N   6)    -46.8366         0.010611   
    136. D(C  18,C  16,C  13,H  15)     23.4578         0.012429   
    137. D(C  18,C  16,C  13,H  14)    141.5590         0.012429   
    138. D(C  18,C  16,C  13,C  10)    -98.2796         0.012429   
    139. D(C  17,C  16,C  13,H  15)   -159.8029         0.012429   
    140. D(C  17,C  16,C  13,H  14)    -41.7016         0.012429   
    141. D(C  17,C  16,C  13,C  10)     78.4598         0.012429   
    142. D(H  20,C  17,C  16,C  18)    179.4997         0.024398   
    143. D(H  20,C  17,C  16,C  13)      2.6815         0.024398   
    144. D(C  19,C  17,C  16,C  18)     -0.8024         0.024398   
    145. D(C  19,C  17,C  16,C  13)   -177.6206         0.024398   
    146. D(H  22,C  18,C  16,C  17)    179.7590         0.025080   
    147. D(H  22,C  18,C  16,C  13)     -3.4949         0.025080   
    148. D(C  21,C  18,C  16,C  17)      0.8733         0.025080   
    149. D(C  21,C  18,C  16,C  13)    177.6193         0.025080   
    150. D(H  24,C  19,C  17,H  20)      0.0771         0.025828   
    151. D(H  24,C  19,C  17,C  16)   -179.6167         0.025828   
    152. D(C  23,C  19,C  17,H  20)   -179.7916         0.025828   
    153. D(C  23,C  19,C  17,C  16)      0.5147         0.025828   
    154. D(H  25,C  21,C  18,H  22)      0.6333         0.025640   
    155. D(H  25,C  21,C  18,C  16)    179.5165         0.025640   
    156. D(C  23,C  21,C  18,H  22)   -179.5377         0.025640   
    157. D(C  23,C  21,C  18,C  16)     -0.6545         0.025640   
    158. D(H  26,C  23,C  21,H  25)     -0.2635         0.025717   
    159. D(H  26,C  23,C  21,C  18)    179.9079         0.025717   
    160. D(C  19,C  23,C  21,H  25)   -179.8187         0.025717   
    161. D(C  19,C  23,C  21,C  18)      0.3527         0.025717   
    162. D(H  26,C  23,C  19,H  24)      0.2923         0.025509   
    163. D(H  26,C  23,C  19,C  17)   -179.8394         0.025509   
    164. D(C  21,C  23,C  19,H  24)    179.8471         0.025509   
    165. D(C  21,C  23,C  19,C  17)     -0.2846         0.025509   
    166. D(N  28,C  27,C   7,H   8)    163.0618         0.010742   
    167. D(N  28,C  27,C   7,N   6)    -78.2728         0.010742   
    168. D(O  29,C  27,C   7,H   9)   -137.8403         0.010742   
    169. D(O  29,C  27,C   7,H   8)    -18.5323         0.010742   
    170. D(O  29,C  27,C   7,N   6)    100.1331         0.010742   
    171. D(N  28,C  27,C   7,H   9)     43.7538         0.010742   
    172. D(C  34,N  28,C  27,O  29)     -2.9836         0.030576   
    173. D(C  34,N  28,C  27,C   7)    175.3626         0.030576   
    174. D(C  30,N  28,C  27,O  29)   -169.7945         0.030576   
    175. D(C  30,N  28,C  27,C   7)      8.5518         0.030576   
    176. D(H  33,C  30,N  28,C  34)    176.4249         0.016584   
    177. D(H  33,C  30,N  28,C  27)    -16.4426         0.016584   
    178. D(H  32,C  30,N  28,C  34)     56.0328         0.016584   
    179. D(H  32,C  30,N  28,C  27)   -136.8347         0.016584   
    180. D(H  31,C  30,N  28,C  34)    -62.6906         0.016584   
    181. D(H  31,C  30,N  28,C  27)    104.4419         0.016584   
    182. D(H  37,C  34,N  28,C  30)    -52.3203         0.016513   
    183. D(H  37,C  34,N  28,C  27)    139.6034         0.016513   
    184. D(H  36,C  34,N  28,C  30)   -172.6192         0.016513   
    185. D(H  36,C  34,N  28,C  27)     19.3046         0.016513   
    186. D(H  35,C  34,N  28,C  30)     67.3368         0.016513   
    187. D(H  35,C  34,N  28,C  27)   -100.7394         0.016513   
    -----------------------------------------------------------------

Number of atoms                         .... 38
Number of degrees of freedom            .... 187

         *************************************************************
         *                GEOMETRY OPTIMIZATION CYCLE   1            *
         *************************************************************
---------------------------------
CARTESIAN COORDINATES (ANGSTROEM)
---------------------------------
  C     -1.531000    3.230000   -0.350000
  H     -0.755000    2.993000   -1.082000
  H     -1.065000    3.787000    0.469000
  H     -2.290000    3.857000   -0.815000
  C     -2.231000    1.992000    0.173000
  O     -3.467000    1.901000    0.153000
  N     -1.436000    0.994000    0.679000
  C     -2.064000   -0.157000    1.322000
  H     -1.771000   -0.195000    2.376000
  H     -3.145000   -0.030000    1.258000
  C      0.025000    1.020000    0.695000
  H      0.383000    2.039000    0.870000
  H      0.345000    0.416000    1.550000
  C      0.667000    0.450000   -0.580000
  H      0.181000   -0.498000   -0.829000
  H      0.496000    1.133000   -1.421000
  C      2.141000    0.230000   -0.371000
  C      2.573000   -0.900000    0.340000
  C      3.089000    1.161000   -0.811000
  C      3.932000   -1.099000    0.589000
  H      1.835000   -1.621000    0.690000
  C      4.449000    0.961000   -0.563000
  H      2.763000    2.039000   -1.367000
  C      4.873000   -0.168000    0.141000
  H      4.257000   -1.982000    1.136000
  H      5.177000    1.688000   -0.917000
  H      5.931000   -0.325000    0.333000
  C     -1.564000   -1.465000    0.716000
  N     -2.083000   -1.855000   -0.484000
  O     -0.688000   -2.113000    1.311000
  C     -2.948000   -1.043000   -1.326000
  H     -2.386000   -0.652000   -2.184000
  H     -3.764000   -1.667000   -1.706000
  H     -3.374000   -0.203000   -0.781000
  C     -1.536000   -3.047000   -1.115000
  H     -0.828000   -2.777000   -1.910000
  H     -1.020000   -3.635000   -0.359000
  H     -2.351000   -3.628000   -1.555000

----------------------------
CARTESIAN COORDINATES (A.U.)
----------------------------
  NO LB      ZA    FRAG     MASS         X           Y           Z
   0 C     6.0000    0    12.011   -2.893171    6.103815   -0.661404
   1 H     1.0000    0     1.008   -1.426743    5.655950   -2.044684
   2 H     1.0000    0     1.008   -2.012558    7.156393    0.886282
   3 H     1.0000    0     1.008   -4.327473    7.288674   -1.540127
   4 C     6.0000    0    12.011   -4.215979    3.764334    0.326923
   5 O     8.0000    0    15.999   -6.551681    3.592369    0.289128
   6 N     7.0000    0    14.007   -2.713647    1.878388    1.283124
   7 C     6.0000    0    12.011   -3.900395   -0.296687    2.498218
   8 H     1.0000    0     1.008   -3.346705   -0.368497    4.489989
   9 H     1.0000    0     1.008   -5.943189   -0.056692    2.377275
  10 C     6.0000    0    12.011    0.047243    1.927521    1.313360
  11 H     1.0000    0     1.008    0.723765    3.853152    1.644062
  12 H     1.0000    0     1.008    0.651956    0.786126    2.929076
  13 C     6.0000    0    12.011    1.260447    0.850377   -1.096041
  14 H     1.0000    0     1.008    0.342040   -0.941084   -1.566583
  15 H     1.0000    0     1.008    0.937304    2.141060   -2.685301
  16 C     6.0000    0    12.011    4.045904    0.434637   -0.701088
  17 C     6.0000    0    12.011    4.862265   -1.700754    0.642507
  18 C     6.0000    0    12.011    5.837364    2.193972   -1.532568
  19 C     6.0000    0    12.011    7.430403   -2.076809    1.113049
  20 H     1.0000    0     1.008    3.467647   -3.063246    1.303911
  21 C     6.0000    0    12.011    8.407392    1.816027   -1.063916
  22 H     1.0000    0     1.008    5.221313    3.853152   -2.583256
  23 C     6.0000    0    12.011    9.208635   -0.317474    0.266451
  24 H     1.0000    0     1.008    8.044564   -3.745437    2.146729
  25 H     1.0000    0     1.008    9.783112    3.189858   -1.732879
  26 H     1.0000    0     1.008   11.207966   -0.614161    0.629279
  27 C     6.0000    0    12.011   -2.955532   -2.768449    1.353044
  28 N     7.0000    0    14.007   -3.936300   -3.505442   -0.914627
  29 O     8.0000    0    15.999   -1.300132   -3.992991    2.477431
  30 C     6.0000    0    12.011   -5.570913   -1.970984   -2.505777
  31 H     1.0000    0     1.008   -4.508887   -1.232101   -4.127162
  32 H     1.0000    0     1.008   -7.112929   -3.150173   -3.223873
  33 H     1.0000    0     1.008   -6.375936   -0.383614   -1.475876
  34 C     6.0000    0    12.011   -2.902619   -5.757996   -2.107045
  35 H     1.0000    0     1.008   -1.564693   -5.247769   -3.609377
  36 H     1.0000    0     1.008   -1.927521   -6.869154   -0.678412
  37 H     1.0000    0     1.008   -4.442746   -6.855926   -2.938524

--------------------------------
INTERNAL COORDINATES (ANGSTROEM)
--------------------------------
 C      0   0   0     0.000000000000     0.00000000     0.00000000
 H      1   0   0     1.092780398799     0.00000000     0.00000000
 H      1   2   0     1.094607692281   108.01336878     0.00000000
 H      1   2   3     1.088776836638   109.50212553   118.41189973
 C      1   2   3     1.515312838987   112.46041576   237.49262217
 O      5   1   2     1.239506756738   121.00116116   232.28277195
 N      5   1   2     1.372612472623   116.98114940    53.02193674
 C      7   5   1     1.460354066656   119.09792699   173.65467969
 H      8   7   5     1.094627333845   109.64650327   243.14616047
 H      8   7   5     1.090314633489   107.98138976     1.81433338
 C      7   5   1     1.461318924807   124.76145528   357.27758679
 H     11   7   5     1.094143500643   110.20905974    35.75666837
 H     11   7   5     1.094641950594   106.91806952   151.77454400
 C     11   7   5     1.537104095369   113.69685729   271.78229893
 H     14  11   7     1.094029707092   108.94002641   313.16341768
 H     14  11   7     1.096818581170   109.87574393    70.33256704
 C     14  11   7     1.504910960821   110.37131591   192.43893045
 C     17  14  11     1.403226638858   119.31626786    78.45979326
 C     17  14  11     1.399666031595   121.49984879   261.72043173
 C     18  17  14     1.395880725564   120.32575403   182.37943751
 H     18  17  14     1.089488412054   119.15383801     2.68151109
 C     19  17  14     1.396819243854   120.55721451   177.61933750
 H     19  17  14     1.089172162700   119.60029598   356.50508403
 C     22  19  17     1.396435820222   120.05929924   359.34546716
 H     20  18  17     1.088357937445   119.73844673   180.38333347
 H     22  19  17     1.088039061799   119.86910101   179.51650767
 H     24  22  19     1.086681646114   120.09912266   179.90789498
 C      8   7   5     1.525811259626   111.09162781   127.09179410
 N     28   8   7     1.364353693146   118.01556655   281.72716174
 O     28   8   7     1.241493052739   119.23012265   100.13308888
 C     29  28   8     1.454830918011   125.14675513     8.55176574
 H     31  29  28     1.097674359726   110.29104265   104.44186090
 H     31  29  28     1.095277133880   109.01284257   223.16528166
 H     31  29  28     1.088164050132   111.94701205   343.55741427
 C     29  28   8     1.455415404618   118.19483674   175.36264014
 H     35  29  28     1.098266361135   110.77952706   259.26057754
 H     35  29  28     1.087904407565   108.64150255    19.30455332
 H     35  29  28     1.093337093489   109.24098343   139.60344256

---------------------------
INTERNAL COORDINATES (A.U.)
---------------------------
 C      0   0   0     0.000000000000     0.00000000     0.00000000
 H      1   0   0     2.065055678248     0.00000000     0.00000000
 H      1   2   0     2.068508762494   108.01336878     0.00000000
 H      1   2   3     2.057490042203   109.50212553   118.41189973
 C      1   2   3     2.863526272901   112.46041576   237.49262217
 O      5   1   2     2.342328311380   121.00116116   232.28277195
 N      5   1   2     2.593861661262   116.98114940    53.02193674
 C      7   5   1     2.759669244539   119.09792699   173.65467969
 H      8   7   5     2.068545879671   109.64650327   243.14616047
 H      8   7   5     2.060396057101   107.98138976     1.81433338
 C      7   5   1     2.761492562202   124.76145528   357.27758679
 H     11   7   5     2.067631567426   110.20905974    35.75666837
 H     11   7   5     2.068573501324   106.91806952   151.77454400
 C     11   7   5     2.904705779576   113.69685729   271.78229893
 H     14  11   7     2.067416528778   108.94002641   313.16341768
 H     14  11   7     2.072686737008   109.87574393    70.33256704
 C     14  11   7     2.843869571888   110.37131591   192.43893045
 C     17  14  11     2.651714051264   119.31626786    78.45979326
 C     17  14  11     2.644985478666   121.49984879   261.72043173
 C     18  17  14     2.637832286935   120.32575403   182.37943751
 H     18  17  14     2.058834724863   119.15383801     2.68151109
 C     19  17  14     2.639605829474   120.55721451   177.61933750
 H     19  17  14     2.058237100193   119.60029598   356.50508403
 C     22  19  17     2.638881263818   120.05929924   359.34546716
 H     20  18  17     2.056698437451   119.73844673   180.38333347
 H     22  19  17     2.056095849808   119.86910101   179.51650767
 H     24  22  19     2.053530705913   120.09912266   179.90789498
 C      8   7   5     2.883365412746   111.09162781   127.09179410
 N     28   8   7     2.578254829849   118.01556655   281.72716174
 O     28   8   7     2.346081866843   119.23012265   100.13308888
 C     29  28   8     2.749232006202   125.14675513     8.55176574
 H     31  29  28     2.074303924110   110.29104265   104.44186090
 H     31  29  28     2.069773823779   109.01284257   223.16528166
 H     31  29  28     2.056332043528   111.94701205   343.55741427
 C     29  28   8     2.750336525819   118.19483674   175.36264014
 H     35  29  28     2.075422644643   110.77952706   259.26057754
 H     35  29  28     2.055841390184   108.64150255    19.30455332
 H     35  29  28     2.066107678753   109.24098343   139.60344256

---------------------
BASIS SET INFORMATION
---------------------
There are 4 groups of distinct atoms

 Group   1 Type C   : 10s4p1d contracted to 3s2p1d pattern {631/31/1}
 Group   2 Type H   : 4s contracted to 2s pattern {31}
 Group   3 Type O   : 10s4p1d contracted to 3s2p1d pattern {631/31/1}
 Group   4 Type N   : 10s4p1d contracted to 3s2p1d pattern {631/31/1}

Atom   0C    basis set group =>   1
Atom   1H    basis set group =>   2
Atom   2H    basis set group =>   2
Atom   3H    basis set group =>   2
Atom   4C    basis set group =>   1
Atom   5O    basis set group =>   3
Atom   6N    basis set group =>   4
Atom   7C    basis set group =>   1
Atom   8H    basis set group =>   2
Atom   9H    basis set group =>   2
Atom  10C    basis set group =>   1
Atom  11H    basis set group =>   2
Atom  12H    basis set group =>   2
Atom  13C    basis set group =>   1
Atom  14H    basis set group =>   2
Atom  15H    basis set group =>   2
Atom  16C    basis set group =>   1
Atom  17C    basis set group =>   1
Atom  18C    basis set group =>   1
Atom  19C    basis set group =>   1
Atom  20H    basis set group =>   2
Atom  21C    basis set group =>   1
Atom  22H    basis set group =>   2
Atom  23C    basis set group =>   1
Atom  24H    basis set group =>   2
Atom  25H    basis set group =>   2
Atom  26H    basis set group =>   2
Atom  27C    basis set group =>   1
Atom  28N    basis set group =>   4
Atom  29O    basis set group =>   3
Atom  30C    basis set group =>   1
Atom  31H    basis set group =>   2
Atom  32H    basis set group =>   2
Atom  33H    basis set group =>   2
Atom  34C    basis set group =>   1
Atom  35H    basis set group =>   2
Atom  36H    basis set group =>   2
Atom  37H    basis set group =>   2
---------------------------------
AUXILIARY/J BASIS SET INFORMATION
---------------------------------
There are 4 groups of distinct atoms

 Group   1 Type C   : 13s11p10d2f contracted to 13s11p10d2f pattern {1111111111111/11111111111/1111111111/11}
 Group   2 Type H   : 9s2p contracted to 9s2p pattern {111111111/11}
 Group   3 Type O   : 14s11p10d2f contracted to 14s11p10d2f pattern {11111111111111/11111111111/1111111111/11}
 Group   4 Type N   : 14s11p10d2f contracted to 14s11p10d2f pattern {11111111111111/11111111111/1111111111/11}

Atom   0C    basis set group =>   1
Atom   1H    basis set group =>   2
Atom   2H    basis set group =>   2
Atom   3H    basis set group =>   2
Atom   4C    basis set group =>   1
Atom   5O    basis set group =>   3
Atom   6N    basis set group =>   4
Atom   7C    basis set group =>   1
Atom   8H    basis set group =>   2
Atom   9H    basis set group =>   2
Atom  10C    basis set group =>   1
Atom  11H    basis set group =>   2
Atom  12H    basis set group =>   2
Atom  13C    basis set group =>   1
Atom  14H    basis set group =>   2
Atom  15H    basis set group =>   2
Atom  16C    basis set group =>   1
Atom  17C    basis set group =>   1
Atom  18C    basis set group =>   1
Atom  19C    basis set group =>   1
Atom  20H    basis set group =>   2
Atom  21C    basis set group =>   1
Atom  22H    basis set group =>   2
Atom  23C    basis set group =>   1
Atom  24H    basis set group =>   2
Atom  25H    basis set group =>   2
Atom  26H    basis set group =>   2
Atom  27C    basis set group =>   1
Atom  28N    basis set group =>   4
Atom  29O    basis set group =>   3
Atom  30C    basis set group =>   1
Atom  31H    basis set group =>   2
Atom  32H    basis set group =>   2
Atom  33H    basis set group =>   2
Atom  34C    basis set group =>   1
Atom  35H    basis set group =>   2
Atom  36H    basis set group =>   2
Atom  37H    basis set group =>   2
---------------------------------
AUXILIARY/C BASIS SET INFORMATION
---------------------------------
There are 4 groups of distinct atoms

 Group   1 Type C   : 13s11p10d2f contracted to 13s11p10d2f pattern {1111111111111/11111111111/1111111111/11}
 Group   2 Type H   : 9s2p contracted to 9s2p pattern {111111111/11}
 Group   3 Type O   : 14s11p10d2f contracted to 14s11p10d2f pattern {11111111111111/11111111111/1111111111/11}
 Group   4 Type N   : 14s11p10d2f contracted to 14s11p10d2f pattern {11111111111111/11111111111/1111111111/11}

Atom   0C    basis set group =>   1
Atom   1H    basis set group =>   2
Atom   2H    basis set group =>   2
Atom   3H    basis set group =>   2
Atom   4C    basis set group =>   1
Atom   5O    basis set group =>   3
Atom   6N    basis set group =>   4
Atom   7C    basis set group =>   1
Atom   8H    basis set group =>   2
Atom   9H    basis set group =>   2
Atom  10C    basis set group =>   1
Atom  11H    basis set group =>   2
Atom  12H    basis set group =>   2
Atom  13C    basis set group =>   1
Atom  14H    basis set group =>   2
Atom  15H    basis set group =>   2
Atom  16C    basis set group =>   1
Atom  17C    basis set group =>   1
Atom  18C    basis set group =>   1
Atom  19C    basis set group =>   1
Atom  20H    basis set group =>   2
Atom  21C    basis set group =>   1
Atom  22H    basis set group =>   2
Atom  23C    basis set group =>   1
Atom  24H    basis set group =>   2
Atom  25H    basis set group =>   2
Atom  26H    basis set group =>   2
Atom  27C    basis set group =>   1
Atom  28N    basis set group =>   4
Atom  29O    basis set group =>   3
Atom  30C    basis set group =>   1
Atom  31H    basis set group =>   2
Atom  32H    basis set group =>   2
Atom  33H    basis set group =>   2
Atom  34C    basis set group =>   1
Atom  35H    basis set group =>   2
Atom  36H    basis set group =>   2
Atom  37H    basis set group =>   2
----------------------------------
AUXILIARY/JK BASIS SET INFORMATION
----------------------------------
There are 4 groups of distinct atoms

 Group   1 Type C   : 13s11p10d2f contracted to 13s11p10d2f pattern {1111111111111/11111111111/1111111111/11}
 Group   2 Type H   : 9s2p contracted to 9s2p pattern {111111111/11}
 Group   3 Type O   : 14s11p10d2f contracted to 14s11p10d2f pattern {11111111111111/11111111111/1111111111/11}
 Group   4 Type N   : 14s11p10d2f contracted to 14s11p10d2f pattern {11111111111111/11111111111/1111111111/11}

Atom   0C    basis set group =>   1
Atom   1H    basis set group =>   2
Atom   2H    basis set group =>   2
Atom   3H    basis set group =>   2
Atom   4C    basis set group =>   1
Atom   5O    basis set group =>   3
Atom   6N    basis set group =>   4
Atom   7C    basis set group =>   1
Atom   8H    basis set group =>   2
Atom   9H    basis set group =>   2
Atom  10C    basis set group =>   1
Atom  11H    basis set group =>   2
Atom  12H    basis set group =>   2
Atom  13C    basis set group =>   1
Atom  14H    basis set group =>   2
Atom  15H    basis set group =>   2
Atom  16C    basis set group =>   1
Atom  17C    basis set group =>   1
Atom  18C    basis set group =>   1
Atom  19C    basis set group =>   1
Atom  20H    basis set group =>   2
Atom  21C    basis set group =>   1
Atom  22H    basis set group =>   2
Atom  23C    basis set group =>   1
Atom  24H    basis set group =>   2
Atom  25H    basis set group =>   2
Atom  26H    basis set group =>   2
Atom  27C    basis set group =>   1
Atom  28N    basis set group =>   4
Atom  29O    basis set group =>   3
Atom  30C    basis set group =>   1
Atom  31H    basis set group =>   2
Atom  32H    basis set group =>   2
Atom  33H    basis set group =>   2
Atom  34C    basis set group =>   1
Atom  35H    basis set group =>   2
Atom  36H    basis set group =>   2
Atom  37H    basis set group =>   2


           ************************************************************
           *        Program running with 4 parallel MPI-processes     *
           *              working on a common directory               *
           ************************************************************
------------------------------------------------------------------------------
                           ORCA GTO INTEGRAL CALCULATION
                           -- RI-GTO INTEGRALS CHOSEN --
------------------------------------------------------------------------------
------------------------------------------------------------------------------
                   ___                                                        
                  /   \      - P O W E R E D   B Y -                         
                 /     \                                                     
                 |  |  |   _    _      __       _____    __    __             
                 |  |  |  | |  | |    /  \     |  _  \  |  |  /  |          
                  \  \/   | |  | |   /    \    | | | |  |  | /  /          
                 / \  \   | |__| |  /  /\  \   | |_| |  |  |/  /          
                |  |  |   |  __  | /  /__\  \  |    /   |      \           
                |  |  |   | |  | | |   __   |  |    \   |  |\   \          
                \     /   | |  | | |  |  |  |  | |\  \  |  | \   \       
                 \___/    |_|  |_| |__|  |__|  |_| \__\ |__|  \__/        
                                                                              
                      - O R C A' S   B I G   F R I E N D -                    
                                      &                                       
                       - I N T E G R A L  F E E D E R -                       
                                                                              
 v1 FN, 2020, v2 2021                                                         
------------------------------------------------------------------------------


Reading SHARK input file Nfe_octanol.SHARKINP.tmp ... ok
----------------------
SHARK INTEGRAL PACKAGE
----------------------

Number of atoms                             ...     38
Number of basis functions                   ...    292
Number of shells                            ...    148
Maximum angular momentum                    ...      2
Integral batch strategy                     ... SHARK/LIBINT Hybrid
RI-J (if used) integral strategy            ... SPLIT-RIJ (Revised 2003 algorithm where possible)
Printlevel                                  ...      1
Contraction scheme used                     ... SEGMENTED contraction
Coulomb Range Separation                    ... NOT USED
Exchange Range Separation                   ... NOT USED
Finite Nucleus Model                        ... NOT USED
Auxiliary Coulomb fitting basis             ... AVAILABLE
   # of basis functions in Aux-J            ...   2284
   # of shells in Aux-J                     ...    872
   Maximum angular momentum in Aux-J        ...      3
Auxiliary J/K fitting basis                 ... AVAILABLE
   # of basis functions in Aux-JK           ...   2284
   # of shells in Aux-JK                    ...    872
   Maximum angular momentum in Aux-JK       ...      3
Auxiliary Correlation fitting basis         ... AVAILABLE
   # of basis functions in Aux-C            ...   2284
   # of shells in Aux-C                     ...    872
   Maximum angular momentum in Aux-C        ...      3
Auxiliary 'external' fitting basis          ... NOT available
Integral threshold                          ...     2.500000e-11
Primitive cut-off                           ...     2.500000e-12
Primitive pair pre-selection threshold      ...     2.500000e-12

Calculating pre-screening integrals         ... done (  0.1 sec) Dimension = 148
Organizing shell pair data                  ... done (  0.1 sec)
Shell pair information
Total number of shell pairs                 ...     11026
Shell pairs after pre-screening             ...      8783
Total number of primitive shell pairs       ...     61863
Primitive shell pairs kept                  ...     27668
          la=0 lb=0:   3404 shell pairs
          la=1 lb=0:   2881 shell pairs
          la=1 lb=1:    616 shell pairs
          la=2 lb=0:   1227 shell pairs
          la=2 lb=1:    537 shell pairs
          la=2 lb=2:    118 shell pairs

Calculating one electron integrals          ... done (  0.0 sec)
Calculating RI/J V-Matrix + Cholesky decomp.... done (  0.4 sec)
Calculating RI/JK V-Matrix + Cholesky decomp... done (  0.4 sec)
Calculating RI/C V-Matrix + Cholesky decomp.... done (  0.3 sec)
Calculating Nuclear repulsion               ... done (  0.0 sec) ENN=   1355.550014315197 Eh

SHARK setup successfully completed in   1.7 seconds

Maximum memory used throughout the entire GTOINT-calculation: 44.3 MB


           ************************************************************
           *        Program running with 4 parallel MPI-processes     *
           *              working on a common directory               *
           ************************************************************
-------------------------------------------------------------------------------
                                 ORCA SCF
-------------------------------------------------------------------------------

------------
SCF SETTINGS
------------
Hamiltonian:
 Density Functional     Method          .... DFT(GTOs)
 Exchange Functional    Exchange        .... B88
   X-Alpha parameter    XAlpha          ....  0.666667
   Becke's b parameter  XBeta           ....  0.004200
 Correlation Functional Correlation     .... LYP
 LDA part of GGA corr.  LDAOpt          .... VWN-5
 Gradients option       PostSCFGGA      .... off
 Hybrid DFT is turned on
   Fraction HF Exchange ScalHFX         ....  0.200000
   Scaling of DF-GGA-X  ScalDFX         ....  0.720000
   Scaling of DF-GGA-C  ScalDFC         ....  0.810000
   Scaling of DF-LDA-C  ScalLDAC        ....  1.000000
   Perturbative correction              ....  0.000000
   Density functional embedding theory  .... OFF
   NL short-range parameter             ....  4.800000
 RI-approximation to the Coulomb term is turned on
   Number of AuxJ basis functions       .... 2284
   RIJ-COSX (HFX calculated with COS-X)).... on


General Settings:
 Integral files         IntName         .... Nfe_octanol
 Hartree-Fock type      HFTyp           .... RHF
 Total Charge           Charge          ....    0
 Multiplicity           Mult            ....    1
 Number of Electrons    NEL             ....  134
 Basis Dimension        Dim             ....  292
 Nuclear Repulsion      ENuc            ....   1355.5500143152 Eh

Convergence Acceleration:
 DIIS                   CNVDIIS         .... on
   Start iteration      DIISMaxIt       ....    12
   Startup error        DIISStart       ....  0.200000
   # of expansion vecs  DIISMaxEq       ....     5
   Bias factor          DIISBfac        ....   1.050
   Max. coefficient     DIISMaxC        ....  10.000
 Trust-Rad. Augm. Hess. CNVTRAH         .... auto
   Auto Start mean grad. ratio tolernc. ....  1.125000
   Auto Start start iteration           ....    20
   Auto Start num. interpolation iter.  ....    10
   Max. Number of Micro iterations      ....    16
   Max. Number of Macro iterations      .... Maxiter - #DIIS iter
   Number of Davidson start vectors     ....     2
   Converg. threshold I  (grad. norm)   ....   1.000e-05
   Converg. threshold II (energy diff.) ....   1.000e-08
   Grad. Scal. Fac. for Micro threshold ....   0.100
   Minimum threshold for Micro iter.    ....   0.010
   NR start threshold (gradient norm)   ....   0.001
   Initial trust radius                 ....   0.400
   Minimum AH scaling param. (alpha)    ....   1.000
   Maximum AH scaling param. (alpha)    .... 1000.000
   Orbital update algorithm             .... Taylor
   White noise on init. David. guess    .... on
   Maximum white noise                  ....   0.010
   Quad. conv. algorithm                .... NR
 SOSCF                  CNVSOSCF        .... on
   Start iteration      SOSCFMaxIt      ....   150
   Startup grad/error   SOSCFStart      ....  0.003300
 Level Shifting         CNVShift        .... on
   Level shift para.    LevelShift      ....    0.2500
   Turn off err/grad.   ShiftErr        ....    0.0010
 Zerner damping         CNVZerner       .... off
 Static damping         CNVDamp         .... on
   Fraction old density DampFac         ....    0.7000
   Max. Damping (<1)    DampMax         ....    0.9800
   Min. Damping (>=0)   DampMin         ....    0.0000
   Turn off err/grad.   DampErr         ....    0.1000
 Fernandez-Rico         CNVRico         .... off

SCF Procedure:
 Maximum # iterations   MaxIter         ....   125
 SCF integral mode      SCFMode         .... Direct
   Integral package                     .... SHARK and LIBINT hybrid scheme
 Reset frequency        DirectResetFreq ....    20
 Integral Threshold     Thresh          ....  2.500e-11 Eh
 Primitive CutOff       TCut            ....  2.500e-12 Eh

Convergence Tolerance:
 Convergence Check Mode ConvCheckMode   .... Total+1el-Energy
 Convergence forced     ConvForced      .... 0
 Energy Change          TolE            ....  1.000e-08 Eh
 1-El. energy change                    ....  1.000e-05 Eh
 Orbital Gradient       TolG            ....  1.000e-05
 Orbital Rotation angle TolX            ....  1.000e-05
 DIIS Error             TolErr          ....  5.000e-07


Diagonalization of the overlap matrix:
Smallest eigenvalue                        ... 4.758e-04
Time for diagonalization                   ...    0.185 sec
Threshold for overlap eigenvalues          ... 1.000e-08
Number of eigenvalues below threshold      ... 0
Time for construction of square roots      ...    0.008 sec
Total time needed                          ...    0.195 sec

Time for model grid setup =    0.493 sec

------------------------------
INITIAL GUESS: MODEL POTENTIAL
------------------------------
Loading Hartree-Fock densities                     ... done
Calculating cut-offs                               ... done
Initializing the effective Hamiltonian             ... done
Setting up the integral package (SHARK)            ... done
Starting the Coulomb interaction                   ... done (   0.4 sec)
Reading the grid                                   ... done
Mapping shells                                     ... done
Starting the XC term evaluation                    ... done (   0.2 sec)
  promolecular density results
     # of electrons  =    133.996646886
     EX              =   -107.487182990
     EC              =     -4.510175231
     EX+EC           =   -111.997358221
Transforming the Hamiltonian                       ... done (   0.0 sec)
Diagonalizing the Hamiltonian                      ... done (   0.0 sec)
Back transforming the eigenvectors                 ... done (   0.0 sec)
Now organizing SCF variables                       ... done
                      ------------------
                      INITIAL GUESS DONE (   1.7 sec)
                      ------------------
-------------------
DFT GRID GENERATION
-------------------

General Integration Accuracy     IntAcc      ... 4.388
Radial Grid Type                 RadialGrid  ... OptM3 with GC (2021)
Angular Grid (max. ang.)         AngularGrid ... 4 (Lebedev-302)
Angular grid pruning method      GridPruning ... 4 (adaptive)
Weight generation scheme         WeightScheme... Becke
Basis function cutoff            BFCut       ... 1.0000e-11
Integration weight cutoff        WCut        ... 1.0000e-14
Angular grids for H and He will be reduced by one unit
Partially contracted basis set               ... off
Rotationally invariant grid construction     ... off

Total number of grid points                  ...   170908
Total number of batches                      ...     2689
Average number of points per batch           ...       63
Average number of grid points per atom       ...     4498
Time for grid setup =    1.436 sec

--------------------
COSX GRID GENERATION
--------------------

GRIDX 1
-------
General Integration Accuracy     IntAcc      ... 3.816
Radial Grid Type                 RadialGrid  ... OptM3 with GC (2021)
Angular Grid (max. ang.)         AngularGrid ... 1 (Lebedev-50)
Angular grid pruning method      GridPruning ... 4 (adaptive)
Weight generation scheme         WeightScheme... Becke
Basis function cutoff            BFCut       ... 1.0000e-11
Integration weight cutoff        WCut        ... 1.0000e-14
Angular grids for H and He will be reduced by one unit
Partially contracted basis set               ... on
Rotationally invariant grid construction     ... off

Total number of grid points                  ...    21743
Total number of batches                      ...      360
Average number of points per batch           ...       60
Average number of grid points per atom       ...      572
UseSFitting                                  ... on

GRIDX 2
-------
General Integration Accuracy     IntAcc      ... 4.020
Radial Grid Type                 RadialGrid  ... OptM3 with GC (2021)
Angular Grid (max. ang.)         AngularGrid ... 2 (Lebedev-110)
Angular grid pruning method      GridPruning ... 4 (adaptive)
Weight generation scheme         WeightScheme... Becke
Basis function cutoff            BFCut       ... 1.0000e-11
Integration weight cutoff        WCut        ... 1.0000e-14
Angular grids for H and He will be reduced by one unit
Partially contracted basis set               ... on
Rotationally invariant grid construction     ... off

Total number of grid points                  ...    46237
Total number of batches                      ...      741
Average number of points per batch           ...       62
Average number of grid points per atom       ...     1217
UseSFitting                                  ... on

GRIDX 3
-------
General Integration Accuracy     IntAcc      ... 4.338
Radial Grid Type                 RadialGrid  ... OptM3 with GC (2021)
Angular Grid (max. ang.)         AngularGrid ... 3 (Lebedev-194)
Angular grid pruning method      GridPruning ... 4 (adaptive)
Weight generation scheme         WeightScheme... Becke
Basis function cutoff            BFCut       ... 1.0000e-11
Integration weight cutoff        WCut        ... 1.0000e-14
Angular grids for H and He will be reduced by one unit
Partially contracted basis set               ... on
Rotationally invariant grid construction     ... off

Total number of grid points                  ...   100767
Total number of batches                      ...     1597
Average number of points per batch           ...       63
Average number of grid points per atom       ...     2652
UseSFitting                                  ... on

Time for X-Grid setup             =    2.814 sec


--------------------
CPCM SOLVATION MODEL
--------------------
CPCM parameters:
  Epsilon                                         ...       9.8629
  Refrac                                          ...       1.4295
  Rsolv                                           ...       1.3000
  Surface type                                    ... GAUSSIAN VDW
  Epsilon function type                           ...         CPCM
Radii:
 Radius for C  used is    3.8550 Bohr (=   2.0400 Ang.)
 Radius for H  used is    2.4944 Bohr (=   1.3200 Ang.)
 Radius for O  used is    3.4469 Bohr (=   1.8240 Ang.)
 Radius for N  used is    3.5149 Bohr (=   1.8600 Ang.)
Calculating surface                               ...        done! (  0.0s)
GEPOL surface points                              ...         1999
GEPOL Volume                                      ...    2130.6659
GEPOL Surface-area                                ...    1090.0580
Calculating surface distance matrix               ...        done! (  0.0s)
Performing Cholesky decomposition & store         ...        done! (  0.1s)
Overall time for CPCM initialization              ...                 0.2s
--------------
SCF ITERATIONS
--------------
ITER       Energy         Delta-E        Max-DP      RMS-DP      [F,P]     Damp
               ***  Starting incremental Fock matrix formation  ***
  0   -804.5331572373   0.000000000000 0.09723347  0.00184155  0.2746926 0.7000
  1   -804.7554708879  -0.222313650665 0.05594549  0.00124917  0.1116496 0.7000
                               ***Turning on DIIS***
  2   -804.8446197274  -0.089148839517 0.06336233  0.00200333  0.0381572 0.0000
  3   -804.9855993244  -0.140979596996 0.03812537  0.00085585  0.0547744 0.0000
  4   -805.0143094468  -0.028710122341 0.00934219  0.00028108  0.0152439 0.0000
  5   -805.0163075007  -0.001998053926 0.00384991  0.00008694  0.0062661 0.0000
                      *** Initiating the SOSCF procedure ***
                           *** Shutting down DIIS ***
                      *** Re-Reading the Fockian *** 
                      *** Removing any level shift *** 
ITER      Energy       Delta-E        Grad      Rot      Max-DP    RMS-DP
  6   -805.01644897  -0.0001414646  0.000235  0.000235  0.001500  0.000039
               *** Restarting incremental Fock matrix formation ***
  7   -805.01649326  -0.0000442904  0.000301  0.001195  0.001893  0.000025
  8   -805.01648581   0.0000074484  0.000586  0.000847  0.001231  0.000016
  9   -805.01649722  -0.0000114091  0.000076  0.000205  0.000368  0.000005
 10   -805.01649679   0.0000004225  0.000149  0.000136  0.000254  0.000004
 11   -805.01649737  -0.0000005735  0.000004  0.000007  0.000022  0.000000
 12   -805.01649737  -0.0000000023  0.000004  0.000006  0.000012  0.000000
                  ***Gradient check signals convergence***
              ***Rediagonalizing the Fockian in SOSCF/NRSCF***

               *****************************************************
               *                     SUCCESS                       *
               *           SCF CONVERGED AFTER  13 CYCLES          *
               *****************************************************

Old exchange energy                            =    -21.901921112 Eh
New exchange energy                            =    -21.901895701 Eh
Exchange energy change after final integration =      0.000025411 Eh
Total energy after final integration           =   -805.016471947 Eh
Final COS-X integration done in                =    14.487 sec

----------------
TOTAL SCF ENERGY
----------------

Total Energy       :         -805.01647195 Eh          -21905.61186 eV

Components:
Nuclear Repulsion  :         1355.55001432 Eh           36886.39116 eV
Electronic Energy  :        -2160.56648626 Eh          -58792.00302 eV
One Electron Energy:        -3785.46655435 Eh         -103007.78176 eV
Two Electron Energy:         1624.90006809 Eh           44215.77874 eV
Max COSX asymmetry :            0.00000384 Eh               0.00010 eV
CPCM Dielectric    :           -0.01795478 Eh              -0.48857 eV

Virial components:
Potential Energy   :        -1605.29652925 Eh          -43682.33933 eV
Kinetic Energy     :          800.28005730 Eh           21776.72747 eV
Virial Ratio       :            2.00591845


DFT components:
N(Alpha)           :       67.000091967005 electrons
N(Beta)            :       67.000091967005 electrons
N(Total)           :      134.000183934010 electrons
E(X)               :      -86.947207409891 Eh       
E(C)               :       -5.316055090550 Eh       
E(XC)              :      -92.263262500442 Eh       
DFET-embed. en.    :        0.000000000000 Eh       
CPCM Solvation Model Properties:
Surface-charge          :           -0.02278214
Charge-correction       :           -0.00016613 Eh              -0.00452 eV
Free-energy (cav+disp)  :  This term is not implemented in the current solvation scheme

---------------
SCF CONVERGENCE
---------------

  Last Energy change         ...    1.1383e-08  Tolerance :   1.0000e-08
  Last MAX-Density change    ...    4.4409e-15  Tolerance :   1.0000e-07
  Last RMS-Density change    ...    4.5760e-17  Tolerance :   5.0000e-09
  Last Orbital Gradient      ...    9.1910e-07  Tolerance :   1.0000e-05
  Last Orbital Rotation      ...    3.2118e-06  Tolerance :   1.0000e-05

             **** THE GBW FILE WAS UPDATED (Nfe_octanol.gbw) ****
             **** DENSITY Nfe_octanol.scfp WAS UPDATED ****
             **** ENERGY FILE WAS UPDATED (Nfe_octanol.en.tmp) ****
             **** THE GBW FILE WAS UPDATED (Nfe_octanol.gbw) ****
             **** DENSITY Nfe_octanol.scfp WAS UPDATED ****
----------------
ORBITAL ENERGIES
----------------

  NO   OCC          E(Eh)            E(eV) 
   0   2.0000     -19.110800      -520.0313 
   1   2.0000     -19.110329      -520.0185 
   2   2.0000     -14.361256      -390.7896 
   3   2.0000     -14.360749      -390.7758 
   4   2.0000     -10.284856      -279.8652 
   5   2.0000     -10.280991      -279.7600 
   6   2.0000     -10.211939      -277.8810 
   7   2.0000     -10.211355      -277.8651 
   8   2.0000     -10.199394      -277.5396 
   9   2.0000     -10.195957      -277.4461 
  10   2.0000     -10.184734      -277.1407 
  11   2.0000     -10.177266      -276.9375 
  12   2.0000     -10.176893      -276.9273 
  13   2.0000     -10.175810      -276.8979 
  14   2.0000     -10.175789      -276.8973 
  15   2.0000     -10.175741      -276.8960 
  16   2.0000     -10.173594      -276.8376 
  17   2.0000     -10.173513      -276.8354 
  18   2.0000      -1.033107       -28.1123 
  19   2.0000      -1.025942       -27.9173 
  20   2.0000      -0.935738       -25.4627 
  21   2.0000      -0.928722       -25.2718 
  22   2.0000      -0.849302       -23.1107 
  23   2.0000      -0.783810       -21.3285 
  24   2.0000      -0.759330       -20.6624 
  25   2.0000      -0.736064       -20.0293 
  26   2.0000      -0.725416       -19.7396 
  27   2.0000      -0.714975       -19.4555 
  28   2.0000      -0.705264       -19.1912 
  29   2.0000      -0.670533       -18.2461 
  30   2.0000      -0.643616       -17.5137 
  31   2.0000      -0.597299       -16.2533 
  32   2.0000      -0.573426       -15.6037 
  33   2.0000      -0.551757       -15.0141 
  34   2.0000      -0.538487       -14.6530 
  35   2.0000      -0.513809       -13.9814 
  36   2.0000      -0.502579       -13.6759 
  37   2.0000      -0.485085       -13.1998 
  38   2.0000      -0.479840       -13.0571 
  39   2.0000      -0.465385       -12.6638 
  40   2.0000      -0.458722       -12.4825 
  41   2.0000      -0.453744       -12.3470 
  42   2.0000      -0.451678       -12.2908 
  43   2.0000      -0.440941       -11.9986 
  44   2.0000      -0.415991       -11.3197 
  45   2.0000      -0.415389       -11.3033 
  46   2.0000      -0.408798       -11.1240 
  47   2.0000      -0.405098       -11.0233 
  48   2.0000      -0.402790       -10.9605 
  49   2.0000      -0.395625       -10.7655 
  50   2.0000      -0.395258       -10.7555 
  51   2.0000      -0.392189       -10.6720 
  52   2.0000      -0.390209       -10.6181 
  53   2.0000      -0.380606       -10.3568 
  54   2.0000      -0.374085       -10.1794 
  55   2.0000      -0.364284        -9.9127 
  56   2.0000      -0.353584        -9.6215 
  57   2.0000      -0.348396        -9.4803 
  58   2.0000      -0.345378        -9.3982 
  59   2.0000      -0.330028        -8.9805 
  60   2.0000      -0.326046        -8.8722 
  61   2.0000      -0.260748        -7.0953 
  62   2.0000      -0.253637        -6.9018 
  63   2.0000      -0.245270        -6.6741 
  64   2.0000      -0.243690        -6.6311 
  65   2.0000      -0.238676        -6.4947 
  66   2.0000      -0.230520        -6.2728 
  67   0.0000       0.001981         0.0539 
  68   0.0000       0.004906         0.1335 
  69   0.0000       0.012752         0.3470 
  70   0.0000       0.026885         0.7316 
  71   0.0000       0.087309         2.3758 
  72   0.0000       0.098901         2.6912 
  73   0.0000       0.109879         2.9900 
  74   0.0000       0.120248         3.2721 
  75   0.0000       0.136846         3.7238 
  76   0.0000       0.142426         3.8756 
  77   0.0000       0.145519         3.9598 
  78   0.0000       0.153856         4.1866 
  79   0.0000       0.160789         4.3753 
  80   0.0000       0.163802         4.4573 
  81   0.0000       0.164111         4.4657 
  82   0.0000       0.169655         4.6165 
  83   0.0000       0.175762         4.7827 
  84   0.0000       0.177402         4.8273 
  85   0.0000       0.184372         5.0170 
  86   0.0000       0.189427         5.1546 
  87   0.0000       0.192866         5.2482 
  88   0.0000       0.201584         5.4854 
  89   0.0000       0.202788         5.5181 
  90   0.0000       0.206328         5.6145 
  91   0.0000       0.212393         5.7795 
  92   0.0000       0.224555         6.1105 
  93   0.0000       0.230425         6.2702 
  94   0.0000       0.232787         6.3345 
  95   0.0000       0.243983         6.6391 
  96   0.0000       0.247904         6.7458 
  97   0.0000       0.271219         7.3802 
  98   0.0000       0.275792         7.5047 
  99   0.0000       0.287307         7.8180 
 100   0.0000       0.314592         8.5605 
 101   0.0000       0.324592         8.8326 
 102   0.0000       0.337621         9.1871 
 103   0.0000       0.346424         9.4267 
 104   0.0000       0.357007         9.7147 
 105   0.0000       0.363963         9.9039 
 106   0.0000       0.384822        10.4715 
 107   0.0000       0.420936        11.4542 
 108   0.0000       0.464730        12.6460 
 109   0.0000       0.476976        12.9792 
 110   0.0000       0.502548        13.6750 
 111   0.0000       0.512752        13.9527 
 112   0.0000       0.516699        14.0601 
 113   0.0000       0.522163        14.2088 
 114   0.0000       0.525349        14.2955 
 115   0.0000       0.535191        14.5633 
 116   0.0000       0.551346        15.0029 
 117   0.0000       0.555293        15.1103 
 118   0.0000       0.559418        15.2225 
 119   0.0000       0.574658        15.6372 
 120   0.0000       0.583247        15.8710 
 121   0.0000       0.589306        16.0358 
 122   0.0000       0.600047        16.3281 
 123   0.0000       0.604628        16.4528 
 124   0.0000       0.606648        16.5077 
 125   0.0000       0.610479        16.6120 
 126   0.0000       0.615573        16.7506 
 127   0.0000       0.624747        17.0002 
 128   0.0000       0.627475        17.0745 
 129   0.0000       0.632469        17.2103 
 130   0.0000       0.645020        17.5519 
 131   0.0000       0.653017        17.7695 
 132   0.0000       0.663559        18.0564 
 133   0.0000       0.668099        18.1799 
 134   0.0000       0.670504        18.2453 
 135   0.0000       0.674319        18.3492 
 136   0.0000       0.700331        19.0570 
 137   0.0000       0.723329        19.6828 
 138   0.0000       0.726908        19.7802 
 139   0.0000       0.729741        19.8573 
 140   0.0000       0.747916        20.3518 
 141   0.0000       0.768533        20.9129 
 142   0.0000       0.772899        21.0316 
 143   0.0000       0.785908        21.3856 
 144   0.0000       0.804034        21.8789 
 145   0.0000       0.807926        21.9848 
 146   0.0000       0.823872        22.4187 
 147   0.0000       0.834874        22.7181 
 148   0.0000       0.841595        22.9010 
 149   0.0000       0.846152        23.0250 
 150   0.0000       0.851096        23.1595 
 151   0.0000       0.852980        23.2108 
 152   0.0000       0.864482        23.5238 
 153   0.0000       0.872873        23.7521 
 154   0.0000       0.876717        23.8567 
 155   0.0000       0.881983        24.0000 
 156   0.0000       0.897131        24.4122 
 157   0.0000       0.901536        24.5320 
 158   0.0000       0.905228        24.6325 
 159   0.0000       0.914536        24.8858 
 160   0.0000       0.921402        25.0726 
 161   0.0000       0.928318        25.2608 
 162   0.0000       0.932472        25.3739 
 163   0.0000       0.943482        25.6734 
 164   0.0000       0.961204        26.1557 
 165   0.0000       0.963469        26.2173 
 166   0.0000       0.970755        26.4156 
 167   0.0000       0.982073        26.7236 
 168   0.0000       0.990914        26.9641 
 169   0.0000       0.999594        27.2003 
 170   0.0000       1.007084        27.4041 
 171   0.0000       1.017252        27.6808 
 172   0.0000       1.019287        27.7362 
 173   0.0000       1.033062        28.1110 
 174   0.0000       1.053673        28.6719 
 175   0.0000       1.068194        29.0670 
 176   0.0000       1.098167        29.8826 
 177   0.0000       1.116566        30.3833 
 178   0.0000       1.122201        30.5367 
 179   0.0000       1.137931        30.9647 
 180   0.0000       1.152193        31.3528 
 181   0.0000       1.182950        32.1897 
 182   0.0000       1.186902        32.2972 
 183   0.0000       1.195260        32.5247 
 184   0.0000       1.234217        33.5848 
 185   0.0000       1.247864        33.9561 
 186   0.0000       1.267758        34.4974 
 187   0.0000       1.270117        34.5617 
 188   0.0000       1.303181        35.4613 
 189   0.0000       1.327981        36.1362 
 190   0.0000       1.350183        36.7403 
 191   0.0000       1.364806        37.1382 
 192   0.0000       1.384844        37.6835 
 193   0.0000       1.396634        38.0043 
 194   0.0000       1.410372        38.3782 
 195   0.0000       1.429622        38.9020 
 196   0.0000       1.433755        39.0144 
 197   0.0000       1.436485        39.0888 
 198   0.0000       1.443204        39.2716 
 199   0.0000       1.456816        39.6420 
 200   0.0000       1.472885        40.0792 
 201   0.0000       1.487572        40.4789 
 202   0.0000       1.498712        40.7820 
 203   0.0000       1.501723        40.8640 
 204   0.0000       1.510599        41.1055 
 205   0.0000       1.520268        41.3686 
 206   0.0000       1.539063        41.8800 
 207   0.0000       1.611325        43.8464 
 208   0.0000       1.633914        44.4611 
 209   0.0000       1.665769        45.3279 
 210   0.0000       1.710753        46.5519 
 211   0.0000       1.731893        47.1272 
 212   0.0000       1.751408        47.6582 
 213   0.0000       1.770276        48.1717 
 214   0.0000       1.778376        48.3921 
 215   0.0000       1.806648        49.1614 
 216   0.0000       1.824434        49.6454 
 217   0.0000       1.826290        49.6959 
 218   0.0000       1.829092        49.7721 
 219   0.0000       1.839466        50.0544 
 220   0.0000       1.851890        50.3925 
 221   0.0000       1.863746        50.7151 
 222   0.0000       1.886236        51.3271 
 223   0.0000       1.896974        51.6193 
 224   0.0000       1.910135        51.9774 
 225   0.0000       1.920744        52.2661 
 226   0.0000       1.938089        52.7381 
 227   0.0000       1.944723        52.9186 
 228   0.0000       1.949657        53.0529 
 229   0.0000       1.965803        53.4922 
 230   0.0000       1.980037        53.8795 
 231   0.0000       1.984106        53.9903 
 232   0.0000       1.988164        54.1007 
 233   0.0000       1.999277        54.4031 
 234   0.0000       2.026375        55.1405 
 235   0.0000       2.046603        55.6909 
 236   0.0000       2.055260        55.9265 
 237   0.0000       2.066582        56.2346 
 238   0.0000       2.069763        56.3211 
 239   0.0000       2.084003        56.7086 
 240   0.0000       2.088335        56.8265 
 241   0.0000       2.091065        56.9008 
 242   0.0000       2.107906        57.3590 
 243   0.0000       2.130109        57.9632 
 244   0.0000       2.149070        58.4792 
 245   0.0000       2.155862        58.6640 
 246   0.0000       2.163542        58.8730 
 247   0.0000       2.198929        59.8359 
 248   0.0000       2.206435        60.0401 
 249   0.0000       2.221168        60.4411 
 250   0.0000       2.232784        60.7571 
 251   0.0000       2.259283        61.4782 
 252   0.0000       2.271754        61.8176 
 253   0.0000       2.280103        62.0448 
 254   0.0000       2.289910        62.3116 
 255   0.0000       2.304157        62.6993 
 256   0.0000       2.314805        62.9890 
 257   0.0000       2.332260        63.4640 
 258   0.0000       2.353913        64.0532 
 259   0.0000       2.365892        64.3792 
 260   0.0000       2.391751        65.0829 
 261   0.0000       2.401476        65.3475 
 262   0.0000       2.423790        65.9547 
 263   0.0000       2.433031        66.2061 
 264   0.0000       2.447279        66.5938 
 265   0.0000       2.497506        67.9606 
 266   0.0000       2.530288        68.8526 
 267   0.0000       2.556544        69.5671 
 268   0.0000       2.569403        69.9170 
 269   0.0000       2.587223        70.4019 
 270   0.0000       2.592912        70.5567 
 271   0.0000       2.621996        71.3481 
 272   0.0000       2.640111        71.8411 
 273   0.0000       2.665536        72.5329 
 274   0.0000       2.668000        72.6000 
 275   0.0000       2.675147        72.7945 
 276   0.0000       2.707474        73.6741 
 277   0.0000       2.729824        74.2823 
 278   0.0000       2.731186        74.3194 
 279   0.0000       2.742146        74.6176 
 280   0.0000       2.755315        74.9759 
 281   0.0000       2.777059        75.5676 
 282   0.0000       2.795193        76.0611 
 283   0.0000       2.919194        79.4353 
 284   0.0000       2.945035        80.1385 
 285   0.0000       2.964634        80.6718 
 286   0.0000       3.006222        81.8035 
 287   0.0000       3.016799        82.0913 
 288   0.0000       3.064676        83.3941 
 289   0.0000       3.164575        86.1125 
 290   0.0000       3.184338        86.6502 
 291   0.0000       3.418976        93.0351 

                    ********************************
                    * MULLIKEN POPULATION ANALYSIS *
                    ********************************

-----------------------
MULLIKEN ATOMIC CHARGES
-----------------------
   0 C :   -0.561208
   1 H :    0.191989
   2 H :    0.197397
   3 H :    0.182604
   4 C :    0.529122
   5 O :   -0.530938
   6 N :   -0.369906
   7 C :   -0.246938
   8 H :    0.182111
   9 H :    0.205384
  10 C :   -0.168128
  11 H :    0.179579
  12 H :    0.180202
  13 C :   -0.368681
  14 H :    0.176580
  15 H :    0.163247
  16 C :    0.145026
  17 C :   -0.196520
  18 C :   -0.195974
  19 C :   -0.151452
  20 H :    0.152752
  21 C :   -0.149373
  22 H :    0.142632
  23 C :   -0.148123
  24 H :    0.146939
  25 H :    0.146541
  26 H :    0.145860
  27 C :    0.519815
  28 N :   -0.358626
  29 O :   -0.533593
  30 C :   -0.347816
  31 H :    0.170268
  32 H :    0.172137
  33 H :    0.198680
  34 C :   -0.330429
  35 H :    0.170441
  36 H :    0.187003
  37 H :    0.171397
Sum of atomic charges:    0.0000000

--------------------------------
MULLIKEN REDUCED ORBITAL CHARGES
--------------------------------
  0 C s       :     3.323015  s :     3.323015
      pz      :     1.086557  p :     3.206261
      px      :     1.096517
      py      :     1.023187
      dz2     :     0.002766  d :     0.031933
      dxz     :     0.009863
      dyz     :     0.007202
      dx2y2   :     0.003638
      dxy     :     0.008465
  1 H s       :     0.808011  s :     0.808011
  2 H s       :     0.802603  s :     0.802603
  3 H s       :     0.817396  s :     0.817396
  4 C s       :     2.983361  s :     2.983361
      pz      :     0.796970  p :     2.379530
      px      :     0.769584
      py      :     0.812976
      dz2     :     0.008816  d :     0.107987
      dxz     :     0.026675
      dyz     :     0.007906
      dx2y2   :     0.024230
      dxy     :     0.040360
  5 O s       :     3.864188  s :     3.864188
      pz      :     1.545112  p :     4.641716
      px      :     1.354813
      py      :     1.741791
      dz2     :     0.002391  d :     0.025034
      dxz     :     0.008417
      dyz     :     0.000241
      dx2y2   :     0.007537
      dxy     :     0.006448
  6 N s       :     3.533087  s :     3.533087
      pz      :     1.500803  p :     3.800241
      px      :     1.095901
      py      :     1.203537
      dz2     :     0.004618  d :     0.036578
      dxz     :     0.006529
      dyz     :     0.005034
      dx2y2   :     0.010067
      dxy     :     0.010329
  7 C s       :     3.249693  s :     3.249693
      pz      :     1.030696  p :     2.945342
      px      :     1.068693
[...]
    107      -0.000799   0.001120  -0.078574   0.024458  -0.000295   0.000008
    108      -0.001599   0.003887  -0.379727   0.112221  -0.002413  -0.000437
    109       0.002204  -0.005368   0.523320  -0.155423   0.003334   0.000576
    110      -0.002697   0.006590  -0.644175   0.190095  -0.004108  -0.000732
    111      -0.000604   0.001998  -0.191632   0.053427  -0.001290   0.000009
    112      -0.000424   0.001336  -0.125740   0.033740  -0.000827   0.000020
    113      -0.000319   0.001081  -0.102754   0.028374  -0.000689   0.000021


-----------
IR SPECTRUM
-----------

 Mode   freq       eps      Int      T**2         TX        TY        TZ
       cm**-1   L/(mol*cm) km/mol    a.u.
----------------------------------------------------------------------------
  6:     20.54   0.000050    0.25  0.000765  (-0.026607 -0.004112 -0.006320)
  7:     35.77   0.000110    0.56  0.000964  ( 0.015390  0.021979 -0.015608)
  8:     43.62   0.000633    3.20  0.004526  ( 0.065446 -0.007926 -0.013423)
  9:     63.24   0.001477    7.46  0.007287  ( 0.042840  0.044207 -0.059135)
 10:     79.71   0.000125    0.63  0.000489  ( 0.005037 -0.009445 -0.019361)
 11:     84.75   0.001160    5.86  0.004272  (-0.031156 -0.057431 -0.001718)
 12:     88.09   0.000146    0.74  0.000515  ( 0.014358 -0.010930 -0.013778)
 13:    115.32   0.000810    4.09  0.002191  (-0.004766 -0.022721 -0.040648)
 14:    120.84   0.001700    8.59  0.004391  (-0.009560  0.047403  0.045302)
 15:    133.16   0.001342    6.78  0.003146  ( 0.018730  0.051256  0.012961)
 16:    161.13   0.000363    1.83  0.000703  ( 0.004482  0.023632 -0.011158)
 17:    169.41   0.000048    0.24  0.000089  (-0.005174  0.001061 -0.007824)
 18:    217.83   0.000073    0.37  0.000105  (-0.007041  0.001536  0.007270)
 19:    238.30   0.000743    3.76  0.000973  ( 0.020716  0.021960 -0.007868)
 20:    272.70   0.002476   12.51  0.002833  ( 0.039201  0.035634 -0.005184)
 21:    290.95   0.000284    1.44  0.000305  ( 0.009302 -0.002526  0.014555)
 22:    332.55   0.000596    3.01  0.000559  (-0.000223 -0.021362  0.010132)
 23:    354.12   0.002162   10.93  0.001905  ( 0.020267  0.011647  0.036862)
 24:    367.96   0.001840    9.30  0.001560  (-0.009959  0.031661  0.021414)
 25:    388.89   0.002401   12.13  0.001927  ( 0.010329 -0.020163 -0.037598)
 26:    418.39   0.000024    0.12  0.000018  ( 0.004026 -0.000241 -0.001348)
 27:    434.59   0.000210    1.06  0.000151  ( 0.004006  0.011054  0.003507)
 28:    463.12   0.002835   14.33  0.001910  (-0.040916  0.014912  0.003698)
 29:    494.85   0.004168   21.06  0.002628  (-0.028281 -0.038879  0.017801)
 30:    516.25   0.003486   17.62  0.002107  (-0.013793  0.011201  0.042328)
 31:    563.07   0.003050   15.41  0.001690  ( 0.028251 -0.029108  0.006686)
 32:    585.62   0.002430   12.28  0.001295  ( 0.002004  0.024100  0.026644)
 33:    600.45   0.003465   17.51  0.001801  (-0.014608  0.027423  0.028901)
 34:    634.32   0.000070    0.35  0.000034  (-0.004342 -0.002508 -0.003058)
 35:    642.31   0.002525   12.76  0.001227  (-0.011634  0.009981 -0.031492)
 36:    701.48   0.000959    4.84  0.000426  ( 0.018485  0.002576  0.008836)
 37:    718.71   0.007310   36.94  0.003174  ( 0.002507 -0.028631 -0.048457)
 38:    760.10   0.006709   33.90  0.002754  ( 0.000694  0.030950  0.042379)
 39:    770.59   0.001610    8.14  0.000652  (-0.013630 -0.007927  0.020088)
 40:    781.91   0.001656    8.37  0.000661  (-0.000593  0.025148  0.005304)
 41:    814.43   0.002572   13.00  0.000986  ( 0.021583  0.005743  0.022064)
 42:    860.32   0.002404   12.15  0.000872  (-0.017336 -0.008945 -0.022165)
 43:    869.35   0.000076    0.38  0.000027  ( 0.004306  0.002801  0.000888)
 44:    931.95   0.000325    1.64  0.000109  ( 0.000013 -0.005280 -0.008990)
 45:    962.66   0.000781    3.95  0.000253  ( 0.011159  0.003766  0.010706)
 46:    979.86   0.000005    0.03  0.000002  ( 0.001235 -0.000156 -0.000447)
 47:   1002.77   0.003701   18.71  0.001152  (-0.017145 -0.009469 -0.027718)
 48:   1003.38   0.000681    3.44  0.000212  (-0.010724 -0.001146 -0.009777)
 49:   1010.36   0.005902   29.83  0.001823  ( 0.025985 -0.023619 -0.024287)
 50:   1015.56   0.000087    0.44  0.000027  (-0.003218  0.003795 -0.001387)
 51:   1028.55   0.008450   42.70  0.002564  (-0.022567  0.040751 -0.019843)
 52:   1034.37   0.005005   25.30  0.001510  (-0.020871  0.015759  0.028743)
 53:   1056.17   0.001575    7.96  0.000465  ( 0.021303 -0.001332  0.003107)
 54:   1061.76   0.001998   10.10  0.000587  ( 0.001145  0.010998  0.021562)
 55:   1087.28   0.003296   16.66  0.000946  ( 0.021162 -0.013175  0.018013)
 56:   1091.43   0.001461    7.38  0.000418  ( 0.004896 -0.015129 -0.012836)
 57:   1121.65   0.002641   13.35  0.000735  ( 0.011886 -0.005265  0.023789)
 58:   1135.91   0.000580    2.93  0.000159  (-0.001419  0.012465 -0.001356)
 59:   1170.33   0.013575   68.60  0.003620  ( 0.039329  0.020797  0.040501)
 60:   1183.42   0.000066    0.34  0.000017  ( 0.002609 -0.000947  0.003129)
 61:   1185.37   0.000881    4.45  0.000232  (-0.008391 -0.004072 -0.012043)
 62:   1206.22   0.000022    0.11  0.000006  ( 0.000230 -0.000066 -0.002378)
 63:   1218.86   0.009857   49.81  0.002524  (-0.001021  0.019067 -0.046466)
 64:   1236.10   0.002193   11.08  0.000554  ( 0.015870 -0.017071  0.003206)
 65:   1251.27   0.013574   68.60  0.003385  ( 0.034998 -0.045332  0.010266)
 66:   1286.16   0.007517   37.99  0.001824  ( 0.011778 -0.011649 -0.039362)
 67:   1291.14   0.030960  156.46  0.007483  ( 0.012629 -0.083690  0.017872)
 68:   1332.69   0.000053    0.27  0.000012  (-0.001698 -0.001742  0.002564)
 69:   1336.68   0.003205   16.20  0.000748  ( 0.018115 -0.020376  0.002200)
 70:   1361.80   0.000284    1.44  0.000065  (-0.000374 -0.007402  0.003188)
 71:   1371.06   0.000673    3.40  0.000153  (-0.007387  0.005956 -0.007941)
 72:   1374.04   0.000346    1.75  0.000079  (-0.003289 -0.008099 -0.001471)
 73:   1407.19   0.011979   60.54  0.002656  (-0.049839  0.009573  0.008995)
 74:   1414.47   0.006032   30.48  0.001331  ( 0.020456 -0.027860  0.011670)
 75:   1442.97   0.014613   73.85  0.003160  (-0.015940 -0.022191 -0.049129)
 76:   1458.18   0.016962   85.72  0.003630  ( 0.005139  0.048064  0.035965)
 77:   1474.86   0.045212  228.48  0.009566  (-0.058373  0.073771 -0.026774)
 78:   1483.99   0.003835   19.38  0.000807  (-0.027808 -0.005750  0.000401)
 79:   1490.63   0.000752    3.80  0.000157  ( 0.007648 -0.002803 -0.009540)
 80:   1498.56   0.002886   14.59  0.000601  ( 0.001434 -0.018383  0.016158)
 81:   1502.66   0.001162    5.87  0.000241  ( 0.008402  0.002730  0.012780)
 82:   1505.94   0.003642   18.40  0.000755  ( 0.005816  0.020655 -0.017152)
 83:   1511.47   0.002775   14.02  0.000573  (-0.007057  0.022867 -0.000409)
 84:   1513.55   0.001964    9.93  0.000405  ( 0.003359 -0.019725 -0.002154)
 85:   1519.87   0.003477   17.57  0.000714  (-0.023070 -0.013151  0.002965)
 86:   1530.58   0.005944   30.04  0.001212  ( 0.029556 -0.005938  0.017411)
 87:   1533.53   0.006721   33.97  0.001368  (-0.013141 -0.018254  0.029357)
 88:   1543.69   0.004793   24.22  0.000969  (-0.030380  0.003601 -0.005751)
 89:   1556.42   0.016425   83.00  0.003293  (-0.003461  0.035523  0.044937)
 90:   1640.54   0.000245    1.24  0.000047  (-0.000771  0.005426 -0.004079)
 91:   1661.82   0.002662   13.45  0.000500  (-0.022028  0.002832 -0.002583)
 92:   1706.42   0.196422  992.64  0.035921  (-0.153245  0.050354 -0.099505)
 93:   1710.94   0.035685  180.34  0.006509  (-0.056932 -0.004236  0.057004)
 94:   3034.01   0.005070   25.62  0.000521  (-0.014090  0.015847 -0.008476)
 95:   3038.63   0.018218   92.07  0.001871  ( 0.004750 -0.006427 -0.042510)
 96:   3064.60   0.000824    4.16  0.000084  ( 0.007812  0.004064  0.002521)
 97:   3071.32   0.004015   20.29  0.000408  ( 0.009865 -0.008235  0.015581)
 98:   3084.63   0.003218   16.26  0.000326  (-0.008264 -0.009964  0.012568)
 99:   3087.77   0.012583   63.59  0.001272  (-0.017704 -0.001038 -0.030938)
100:   3095.56   0.011135   56.27  0.001123  ( 0.027732  0.018646  0.002409)
101:   3104.24   0.006192   31.29  0.000622  (-0.019620 -0.015212 -0.002475)
102:   3116.81   0.001321    6.67  0.000132  ( 0.005356  0.010171  0.000287)
103:   3132.54   0.001992   10.07  0.000198  (-0.001706  0.003954  0.013413)
104:   3139.24   0.007761   39.22  0.000772  ( 0.002986  0.026882 -0.006319)
105:   3168.05   0.001510    7.63  0.000149  ( 0.001556  0.011241  0.004469)
106:   3172.07   0.002789   14.09  0.000274  ( 0.013905 -0.008337  0.003386)
107:   3178.25   0.002076   10.49  0.000204  ( 0.011502 -0.006643  0.005235)
108:   3180.93   0.000471    2.38  0.000046  ( 0.002387  0.005839 -0.002532)
109:   3190.49   0.002219   11.21  0.000217  (-0.013201  0.004483 -0.004759)
110:   3193.77   0.001030    5.20  0.000101  ( 0.002128 -0.009152  0.003509)
111:   3196.09   0.000491    2.48  0.000048  (-0.005699 -0.003907 -0.000489)
112:   3198.41   0.010538   53.26  0.001028  (-0.005543 -0.027971  0.014667)
113:   3209.66   0.005654   28.57  0.000550  ( 0.023149 -0.002547  0.002711)

* The epsilon (eps) is given for a Dirac delta lineshape.
** The dipole moment derivative (T) already includes vibrational overlap.

The first frequency considered to be a vibration is 6
The total number of vibrations considered is 108


--------------------------
THERMOCHEMISTRY AT 298.15K
--------------------------

Temperature         ... 298.15 K
Pressure            ... 1.00 atm
Total Mass          ... 248.33 AMU

Throughout the following assumptions are being made:
  (1) The electronic state is orbitally nondegenerate
  (2) There are no thermally accessible electronically excited states
  (3) Hindered rotations indicated by low frequency modes are not
      treated as such but are treated as vibrations and this may
      cause some error
  (4) All equations used are the standard statistical mechanics
      equations for an ideal gas
  (5) All vibrations are strictly harmonic

freq.      20.54  E(vib)   ...       0.56 
freq.      35.77  E(vib)   ...       0.54 
freq.      43.62  E(vib)   ...       0.53 
freq.      63.24  E(vib)   ...       0.51 
freq.      79.71  E(vib)   ...       0.49 
freq.      84.75  E(vib)   ...       0.48 
freq.      88.09  E(vib)   ...       0.48 
freq.     115.32  E(vib)   ...       0.44 
freq.     120.84  E(vib)   ...       0.44 
freq.     133.16  E(vib)   ...       0.42 
freq.     161.13  E(vib)   ...       0.39 
freq.     169.41  E(vib)   ...       0.38 
freq.     217.83  E(vib)   ...       0.33 
freq.     238.30  E(vib)   ...       0.32 
freq.     272.70  E(vib)   ...       0.29 
freq.     290.95  E(vib)   ...       0.27 
freq.     332.55  E(vib)   ...       0.24 
freq.     354.12  E(vib)   ...       0.22 
freq.     367.96  E(vib)   ...       0.21 
freq.     388.89  E(vib)   ...       0.20 
freq.     418.39  E(vib)   ...       0.18 
freq.     434.59  E(vib)   ...       0.17 
freq.     463.12  E(vib)   ...       0.16 
freq.     494.85  E(vib)   ...       0.14 
freq.     516.25  E(vib)   ...       0.13 
freq.     563.07  E(vib)   ...       0.11 
freq.     585.62  E(vib)   ...       0.11 
freq.     600.45  E(vib)   ...       0.10 
freq.     634.32  E(vib)   ...       0.09 
freq.     642.31  E(vib)   ...       0.09 
freq.     701.48  E(vib)   ...       0.07 
freq.     718.71  E(vib)   ...       0.07 
freq.     760.10  E(vib)   ...       0.06 
freq.     770.59  E(vib)   ...       0.05 
freq.     781.91  E(vib)   ...       0.05 
freq.     814.43  E(vib)   ...       0.05 
freq.     860.32  E(vib)   ...       0.04 
freq.     869.35  E(vib)   ...       0.04 
freq.     931.95  E(vib)   ...       0.03 
freq.     962.66  E(vib)   ...       0.03 
freq.     979.86  E(vib)   ...       0.02 
freq.    1002.77  E(vib)   ...       0.02 
freq.    1003.38  E(vib)   ...       0.02 
freq.    1010.36  E(vib)   ...       0.02 
freq.    1015.56  E(vib)   ...       0.02 
freq.    1028.55  E(vib)   ...       0.02 
freq.    1034.37  E(vib)   ...       0.02 
freq.    1056.17  E(vib)   ...       0.02 
freq.    1061.76  E(vib)   ...       0.02 
freq.    1087.28  E(vib)   ...       0.02 
freq.    1091.43  E(vib)   ...       0.02 
freq.    1121.65  E(vib)   ...       0.01 
freq.    1135.91  E(vib)   ...       0.01 
freq.    1170.33  E(vib)   ...       0.01 
freq.    1183.42  E(vib)   ...       0.01 
freq.    1185.37  E(vib)   ...       0.01 
freq.    1206.22  E(vib)   ...       0.01 
freq.    1218.86  E(vib)   ...       0.01 
freq.    1236.10  E(vib)   ...       0.01 
freq.    1251.27  E(vib)   ...       0.01 
freq.    1286.16  E(vib)   ...       0.01 
freq.    1291.14  E(vib)   ...       0.01 
freq.    1332.69  E(vib)   ...       0.01 
freq.    1336.68  E(vib)   ...       0.01 
freq.    1361.80  E(vib)   ...       0.01 
freq.    1371.06  E(vib)   ...       0.01 
freq.    1374.04  E(vib)   ...       0.01 
freq.    1407.19  E(vib)   ...       0.00 
freq.    1414.47  E(vib)   ...       0.00 
freq.    1442.97  E(vib)   ...       0.00 
freq.    1458.18  E(vib)   ...       0.00 
freq.    1474.86  E(vib)   ...       0.00 
freq.    1483.99  E(vib)   ...       0.00 
freq.    1490.63  E(vib)   ...       0.00 
freq.    1498.56  E(vib)   ...       0.00 
freq.    1502.66  E(vib)   ...       0.00 
freq.    1505.94  E(vib)   ...       0.00 
freq.    1511.47  E(vib)   ...       0.00 
freq.    1513.55  E(vib)   ...       0.00 
freq.    1519.87  E(vib)   ...       0.00 
freq.    1530.58  E(vib)   ...       0.00 
freq.    1533.53  E(vib)   ...       0.00 
freq.    1543.69  E(vib)   ...       0.00 
freq.    1556.42  E(vib)   ...       0.00 
freq.    1640.54  E(vib)   ...       0.00 
freq.    1661.82  E(vib)   ...       0.00 
freq.    1706.42  E(vib)   ...       0.00 
freq.    1710.94  E(vib)   ...       0.00 
freq.    3034.01  E(vib)   ...       0.00 
freq.    3038.63  E(vib)   ...       0.00 
freq.    3064.60  E(vib)   ...       0.00 
freq.    3071.32  E(vib)   ...       0.00 
freq.    3084.63  E(vib)   ...       0.00 
freq.    3087.77  E(vib)   ...       0.00 
freq.    3095.56  E(vib)   ...       0.00 
freq.    3104.24  E(vib)   ...       0.00 
freq.    3116.81  E(vib)   ...       0.00 
freq.    3132.54  E(vib)   ...       0.00 
freq.    3139.24  E(vib)   ...       0.00 
freq.    3168.05  E(vib)   ...       0.00 
freq.    3172.07  E(vib)   ...       0.00 
freq.    3178.25  E(vib)   ...       0.00 
freq.    3180.93  E(vib)   ...       0.00 
freq.    3190.49  E(vib)   ...       0.00 
freq.    3193.77  E(vib)   ...       0.00 
freq.    3196.09  E(vib)   ...       0.00 
freq.    3198.41  E(vib)   ...       0.00 
freq.    3209.66  E(vib)   ...       0.00 

------------
INNER ENERGY
------------

The inner energy is: U= E(el) + E(ZPE) + E(vib) + E(rot) + E(trans)
    E(el)   - is the total energy from the electronic structure calculation
              = E(kin-el) + E(nuc-el) + E(el-el) + E(nuc-nuc)
    E(ZPE)  - the the zero temperature vibrational energy from the frequency calculation
    E(vib)  - the the finite temperature correction to E(ZPE) due to population
              of excited vibrational states
    E(rot)  - is the rotational thermal energy
    E(trans)- is the translational thermal energy

Summary of contributions to the inner energy U:
Electronic energy                ...   -805.08892670 Eh
Zero point energy                ...      0.32646807 Eh     204.86 kcal/mol
Thermal vibrational correction   ...      0.01584912 Eh       9.95 kcal/mol
Thermal rotational correction    ...      0.00141627 Eh       0.89 kcal/mol
Thermal translational correction ...      0.00141627 Eh       0.89 kcal/mol
-----------------------------------------------------------------------
Total thermal energy                   -804.74377696 Eh


Summary of corrections to the electronic energy:
(perhaps to be used in another calculation)
Total thermal correction                  0.01868166 Eh      11.72 kcal/mol
Non-thermal (ZPE) correction              0.32646807 Eh     204.86 kcal/mol
-----------------------------------------------------------------------
Total correction                          0.34514974 Eh     216.58 kcal/mol


--------
ENTHALPY
--------

The enthalpy is H = U + kB*T
                kB is Boltzmann's constant
Total free energy                 ...   -804.74377696 Eh 
Thermal Enthalpy correction       ...      0.00094421 Eh       0.59 kcal/mol
-----------------------------------------------------------------------
Total Enthalpy                    ...   -804.74283275 Eh


Note: Only C1 symmetry has been detected, increase convergence thresholds 
      if your molecule has a higher symmetry. Symmetry factor of 1.0 is   
      used for the rotational entropy correction. 
 

Note: Rotational entropy computed according to Herzberg 
Infrared and Raman Spectra, Chapter V,1, Van Nostrand Reinhold, 1945 
Point Group:  C1, Symmetry Number:   1  
Rotational constants in cm-1:     0.019638     0.008918     0.007003 

Vibrational entropy computed according to the QRRHO of S. Grimme
Chem.Eur.J. 2012 18 9955


-------
ENTROPY
-------

The entropy contributions are T*S = T*(S(el)+S(vib)+S(rot)+S(trans))
     S(el)   - electronic entropy
     S(vib)  - vibrational entropy
     S(rot)  - rotational entropy
     S(trans)- translational entropy
The entropies will be listed as multiplied by the temperature to get
units of energy

Electronic entropy                ...      0.00000000 Eh      0.00 kcal/mol
Vibrational entropy               ...      0.02860331 Eh     17.95 kcal/mol
Rotational entropy                ...      0.01593659 Eh     10.00 kcal/mol
Translational entropy             ...      0.02015944 Eh     12.65 kcal/mol
-----------------------------------------------------------------------
Final entropy term                ...      0.06469935 Eh     40.60 kcal/mol

In case the symmetry of your molecule has not been determined correctly
or in case you have a reason to use a different symmetry number we print 
out the resulting rotational entropy values for sn=1,12 :
 --------------------------------------------------------
|  sn= 1 | S(rot)=       0.01593659 Eh     10.00 kcal/mol|
|  sn= 2 | S(rot)=       0.01528213 Eh      9.59 kcal/mol|
|  sn= 3 | S(rot)=       0.01489930 Eh      9.35 kcal/mol|
|  sn= 4 | S(rot)=       0.01462768 Eh      9.18 kcal/mol|
|  sn= 5 | S(rot)=       0.01441699 Eh      9.05 kcal/mol|
|  sn= 6 | S(rot)=       0.01424485 Eh      8.94 kcal/mol|
|  sn= 7 | S(rot)=       0.01409930 Eh      8.85 kcal/mol|
|  sn= 8 | S(rot)=       0.01397322 Eh      8.77 kcal/mol|
|  sn= 9 | S(rot)=       0.01386201 Eh      8.70 kcal/mol|
|  sn=10 | S(rot)=       0.01376253 Eh      8.64 kcal/mol|
|  sn=11 | S(rot)=       0.01367254 Eh      8.58 kcal/mol|
|  sn=12 | S(rot)=       0.01359039 Eh      8.53 kcal/mol|
 --------------------------------------------------------


-------------------
GIBBS FREE ENERGY
-------------------

The Gibbs free energy is G = H - T*S

Total enthalpy                    ...   -804.74283275 Eh 
Total entropy correction          ...     -0.06469935 Eh    -40.60 kcal/mol
-----------------------------------------------------------------------
Final Gibbs free energy         ...   -804.80753210 Eh

For completeness - the Gibbs free energy minus the electronic energy
G-E(el)                           ...      0.28139460 Eh    176.58 kcal/mol


Timings for individual modules:

Sum of individual times         ...     2016.897 sec (=  33.615 min)
GTO integral calculation        ...       15.562 sec (=   0.259 min)   0.8 %
SCF iterations                  ...      760.051 sec (=  12.668 min)  37.7 %
SCF Gradient evaluation         ...      209.083 sec (=   3.485 min)  10.4 %
Geometry relaxation             ...        1.028 sec (=   0.017 min)   0.1 %
Analytical frequency calculation...     1031.172 sec (=  17.186 min)  51.1 %
                             ****ORCA TERMINATED NORMALLY****
TOTAL RUN TIME: 0 days 0 hours 33 minutes 40 seconds 805 msec
