
                                 *****************
                                 * O   R   C   A *
                                 *****************

                                            #,                                       
                                            ###                                      
                                            ####                                     
                                            #####                                    
                                            ######                                   
                                           ########,                                 
                                     ,,################,,,,,                         
                               ,,#################################,,                 
                          ,,##########################################,,             
                       ,#########################################, ''#####,          
                    ,#############################################,,   '####,        
                  ,##################################################,,,,####,       
                ,###########''''           ''''###############################       
              ,#####''   ,,,,##########,,,,          '''####'''          '####       
            ,##' ,,,,###########################,,,                        '##       
           ' ,,###''''                  '''############,,,                           
         ,,##''                                '''############,,,,        ,,,,,,###''
      ,#''                                            '''#######################'''  
     '                                                          ''''####''''         
             ,#######,   #######,   ,#######,      ##                                
            ,#'     '#,  ##    ##  ,#'     '#,    #''#        ######   ,####,        
            ##       ##  ##   ,#'  ##            #'  '#       #        #'  '#        
            ##       ##  #######   ##           ,######,      #####,   #    #        
            '#,     ,#'  ##    ##  '#,     ,#' ,#      #,         ##   #,  ,#        
             '#######'   ##     ##  '#######'  #'      '#     #####' # '####'        



                  #######################################################
                  #                        -***-                        #
                  #          Department of theory and spectroscopy      #
                  #    Directorship and core code : Frank Neese         #
                  #        Max Planck Institute fuer Kohlenforschung    #
                  #                Kaiser Wilhelm Platz 1               #
                  #                 D-45470 Muelheim/Ruhr               #
                  #                      Germany                        #
                  #                                                     #
                  #                  All rights reserved                #
                  #                        -***-                        #
                  #######################################################


                         Program Version 5.0.4 -  RELEASE  -


 With contributions from (in alphabetic order):
   Daniel Aravena         : Magnetic Suceptibility
   Michael Atanasov       : Ab Initio Ligand Field Theory (pilot matlab implementation)
   Alexander A. Auer      : GIAO ZORA, VPT2 properties, NMR spectrum
   Ute Becker             : Parallelization
   Giovanni Bistoni       : ED, misc. LED, open-shell LED, HFLD
   Martin Brehm           : Molecular dynamics
   Dmytro Bykov           : SCF Hessian
   Vijay G. Chilkuri      : MRCI spin determinant printing, contributions to CSF-ICE
   Dipayan Datta          : RHF DLPNO-CCSD density
   Achintya Kumar Dutta   : EOM-CC, STEOM-CC
   Dmitry Ganyushin       : Spin-Orbit,Spin-Spin,Magnetic field MRCI
   Miquel Garcia          : C-PCM and meta-GGA Hessian, CC/C-PCM, Gaussian charge scheme
   Yang Guo               : DLPNO-NEVPT2, F12-NEVPT2, CIM, IAO-localization
   Andreas Hansen         : Spin unrestricted coupled pair/coupled cluster methods
   Benjamin Helmich-Paris : MC-RPA, TRAH-SCF, COSX integrals
   Lee Huntington         : MR-EOM, pCC
   Robert Izsak           : Overlap fitted RIJCOSX, COSX-SCS-MP3, EOM
   Marcus Kettner         : VPT2
   Christian Kollmar      : KDIIS, OOCD, Brueckner-CCSD(T), CCSD density, CASPT2, CASPT2-K
   Simone Kossmann        : Meta GGA functionals, TD-DFT gradient, OOMP2, MP2 Hessian
   Martin Krupicka        : Initial AUTO-CI
   Lucas Lang             : DCDCAS
   Marvin Lechner         : AUTO-CI (C++ implementation), FIC-MRCC
   Dagmar Lenk            : GEPOL surface, SMD
   Dimitrios Liakos       : Extrapolation schemes; Compound Job, initial MDCI parallelization
   Dimitrios Manganas     : Further ROCIS development; embedding schemes
   Dimitrios Pantazis     : SARC Basis sets
   Anastasios Papadopoulos: AUTO-CI, single reference methods and gradients
   Taras Petrenko         : DFT Hessian,TD-DFT gradient, ASA, ECA, R-Raman, ABS, FL, XAS/XES, NRVS
   Peter Pinski           : DLPNO-MP2, DLPNO-MP2 Gradient
   Christoph Reimann      : Effective Core Potentials
   Marius Retegan         : Local ZFS, SOC
   Christoph Riplinger    : Optimizer, TS searches, QM/MM, DLPNO-CCSD(T), (RO)-DLPNO pert. Triples
   Tobias Risthaus        : Range-separated hybrids, TD-DFT gradient, RPA, STAB
   Michael Roemelt        : Original ROCIS implementation
   Masaaki Saitow         : Open-shell DLPNO-CCSD energy and density
   Barbara Sandhoefer     : DKH picture change effects
   Avijit Sen             : IP-ROCIS
   Kantharuban Sivalingam : CASSCF convergence, NEVPT2, FIC-MRCI
   Bernardo de Souza      : ESD, SOC TD-DFT
   Georgi Stoychev        : AutoAux, RI-MP2 NMR, DLPNO-MP2 response
   Willem Van den Heuvel  : Paramagnetic NMR
   Boris Wezisla          : Elementary symmetry handling
   Frank Wennmohs         : Technical directorship


 We gratefully acknowledge several colleagues who have allowed us to
 interface, adapt or use parts of their codes:
   Stefan Grimme, W. Hujo, H. Kruse, P. Pracht,  : VdW corrections, initial TS optimization,
                  C. Bannwarth, S. Ehlert          DFT functionals, gCP, sTDA/sTD-DF
   Ed Valeev, F. Pavosevic, A. Kumar             : LibInt (2-el integral package), F12 methods
   Garnet Chan, S. Sharma, J. Yang, R. Olivares  : DMRG
   Ulf Ekstrom                                   : XCFun DFT Library
   Mihaly Kallay                                 : mrcc  (arbitrary order and MRCC methods)
   Jiri Pittner, Ondrej Demel                    : Mk-CCSD
   Frank Weinhold                                : gennbo (NPA and NBO analysis)
   Christopher J. Cramer and Donald G. Truhlar   : smd solvation model
   Lars Goerigk                                  : TD-DFT with DH, B97 family of functionals
   V. Asgeirsson, H. Jonsson                     : NEB implementation
   FAccTs GmbH                                   : IRC, NEB, NEB-TS, DLPNO-Multilevel, CI-OPT
                                                   MM, QMMM, 2- and 3-layer-ONIOM, Crystal-QMMM,
                                                   LR-CPCM, SF, NACMEs, symmetry and pop. for TD-DFT,
                                                   nearIR, NL-DFT gradient (VV10), updates on ESD,
                                                   ML-optimized integration grids
   S Lehtola, MJT Oliveira, MAL Marques          : LibXC Library
   Liviu Ungur et al                             : ANISO software


 Your calculation uses the libint2 library for the computation of 2-el integrals
 For citations please refer to: http://libint.valeyev.net

 Your ORCA version has been built with support for libXC version: 5.1.0
 For citations please refer to: https://tddft.org/programs/libxc/

 This ORCA versions uses:
   CBLAS   interface :  Fast vector & matrix operations
   LAPACKE interface :  Fast linear algebra routines
   SCALAPACK package :  Parallel linear algebra routines
   Shared memory     :  Shared parallel matrices
   BLAS/LAPACK       :  OpenBLAS 0.3.15  USE64BITINT DYNAMIC_ARCH NO_AFFINITY SkylakeX SINGLE_THREADED
        Core in use  :  SkylakeX
   Copyright (c) 2011-2014, The OpenBLAS Project




***************************************
The coordinates will be read from file: /users/fjb15167/WWenergy/structures/NmO.xyz
***************************************


Your calculation utilizes the atom-pairwise dispersion correction
based on tight binding partial charges (D4)
Cite in your paper:
E.Caldeweyher, C.Bannwarth, S.Grimme, J.Chem.Phys., (2017), 147, 034112.
E.Caldeweyher, S.Ehlert, A.Hansen, H.Neugebauer, S.Grimme, J.Chem.Phys., (2018), in progress.
   

================================================================================

----- Orbital basis set information -----
Your calculation utilizes the basis: 6-31G(d)
   H-He, Li-Ne : W. J. Hehre, R. Ditchfield and J.A. Pople, J. Chem. Phys. 56, 2257 (1972).
                 Note: He and Ne are unpublished basis sets taken from the Gaussian program.
                 Note: Li and B from J. D. Dill and J. A. Pople, J. Chem. Phys. 62, 2921 (1975).
   Na - Ar     : M. M. Francl, W. J. Pietro, W. J. Hehre, J. S. Binkley, M. S. Gordon, 
                 D. J. DeFrees and J. A. Pople, J. Chem. Phys. 77, 3654 (1982).
   K - Zn      : V. A. Rassolov, J. A. Pople, M. A. Ratner, and T. L. Windus, J. Chem. Phys. 109, 1223 (1998).

----- AuxJ basis set information -----
Your calculation utilizes the AutoAux generation procedure.
  G. L. Stoychev, A. A. Auer, F. Neese, J. Chem. Theory Comput. 13, 554 (2017)

----- AuxC basis set information -----
Your calculation utilizes the AutoAux generation procedure.
  G. L. Stoychev, A. A. Auer, F. Neese, J. Chem. Theory Comput. 13, 554 (2017)

----- AuxJK basis set information -----
Your calculation utilizes the AutoAux generation procedure.
  G. L. Stoychev, A. A. Auer, F. Neese, J. Chem. Theory Comput. 13, 554 (2017)

================================================================================
                                        WARNINGS
                       Please study these warnings very carefully!
================================================================================


WARNING: Geometry Optimization
  ===> : Switching off AutoStart
         For restart on a previous wavefunction, please use MOREAD

INFO   : the flag for use of the SHARK integral package has been found!

================================================================================
                                       INPUT FILE
================================================================================
NAME = NmO_gas.inp
|  1> ! OPT FREQ B3LYP 6-31G(d) D4 AUTOAUX
|  2> 
|  3> %PAL NPROCS 4 END
|  4> 
|  5> %maxcore 3375
|  6> 
|  7> *xyzfile 0 1 /users/fjb15167/WWenergy/structures/NmO.xyz
|  8> 
|  9>                          ****END OF INPUT****
================================================================================

                       *****************************
                       * Geometry Optimization Run *
                       *****************************

Geometry optimization settings:
Update method            Update   .... BFGS
Choice of coordinates    CoordSys .... Z-matrix Internals
Initial Hessian          InHess   .... Almoef's Model

Convergence Tolerances:
Energy Change            TolE     ....  5.0000e-06 Eh
Max. Gradient            TolMAXG  ....  3.0000e-04 Eh/bohr
RMS Gradient             TolRMSG  ....  1.0000e-04 Eh/bohr
Max. Displacement        TolMAXD  ....  4.0000e-03 bohr
RMS Displacement         TolRMSD  ....  2.0000e-03 bohr
Strict Convergence                ....  False
------------------------------------------------------------------------------
                        ORCA OPTIMIZATION COORDINATE SETUP
------------------------------------------------------------------------------

The optimization will be done in new redundant internal coordinates
Making redundant internal coordinates   ...  (new redundants) done
Evaluating the initial hessian          ...  (Almloef) done
Evaluating the coordinates              ...  done
Calculating the B-matrix                .... done
Calculating the G-matrix                .... done
Diagonalizing the G-matrix              .... done
Small eigenvalue found = 4.527e-03
Small eigenvalue found = 5.671e-03
Small eigenvalue found = 1.360e-02
Small eigenvalue found = 1.438e-02
Small eigenvalue found = 2.256e-02
The first mode is                       ....   55
The number of degrees of freedom        ....   90

    -----------------------------------------------------------------
                    Redundant Internal Coordinates


    -----------------------------------------------------------------
         Definition                    Initial Value    Approx d2E/dq
    -----------------------------------------------------------------
      1. B(H   1,C   0)                  1.0919         0.357607   
      2. B(H   2,C   0)                  1.0941         0.354670   
      3. B(H   3,C   0)                  1.0899         0.360227   
      4. B(C   4,C   0)                  1.5155         0.394042   
      5. B(O   5,C   4)                  1.2383         0.977099   
      6. B(N   6,C   4)                  1.3752         0.590973   
      7. B(C   7,N   6)                  1.4604         0.432111   
      8. B(H   8,C   7)                  1.0951         0.353394   
      9. B(H   9,C   7)                  1.0895         0.360718   
     10. B(C  10,N   6)                  1.4610         0.431166   
     11. B(H  11,C  10)                  1.0924         0.356992   
     12. B(H  12,C  10)                  1.0942         0.354546   
     13. B(C  13,C  10)                  1.5319         0.370940   
     14. B(H  14,C  13)                  1.0976         0.350241   
     15. B(H  15,C  13)                  1.0948         0.353815   
     16. B(C  16,C   7)                  1.5249         0.380598   
     17. B(N  17,C  16)                  1.3645         0.614539   
     18. B(O  18,C  16)                  1.2410         0.967442   
     19. B(C  19,N  17)                  1.4547         0.441241   
     20. B(H  20,C  19)                  1.0972         0.350736   
     21. B(H  21,C  19)                  1.0955         0.352939   
     22. B(H  22,C  19)                  1.0872         0.363781   
     23. B(C  23,N  17)                  1.4548         0.441050   
     24. B(H  24,C  23)                  1.0976         0.350243   
     25. B(H  25,C  23)                  1.0887         0.361843   
     26. B(H  26,C  23)                  1.0942         0.354530   
     27. B(O  27,C  13)                  1.4194         0.502355   
     28. B(C  28,O  27)                  1.4279         0.486932   
     29. B(H  29,C  28)                  1.0972         0.350636   
     30. B(H  30,C  28)                  1.0902         0.359777   
     31. B(H  31,C  28)                  1.0948         0.353820   
     32. A(H   1,C   0,C   4)          112.6659         0.326803   
     33. A(H   2,C   0,H   3)          108.8706         0.290162   
     34. A(H   3,C   0,C   4)          107.1278         0.327196   
     35. A(H   1,C   0,H   3)          109.3830         0.290538   
     36. A(H   1,C   0,H   2)          108.0603         0.289830   
     37. A(H   2,C   0,C   4)          110.6738         0.326359   
     38. A(C   0,C   4,O   5)          121.0515         0.431351   
     39. A(O   5,C   4,N   6)          121.8637         0.461155   
     40. A(C   0,C   4,N   6)          117.0792         0.394525   
     41. A(C   4,N   6,C  10)          124.6054         0.398249   
     42. A(C   7,N   6,C  10)          116.2123         0.377093   
     43. A(C   4,N   6,C   7)          118.9133         0.398402   
     44. A(H   8,C   7,H   9)          109.0590         0.290060   
     45. A(N   6,C   7,H   9)          107.9430         0.330293   
     46. A(H   9,C   7,C  16)          113.7043         0.325405   
     47. A(H   8,C   7,C  16)          105.4407         0.324310   
     48. A(N   6,C   7,C  16)          111.0404         0.371396   
     49. A(N   6,C   7,H   8)          109.5872         0.329176   
     50. A(H  12,C  10,C  13)          108.9641         0.323117   
     51. A(H  11,C  10,C  13)          109.3279         0.323482   
     52. A(N   6,C  10,C  13)          112.8715         0.369619   
     53. A(H  11,C  10,H  12)          107.3026         0.289736   
     54. A(N   6,C  10,H  12)          107.3749         0.329234   
     55. A(N   6,C  10,H  11)          110.8154         0.329608   
     56. A(H  14,C  13,H  15)          107.9047         0.288777   
     57. A(H  15,C  13,O  27)          106.9493         0.337572   
     58. A(C  10,C  13,H  15)          110.2955         0.323008   
     59. A(C  10,C  13,H  14)          110.3299         0.322471   
     60. A(H  14,C  13,O  27)          111.1781         0.337001   
     61. A(C  10,C  13,O  27)          110.1050         0.379494   
     62. A(N  17,C  16,O  18)          122.8291         0.463621   
     63. A(C   7,C  16,O  18)          119.2037         0.427909   
     64. A(C   7,C  16,N  17)          117.9473         0.394828   
     65. A(C  16,N  17,C  19)          125.2933         0.402633   
     66. A(C  19,N  17,C  23)          115.4340         0.379948   
     67. A(C  16,N  17,C  23)          118.3287         0.402603   
     68. A(H  21,C  19,H  22)          108.8564         0.290387   
     69. A(H  20,C  19,H  22)          108.4965         0.290102   
     70. A(N  17,C  19,H  22)          111.9843         0.331902   
     71. A(H  20,C  19,H  21)          108.1840         0.288729   
     72. A(N  17,C  19,H  21)          109.0593         0.330245   
     73. A(N  17,C  19,H  20)          110.1764         0.329903   
     74. A(H  25,C  23,H  26)          110.1438         0.290349   
     75. A(H  24,C  23,H  26)          108.5972         0.288869   
     76. A(N  17,C  23,H  26)          109.3469         0.330467   
     77. A(H  24,C  23,H  25)          109.3535         0.289795   
     78. A(N  17,C  23,H  25)          108.6003         0.331585   
     79. A(N  17,C  23,H  24)          110.7947         0.329803   
     80. A(C  13,O  27,C  28)          111.8633         0.395404   
     81. A(H  29,C  28,H  31)          108.3522         0.288829   
     82. A(O  27,C  28,H  31)          112.2181         0.335824   
     83. A(H  29,C  28,H  30)          109.4225         0.289586   
     84. A(O  27,C  28,H  30)          106.3513         0.336759   
     85. A(H  30,C  28,H  31)          109.8353         0.289996   
     86. A(O  27,C  28,H  29)          110.6312         0.335320   
     87. D(O   5,C   4,C   0,H   2)    110.3972         0.011539   
     88. D(O   5,C   4,C   0,H   1)   -128.4935         0.011539   
     89. D(N   6,C   4,C   0,H   1)     52.3518         0.011539   
     90. D(N   6,C   4,C   0,H   2)    -68.7575         0.011539   
     91. D(O   5,C   4,C   0,H   3)     -8.1592         0.011539   
     92. D(N   6,C   4,C   0,H   3)    172.6862         0.011539   
     93. D(C   7,N   6,C   4,C   0)    172.2048         0.028082   
     94. D(C  10,N   6,C   4,C   0)     -1.6011         0.028082   
     95. D(C   7,N   6,C   4,O   5)     -6.9425         0.028082   
     96. D(C  10,N   6,C   4,O   5)    179.2516         0.028082   
     97. D(C  16,C   7,N   6,C   4)    128.1244         0.015919   
     98. D(H   9,C   7,N   6,C   4)      2.8622         0.015919   
     99. D(H   8,C   7,N   6,C  10)     58.5256         0.015919   
    100. D(H   9,C   7,N   6,C  10)    177.1813         0.015919   
    101. D(H   8,C   7,N   6,C   4)   -115.7934         0.015919   
    102. D(C  16,C   7,N   6,C  10)    -57.5565         0.015919   
    103. D(C  13,C  10,N   6,C   7)     97.2024         0.015850   
    104. D(C  13,C  10,N   6,C   4)    -88.8406         0.015850   
    105. D(H  12,C  10,N   6,C   7)    -22.9008         0.015850   
    106. D(H  12,C  10,N   6,C   4)    151.0562         0.015850   
    107. D(H  11,C  10,N   6,C   7)   -139.7957         0.015850   
    108. D(H  11,C  10,N   6,C   4)     34.1613         0.015850   
    109. D(O  27,C  13,C  10,H  11)     64.3889         0.010996   
    110. D(O  27,C  13,C  10,N   6)   -171.7853         0.010996   
    111. D(H  15,C  13,C  10,H  12)   -170.3971         0.010996   
    112. D(H  15,C  13,C  10,H  11)    -53.4096         0.010996   
    113. D(H  15,C  13,C  10,N   6)     70.4161         0.010996   
    114. D(H  14,C  13,C  10,H  12)     70.4869         0.010996   
    115. D(H  14,C  13,C  10,H  11)   -172.5256         0.010996   
    116. D(O  27,C  13,C  10,H  12)    -52.5986         0.010996   
    117. D(H  14,C  13,C  10,N   6)    -48.6999         0.010996   
    118. D(O  18,C  16,C   7,H   9)   -137.6676         0.010807   
    119. D(O  18,C  16,C   7,H   8)    -18.2444         0.010807   
    120. D(O  18,C  16,C   7,N   6)    100.3685         0.010807   
    121. D(N  17,C  16,C   7,H   9)     43.9080         0.010807   
    122. D(N  17,C  16,C   7,H   8)    163.3312         0.010807   
    123. D(N  17,C  16,C   7,N   6)    -78.0559         0.010807   
    124. D(C  23,N  17,C  16,O  18)     -2.5804         0.030539   
    125. D(C  23,N  17,C  16,C   7)    175.7829         0.030539   
    126. D(C  19,N  17,C  16,O  18)   -170.9224         0.030539   
    127. D(C  19,N  17,C  16,C   7)      7.4409         0.030539   
    128. D(H  22,C  19,N  17,C  16)    -14.3880         0.016602   
    129. D(H  21,C  19,N  17,C  23)     56.4250         0.016602   
    130. D(H  21,C  19,N  17,C  16)   -134.9341         0.016602   
    131. D(H  20,C  19,N  17,C  23)    -62.1759         0.016602   
    132. D(H  22,C  19,N  17,C  23)    176.9711         0.016602   
    133. D(H  20,C  19,N  17,C  16)    106.4650         0.016602   
    134. D(H  26,C  23,N  17,C  19)    -53.4121         0.016588   
    135. D(H  26,C  23,N  17,C  16)    137.1109         0.016588   
    136. D(H  25,C  23,N  17,C  19)   -173.6285         0.016588   
    137. D(H  25,C  23,N  17,C  16)     16.8944         0.016588   
    138. D(H  24,C  23,N  17,C  19)     66.2504         0.016588   
    139. D(H  24,C  23,N  17,C  16)   -103.2266         0.016588   
    140. D(C  28,O  27,C  13,H  15)   -149.9241         0.019957   
    141. D(C  28,O  27,C  13,H  14)    -32.3595         0.019957   
    142. D(C  28,O  27,C  13,C  10)     90.2279         0.019957   
    143. D(H  31,C  28,O  27,C  13)    -51.8501         0.018717   
    144. D(H  30,C  28,O  27,C  13)   -171.9707         0.018717   
    145. D(H  29,C  28,O  27,C  13)     69.2945         0.018717   
    -----------------------------------------------------------------

Number of atoms                         .... 32
Number of degrees of freedom            .... 145

         *************************************************************
         *                GEOMETRY OPTIMIZATION CYCLE   1            *
         *************************************************************
---------------------------------
CARTESIAN COORDINATES (ANGSTROEM)
---------------------------------
  C      2.964000   -1.492000   -0.598000
  H      2.291000   -1.923000   -1.342000
  H      3.165000   -2.255000    0.160000
  H      3.903000   -1.215000   -1.077000
  C      2.402000   -0.238000    0.041000
  O      3.066000    0.806000    0.091000
  N      1.137000   -0.320000    0.574000
  C      0.623000    0.806000    1.349000
  H      0.460000    0.494000    2.386000
  H      1.372000    1.597000    1.329000
  C      0.296000   -1.514000    0.535000
  H      0.903000   -2.419000    0.611000
  H     -0.355000   -1.484000    1.414000
  C     -0.572000   -1.590000   -0.725000
  H     -1.089000   -0.636000   -0.890000
  H      0.050000   -1.792000   -1.603000
  C     -0.745000    1.244000    0.837000
  N     -0.791000    2.000000   -0.298000
  O     -1.764000    0.879000    1.444000
  C      0.346000    2.301000   -1.154000
  H      0.282000    1.724000   -2.085000
  H      0.329000    3.366000   -1.410000
  H      1.292000    2.071000   -0.670000
  C     -2.094000    2.344000   -0.846000
  H     -2.325000    1.723000   -1.721000
  H     -2.848000    2.180000   -0.078000
  H     -2.092000    3.394000   -1.154000
  O     -1.496000   -2.662000   -0.617000
  C     -2.726000   -2.246000   -0.023000
  H     -3.278000   -1.583000   -0.701000
  H     -3.306000   -3.153000    0.149000
  H     -2.571000   -1.719000    0.924000

----------------------------
CARTESIAN COORDINATES (A.U.)
----------------------------
  NO LB      ZA    FRAG     MASS         X           Y           Z
   0 C     6.0000    0    12.011    5.601148   -2.819471   -1.130056
   1 H     1.0000    0     1.008    4.329363   -3.633943   -2.536012
   2 H     1.0000    0     1.008    5.980983   -4.261332    0.302356
   3 H     1.0000    0     1.008    7.375601   -2.296017   -2.035235
   4 C     6.0000    0    12.011    4.539122   -0.449755    0.077479
   5 O     8.0000    0    15.999    5.793900    1.523119    0.171965
   6 N     7.0000    0    14.007    2.148619   -0.604712    1.084703
   7 C     6.0000    0    12.011    1.177299    1.523119    2.549241
   8 H     1.0000    0     1.008    0.869274    0.933525    4.508887
   9 H     1.0000    0     1.008    2.592704    3.017893    2.511446
  10 C     6.0000    0    12.011    0.559359   -2.861045    1.011003
  11 H     1.0000    0     1.008    1.706423   -4.571248    1.154623
  12 H     1.0000    0     1.008   -0.670853   -2.804354    2.672073
  13 C     6.0000    0    12.011   -1.080923   -3.004665   -1.370051
  14 H     1.0000    0     1.008   -2.057912   -1.201866   -1.681856
  15 H     1.0000    0     1.008    0.094486   -3.386389   -3.029231
  16 C     6.0000    0    12.011   -1.407846    2.350819    1.581701
  17 N     7.0000    0    14.007   -1.494773    3.779452   -0.563138
  18 O     8.0000    0    15.999   -3.333477    1.661069    2.728765
  19 C     6.0000    0    12.011    0.653845    4.348260   -2.180744
  20 H     1.0000    0     1.008    0.532903    3.257888   -3.940079
  21 H     1.0000    0     1.008    0.621720    6.360818   -2.664514
  22 H     1.0000    0     1.008    2.441526    3.913623   -1.266117
  23 C     6.0000    0    12.011   -3.957087    4.429518   -1.598708
  24 H     1.0000    0     1.008   -4.393613    3.255998   -3.252219
  25 H     1.0000    0     1.008   -5.381940    4.119603   -0.147399
  26 H     1.0000    0     1.008   -3.953307    6.413730   -2.180744
  27 O     8.0000    0    15.999   -2.827030   -5.030451   -1.165961
  28 C     6.0000    0    12.011   -5.151393   -4.244325   -0.043464
  29 H     1.0000    0     1.008   -6.194522   -2.991436   -1.324698
  30 H     1.0000    0     1.008   -6.247435   -5.958307    0.281569
  31 H     1.0000    0     1.008   -4.858486   -3.248439    1.746107

--------------------------------
INTERNAL COORDINATES (ANGSTROEM)
--------------------------------
 C      0   0   0     0.000000000000     0.00000000     0.00000000
 H      1   0   0     1.091891020203     0.00000000     0.00000000
 H      1   2   0     1.094136188964   108.06033933     0.00000000
 H      1   2   3     1.089904124224   109.38302775   118.38263129
 C      1   2   3     1.515480451870   112.66585070   237.41171557
 O      5   1   2     1.238277836352   121.05147825   231.50647135
 N      5   1   2     1.375150173617   117.07922951    52.35182735
 C      7   5   1     1.460375636609   118.91329749   172.20475346
 H      8   7   5     1.095117345311   109.58718881   244.20655400
 H      8   7   5     1.089532927451   107.94301113     2.86216165
 C      7   5   1     1.460971594522   124.60542203   358.39888437
 H     11   7   5     1.092359830825   110.81541741    34.16130768
 H     11   7   5     1.094231236988   107.37488235   151.05619885
 C     11   7   5     1.531926891206   112.87146320   271.15944250
 H     14  11   7     1.097556376684   110.32989358   311.30014833
 H     14  11   7     1.094793131144   110.29545739    70.41614562
 C      8   7   5     1.524930162335   111.04037930   128.12437857
 N     17   8   7     1.364506137766   117.94732610   281.94406808
 O     17   8   7     1.240981466421   119.20372754   100.36850594
 C     18  17   8     1.454684158159   125.29326925     7.44088539
 H     20  18  17     1.097171818814   110.17635446   106.46498853
 H     20  18  17     1.095467936546   109.05931868   225.06591695
 H     20  18  17     1.087231346126   111.98430846   345.61195062
 C     18  17   8     1.454802048390   118.32871956   175.78293193
 H     24  18  17     1.097555010011   110.79465449   256.77339205
 H     24  18  17     1.088685445847   108.60027815    16.89442970
 H     24  18  17     1.094243117410   109.34690455   137.11088787
 O     14  11   7     1.419374510128   110.10499261   188.21466087
 C     28  14  11     1.427862738501   111.86332270    90.22792261
 H     29  28  14     1.097249743677   110.63117756    69.29452829
 H     29  28  14     1.090244467998   106.35126391   188.02934043
 H     29  28  14     1.094789020771   112.21805650   308.14985096

---------------------------
INTERNAL COORDINATES (A.U.)
---------------------------
 C      0   0   0     0.000000000000     0.00000000     0.00000000
 H      1   0   0     2.063374996272     0.00000000     0.00000000
 H      1   2   0     2.067617750354   108.06033933     0.00000000
 H      1   2   3     2.059620307014   109.38302775   118.38263129
 C      1   2   3     2.863843015345   112.66585070   237.41171557
 O      5   1   2     2.340005988409   121.05147825   231.50647135
 N      5   1   2     2.598657221151   117.07922951    52.35182735
 C      7   5   1     2.759710005841   118.91329749   172.20475346
 H      8   7   5     2.069471867144   109.58718881   244.20655400
 H      8   7   5     2.058918846772   107.94301113     2.86216165
 C      7   5   1     2.760836203085   124.60542203   358.39888437
 H     11   7   5     2.064260919956   110.81541741    34.16130768
 H     11   7   5     2.067797365089   107.37488235   151.05619885
 C     11   7   5     2.894922281569   112.87146320   271.15944250
 H     14  11   7     2.074080968472   110.32989358   311.30014833
 H     14  11   7     2.068859191160   110.29545739    70.41614562
 C      8   7   5     2.881700380170   111.04037930   128.12437857
 N     17   8   7     2.578542908432   117.94732610   281.94406808
 O     17   8   7     2.345115108807   119.20372754   100.36850594
 C     18  17   8     2.748954670275   125.29326925     7.44088539
 H     20  18  17     2.073354259415   110.17635446   106.46498853
 H     20  18  17     2.070134388563   109.05931868   225.06591695
 H     20  18  17     2.054569488394   111.98430846   345.61195062
 C     18  17   8     2.749177450525   118.32871956   175.78293193
 H     24  18  17     2.074078385834   110.79465449   256.77339205
 H     24  18  17     2.057317338638   108.60027815    16.89442970
 H     24  18  17     2.067819815834   109.34690455   137.11088787
 O     14  11   7     2.682229105610   110.10499261   188.21466087
 C     28  14  11     2.698269532598   111.86332270    90.22792261
 H     29  28  14     2.073501516065   110.63117756    69.29452829
 H     29  28  14     2.060263463539   106.35126391   188.02934043
 H     29  28  14     2.068851423680   112.21805650   308.14985096

---------------------
BASIS SET INFORMATION
---------------------
There are 4 groups of distinct atoms

 Group   1 Type C   : 10s4p1d contracted to 3s2p1d pattern {631/31/1}
 Group   2 Type H   : 4s contracted to 2s pattern {31}
 Group   3 Type O   : 10s4p1d contracted to 3s2p1d pattern {631/31/1}
 Group   4 Type N   : 10s4p1d contracted to 3s2p1d pattern {631/31/1}

Atom   0C    basis set group =>   1
Atom   1H    basis set group =>   2
Atom   2H    basis set group =>   2
Atom   3H    basis set group =>   2
Atom   4C    basis set group =>   1
Atom   5O    basis set group =>   3
Atom   6N    basis set group =>   4
Atom   7C    basis set group =>   1
Atom   8H    basis set group =>   2
Atom   9H    basis set group =>   2
Atom  10C    basis set group =>   1
Atom  11H    basis set group =>   2
Atom  12H    basis set group =>   2
Atom  13C    basis set group =>   1
Atom  14H    basis set group =>   2
Atom  15H    basis set group =>   2
Atom  16C    basis set group =>   1
Atom  17N    basis set group =>   4
Atom  18O    basis set group =>   3
Atom  19C    basis set group =>   1
Atom  20H    basis set group =>   2
Atom  21H    basis set group =>   2
Atom  22H    basis set group =>   2
Atom  23C    basis set group =>   1
Atom  24H    basis set group =>   2
Atom  25H    basis set group =>   2
Atom  26H    basis set group =>   2
Atom  27O    basis set group =>   3
Atom  28C    basis set group =>   1
Atom  29H    basis set group =>   2
Atom  30H    basis set group =>   2
Atom  31H    basis set group =>   2
---------------------------------
AUXILIARY/J BASIS SET INFORMATION
---------------------------------
There are 4 groups of distinct atoms

 Group   1 Type C   : 13s11p10d2f contracted to 13s11p10d2f pattern {1111111111111/11111111111/1111111111/11}
 Group   2 Type H   : 9s2p contracted to 9s2p pattern {111111111/11}
 Group   3 Type O   : 14s11p10d2f contracted to 14s11p10d2f pattern {11111111111111/11111111111/1111111111/11}
 Group   4 Type N   : 14s11p10d2f contracted to 14s11p10d2f pattern {11111111111111/11111111111/1111111111/11}

Atom   0C    basis set group =>   1
Atom   1H    basis set group =>   2
Atom   2H    basis set group =>   2
Atom   3H    basis set group =>   2
Atom   4C    basis set group =>   1
Atom   5O    basis set group =>   3
Atom   6N    basis set group =>   4
Atom   7C    basis set group =>   1
Atom   8H    basis set group =>   2
Atom   9H    basis set group =>   2
Atom  10C    basis set group =>   1
Atom  11H    basis set group =>   2
Atom  12H    basis set group =>   2
Atom  13C    basis set group =>   1
Atom  14H    basis set group =>   2
Atom  15H    basis set group =>   2
Atom  16C    basis set group =>   1
Atom  17N    basis set group =>   4
Atom  18O    basis set group =>   3
Atom  19C    basis set group =>   1
Atom  20H    basis set group =>   2
Atom  21H    basis set group =>   2
Atom  22H    basis set group =>   2
Atom  23C    basis set group =>   1
Atom  24H    basis set group =>   2
Atom  25H    basis set group =>   2
Atom  26H    basis set group =>   2
Atom  27O    basis set group =>   3
Atom  28C    basis set group =>   1
Atom  29H    basis set group =>   2
Atom  30H    basis set group =>   2
Atom  31H    basis set group =>   2
---------------------------------
AUXILIARY/C BASIS SET INFORMATION
---------------------------------
There are 4 groups of distinct atoms

 Group   1 Type C   : 13s11p10d2f contracted to 13s11p10d2f pattern {1111111111111/11111111111/1111111111/11}
 Group   2 Type H   : 9s2p contracted to 9s2p pattern {111111111/11}
 Group   3 Type O   : 14s11p10d2f contracted to 14s11p10d2f pattern {11111111111111/11111111111/1111111111/11}
 Group   4 Type N   : 14s11p10d2f contracted to 14s11p10d2f pattern {11111111111111/11111111111/1111111111/11}

Atom   0C    basis set group =>   1
Atom   1H    basis set group =>   2
Atom   2H    basis set group =>   2
Atom   3H    basis set group =>   2
Atom   4C    basis set group =>   1
Atom   5O    basis set group =>   3
Atom   6N    basis set group =>   4
Atom   7C    basis set group =>   1
Atom   8H    basis set group =>   2
Atom   9H    basis set group =>   2
Atom  10C    basis set group =>   1
Atom  11H    basis set group =>   2
Atom  12H    basis set group =>   2
Atom  13C    basis set group =>   1
Atom  14H    basis set group =>   2
Atom  15H    basis set group =>   2
Atom  16C    basis set group =>   1
Atom  17N    basis set group =>   4
Atom  18O    basis set group =>   3
Atom  19C    basis set group =>   1
Atom  20H    basis set group =>   2
Atom  21H    basis set group =>   2
Atom  22H    basis set group =>   2
Atom  23C    basis set group =>   1
Atom  24H    basis set group =>   2
Atom  25H    basis set group =>   2
Atom  26H    basis set group =>   2
Atom  27O    basis set group =>   3
Atom  28C    basis set group =>   1
Atom  29H    basis set group =>   2
Atom  30H    basis set group =>   2
Atom  31H    basis set group =>   2
----------------------------------
AUXILIARY/JK BASIS SET INFORMATION
----------------------------------
There are 4 groups of distinct atoms

 Group   1 Type C   : 13s11p10d2f contracted to 13s11p10d2f pattern {1111111111111/11111111111/1111111111/11}
 Group   2 Type H   : 9s2p contracted to 9s2p pattern {111111111/11}
 Group   3 Type O   : 14s11p10d2f contracted to 14s11p10d2f pattern {11111111111111/11111111111/1111111111/11}
 Group   4 Type N   : 14s11p10d2f contracted to 14s11p10d2f pattern {11111111111111/11111111111/1111111111/11}

Atom   0C    basis set group =>   1
Atom   1H    basis set group =>   2
Atom   2H    basis set group =>   2
Atom   3H    basis set group =>   2
Atom   4C    basis set group =>   1
Atom   5O    basis set group =>   3
Atom   6N    basis set group =>   4
Atom   7C    basis set group =>   1
Atom   8H    basis set group =>   2
Atom   9H    basis set group =>   2
Atom  10C    basis set group =>   1
Atom  11H    basis set group =>   2
Atom  12H    basis set group =>   2
Atom  13C    basis set group =>   1
Atom  14H    basis set group =>   2
Atom  15H    basis set group =>   2
Atom  16C    basis set group =>   1
Atom  17N    basis set group =>   4
Atom  18O    basis set group =>   3
Atom  19C    basis set group =>   1
Atom  20H    basis set group =>   2
Atom  21H    basis set group =>   2
Atom  22H    basis set group =>   2
Atom  23C    basis set group =>   1
Atom  24H    basis set group =>   2
Atom  25H    basis set group =>   2
Atom  26H    basis set group =>   2
Atom  27O    basis set group =>   3
Atom  28C    basis set group =>   1
Atom  29H    basis set group =>   2
Atom  30H    basis set group =>   2
Atom  31H    basis set group =>   2


           ************************************************************
           *        Program running with 4 parallel MPI-processes     *
           *              working on a common directory               *
           ************************************************************
------------------------------------------------------------------------------
                           ORCA GTO INTEGRAL CALCULATION
                           -- RI-GTO INTEGRALS CHOSEN --
------------------------------------------------------------------------------
------------------------------------------------------------------------------
                   ___                                                        
                  /   \      - P O W E R E D   B Y -                         
                 /     \                                                     
                 |  |  |   _    _      __       _____    __    __             
                 |  |  |  | |  | |    /  \     |  _  \  |  |  /  |          
                  \  \/   | |  | |   /    \    | | | |  |  | /  /          
                 / \  \   | |__| |  /  /\  \   | |_| |  |  |/  /          
                |  |  |   |  __  | /  /__\  \  |    /   |      \           
                |  |  |   | |  | | |   __   |  |    \   |  |\   \          
                \     /   | |  | | |  |  |  |  | |\  \  |  | \   \       
                 \___/    |_|  |_| |__|  |__|  |_| \__\ |__|  \__/        
                                                                              
                      - O R C A' S   B I G   F R I E N D -                    
                                      &                                       
                       - I N T E G R A L  F E E D E R -                       
                                                                              
 v1 FN, 2020, v2 2021                                                         
------------------------------------------------------------------------------


Reading SHARK input file NmO_gas.SHARKINP.tmp ... ok
----------------------
SHARK INTEGRAL PACKAGE
----------------------

Number of atoms                             ...     32
Number of basis functions                   ...    232
Number of shells                            ...    120
Maximum angular momentum                    ...      2
Integral batch strategy                     ... SHARK/LIBINT Hybrid
RI-J (if used) integral strategy            ... SPLIT-RIJ (Revised 2003 algorithm where possible)
Printlevel                                  ...      1
Contraction scheme used                     ... SEGMENTED contraction
Coulomb Range Separation                    ... NOT USED
Exchange Range Separation                   ... NOT USED
Finite Nucleus Model                        ... NOT USED
Auxiliary Coulomb fitting basis             ... AVAILABLE
   # of basis functions in Aux-J            ...   1815
   # of shells in Aux-J                     ...    707
   Maximum angular momentum in Aux-J        ...      3
Auxiliary J/K fitting basis                 ... AVAILABLE
   # of basis functions in Aux-JK           ...   1815
   # of shells in Aux-JK                    ...    707
   Maximum angular momentum in Aux-JK       ...      3
Auxiliary Correlation fitting basis         ... AVAILABLE
   # of basis functions in Aux-C            ...   1815
   # of shells in Aux-C                     ...    707
   Maximum angular momentum in Aux-C        ...      3
Auxiliary 'external' fitting basis          ... NOT available
Integral threshold                          ...     2.500000e-11
Primitive cut-off                           ...     2.500000e-12
Primitive pair pre-selection threshold      ...     2.500000e-12

Calculating pre-screening integrals         ... done (  0.1 sec) Dimension = 120
Organizing shell pair data                  ... done (  0.6 sec)
Shell pair information
Total number of shell pairs                 ...      7260
Shell pairs after pre-screening             ...      6356
Total number of primitive shell pairs       ...     40251
Primitive shell pairs kept                  ...     20697
          la=0 lb=0:   2603 shell pairs
          la=1 lb=0:   2003 shell pairs
          la=1 lb=1:    393 shell pairs
          la=2 lb=0:    902 shell pairs
          la=2 lb=1:    363 shell pairs
          la=2 lb=2:     92 shell pairs

Calculating one electron integrals          ... done (  0.0 sec)
Calculating RI/J V-Matrix + Cholesky decomp.... done (  0.2 sec)
Calculating RI/JK V-Matrix + Cholesky decomp... done (  0.2 sec)
Calculating RI/C V-Matrix + Cholesky decomp.... done (  0.2 sec)
Calculating Nuclear repulsion               ... done (  0.0 sec) ENN=   1010.204860362792 Eh

SHARK setup successfully completed in   1.8 seconds

Maximum memory used throughout the entire GTOINT-calculation: 30.0 MB


           ************************************************************
           *        Program running with 4 parallel MPI-processes     *
           *              working on a common directory               *
           ************************************************************
-------------------------------------------------------------------------------
                                 ORCA SCF
-------------------------------------------------------------------------------

------------
SCF SETTINGS
------------
Hamiltonian:
 Density Functional     Method          .... DFT(GTOs)
 Exchange Functional    Exchange        .... B88
   X-Alpha parameter    XAlpha          ....  0.666667
   Becke's b parameter  XBeta           ....  0.004200
 Correlation Functional Correlation     .... LYP
 LDA part of GGA corr.  LDAOpt          .... VWN-5
 Gradients option       PostSCFGGA      .... off
 Hybrid DFT is turned on
   Fraction HF Exchange ScalHFX         ....  0.200000
   Scaling of DF-GGA-X  ScalDFX         ....  0.720000
   Scaling of DF-GGA-C  ScalDFC         ....  0.810000
   Scaling of DF-LDA-C  ScalLDAC        ....  1.000000
   Perturbative correction              ....  0.000000
   Density functional embedding theory  .... OFF
   NL short-range parameter             ....  4.800000
 RI-approximation to the Coulomb term is turned on
   Number of AuxJ basis functions       .... 1815
   RIJ-COSX (HFX calculated with COS-X)).... on


General Settings:
 Integral files         IntName         .... NmO_gas
 Hartree-Fock type      HFTyp           .... RHF
 Total Charge           Charge          ....    0
 Multiplicity           Mult            ....    1
 Number of Electrons    NEL             ....  110
 Basis Dimension        Dim             ....  232
 Nuclear Repulsion      ENuc            ....   1010.2048603628 Eh

Convergence Acceleration:
 DIIS                   CNVDIIS         .... on
   Start iteration      DIISMaxIt       ....    12
   Startup error        DIISStart       ....  0.200000
   # of expansion vecs  DIISMaxEq       ....     5
   Bias factor          DIISBfac        ....   1.050
   Max. coefficient     DIISMaxC        ....  10.000
 Trust-Rad. Augm. Hess. CNVTRAH         .... auto
   Auto Start mean grad. ratio tolernc. ....  1.125000
   Auto Start start iteration           ....    20
   Auto Start num. interpolation iter.  ....    10
   Max. Number of Micro iterations      ....    16
   Max. Number of Macro iterations      .... Maxiter - #DIIS iter
   Number of Davidson start vectors     ....     2
   Converg. threshold I  (grad. norm)   ....   1.000e-05
   Converg. threshold II (energy diff.) ....   1.000e-08
   Grad. Scal. Fac. for Micro threshold ....   0.100
   Minimum threshold for Micro iter.    ....   0.010
   NR start threshold (gradient norm)   ....   0.001
   Initial trust radius                 ....   0.400
   Minimum AH scaling param. (alpha)    ....   1.000
   Maximum AH scaling param. (alpha)    .... 1000.000
   Orbital update algorithm             .... Taylor
   White noise on init. David. guess    .... on
   Maximum white noise                  ....   0.010
   Quad. conv. algorithm                .... NR
 SOSCF                  CNVSOSCF        .... on
   Start iteration      SOSCFMaxIt      ....   150
   Startup grad/error   SOSCFStart      ....  0.003300
 Level Shifting         CNVShift        .... on
   Level shift para.    LevelShift      ....    0.2500
   Turn off err/grad.   ShiftErr        ....    0.0010
 Zerner damping         CNVZerner       .... off
 Static damping         CNVDamp         .... on
   Fraction old density DampFac         ....    0.7000
   Max. Damping (<1)    DampMax         ....    0.9800
   Min. Damping (>=0)   DampMin         ....    0.0000
   Turn off err/grad.   DampErr         ....    0.1000
 Fernandez-Rico         CNVRico         .... off

SCF Procedure:
 Maximum # iterations   MaxIter         ....   125
 SCF integral mode      SCFMode         .... Direct
   Integral package                     .... SHARK and LIBINT hybrid scheme
 Reset frequency        DirectResetFreq ....    20
 Integral Threshold     Thresh          ....  2.500e-11 Eh
 Primitive CutOff       TCut            ....  2.500e-12 Eh

Convergence Tolerance:
 Convergence Check Mode ConvCheckMode   .... Total+1el-Energy
 Convergence forced     ConvForced      .... 0
 Energy Change          TolE            ....  1.000e-08 Eh
 1-El. energy change                    ....  1.000e-05 Eh
 Orbital Gradient       TolG            ....  1.000e-05
 Orbital Rotation angle TolX            ....  1.000e-05
 DIIS Error             TolErr          ....  5.000e-07


Diagonalization of the overlap matrix:
Smallest eigenvalue                        ... 3.166e-03
Time for diagonalization                   ...    0.009 sec
Threshold for overlap eigenvalues          ... 1.000e-08
Number of eigenvalues below threshold      ... 0
Time for construction of square roots      ...    0.005 sec
Total time needed                          ...    0.015 sec

Time for model grid setup =    0.271 sec

------------------------------
INITIAL GUESS: MODEL POTENTIAL
------------------------------
Loading Hartree-Fock densities                     ... done
Calculating cut-offs                               ... done
Initializing the effective Hamiltonian             ... done
Setting up the integral package (SHARK)            ... done
Starting the Coulomb interaction                   ... done (   0.2 sec)
Reading the grid                                   ... done
Mapping shells                                     ... done
Starting the XC term evaluation                    ... done (   0.2 sec)
  promolecular density results
     # of electrons  =    109.987285054
     EX              =    -89.381952823
     EC              =     -3.721844704
     EX+EC           =    -93.103797527
Transforming the Hamiltonian                       ... done (   0.0 sec)
Diagonalizing the Hamiltonian                      ... done (   0.0 sec)
Back transforming the eigenvectors                 ... done (   0.0 sec)
Now organizing SCF variables                       ... done
                      ------------------
                      INITIAL GUESS DONE (   0.7 sec)
                      ------------------
-------------------
DFT GRID GENERATION
-------------------

General Integration Accuracy     IntAcc      ... 4.388
Radial Grid Type                 RadialGrid  ... OptM3 with GC (2021)
Angular Grid (max. ang.)         AngularGrid ... 4 (Lebedev-302)
Angular grid pruning method      GridPruning ... 4 (adaptive)
Weight generation scheme         WeightScheme... Becke
Basis function cutoff            BFCut       ... 1.0000e-11
Integration weight cutoff        WCut        ... 1.0000e-14
Angular grids for H and He will be reduced by one unit
Partially contracted basis set               ... off
Rotationally invariant grid construction     ... off

Total number of grid points                  ...   140976
Total number of batches                      ...     2218
Average number of points per batch           ...       63
Average number of grid points per atom       ...     4406
Time for grid setup =    1.159 sec

--------------------
COSX GRID GENERATION
--------------------

GRIDX 1
-------
General Integration Accuracy     IntAcc      ... 3.816
Radial Grid Type                 RadialGrid  ... OptM3 with GC (2021)
Angular Grid (max. ang.)         AngularGrid ... 1 (Lebedev-50)
Angular grid pruning method      GridPruning ... 4 (adaptive)
Weight generation scheme         WeightScheme... Becke
Basis function cutoff            BFCut       ... 1.0000e-11
Integration weight cutoff        WCut        ... 1.0000e-14
Angular grids for H and He will be reduced by one unit
Partially contracted basis set               ... on
Rotationally invariant grid construction     ... off

Total number of grid points                  ...    17973
Total number of batches                      ...      301
Average number of points per batch           ...       59
Average number of grid points per atom       ...      562
UseSFitting                                  ... on

GRIDX 2
-------
General Integration Accuracy     IntAcc      ... 4.020
Radial Grid Type                 RadialGrid  ... OptM3 with GC (2021)
Angular Grid (max. ang.)         AngularGrid ... 2 (Lebedev-110)
Angular grid pruning method      GridPruning ... 4 (adaptive)
Weight generation scheme         WeightScheme... Becke
Basis function cutoff            BFCut       ... 1.0000e-11
Integration weight cutoff        WCut        ... 1.0000e-14
Angular grids for H and He will be reduced by one unit
Partially contracted basis set               ... on
Rotationally invariant grid construction     ... off

Total number of grid points                  ...    37921
Total number of batches                      ...      608
Average number of points per batch           ...       62
Average number of grid points per atom       ...     1185
UseSFitting                                  ... on

GRIDX 3
-------
General Integration Accuracy     IntAcc      ... 4.338
Radial Grid Type                 RadialGrid  ... OptM3 with GC (2021)
Angular Grid (max. ang.)         AngularGrid ... 3 (Lebedev-194)
Angular grid pruning method      GridPruning ... 4 (adaptive)
Weight generation scheme         WeightScheme... Becke
Basis function cutoff            BFCut       ... 1.0000e-11
Integration weight cutoff        WCut        ... 1.0000e-14
Angular grids for H and He will be reduced by one unit
Partially contracted basis set               ... on
Rotationally invariant grid construction     ... off

Total number of grid points                  ...    82566
Total number of batches                      ...     1308
Average number of points per batch           ...       63
Average number of grid points per atom       ...     2580
UseSFitting                                  ... on

Time for X-Grid setup             =    2.212 sec

--------------
SCF ITERATIONS
--------------
ITER       Energy         Delta-E        Max-DP      RMS-DP      [F,P]     Damp
               ***  Starting incremental Fock matrix formation  ***
  0   -688.1320094990   0.000000000000 0.10153871  0.00233386  0.2768813 0.7000
  1   -688.3296938550  -0.197684355912 0.05712961  0.00152456  0.1063900 0.7000
                               ***Turning on DIIS***
  2   -688.4033140714  -0.073620216422 0.06416091  0.00229609  0.0383992 0.0000
  3   -688.5271269455  -0.123812874138 0.03863318  0.00106756  0.0497072 0.0000
  4   -688.5499482629  -0.022821317357 0.00955341  0.00034278  0.0131678 0.0000
  5   -688.5519626295  -0.002014366591 0.00282990  0.00009350  0.0040953 0.0000
                      *** Initiating the SOSCF procedure ***
                           *** Shutting down DIIS ***
                      *** Re-Reading the Fockian *** 
                      *** Removing any level shift *** 
ITER      Energy       Delta-E        Grad      Rot      Max-DP    RMS-DP
  6   -688.55205379  -0.0000911651  0.000202  0.000202  0.001089  0.000029
               *** Restarting incremental Fock matrix formation ***
  7   -688.55204941   0.0000043854  0.000102  0.000262  0.000558  0.000018
  8   -688.55204943  -0.0000000202  0.000125  0.000168  0.000442  0.000007
  9   -688.55205066  -0.0000012268  0.000019  0.000061  0.000079  0.000003
 10   -688.55205064   0.0000000112  0.000033  0.000050  0.000067  0.000001
 11   -688.55205068  -0.0000000351  0.000010  0.000019  0.000049  0.000001
 12   -688.55205067   0.0000000135  0.000009  0.000009  0.000023  0.000001
                  ***Gradient check signals convergence***
              ***Rediagonalizing the Fockian in SOSCF/NRSCF***

               *****************************************************
               *                     SUCCESS                       *
               *           SCF CONVERGED AFTER  13 CYCLES          *
               *****************************************************

Old exchange energy                            =    -18.212417226 Eh
New exchange energy                            =    -18.212423150 Eh
Exchange energy change after final integration =     -0.000005924 Eh
Total energy after final integration           =   -688.552056602 Eh
Final COS-X integration done in                =     9.209 sec

----------------
TOTAL SCF ENERGY
----------------

Total Energy       :         -688.55205660 Eh          -18736.45400 eV

Components:
Nuclear Repulsion  :         1010.20486036 Eh           27489.07177 eV
Electronic Energy  :        -1698.75691697 Eh          -46225.52577 eV
One Electron Energy:        -2943.22015257 Eh          -80089.09200 eV
Two Electron Energy:         1244.46323561 Eh           33863.56623 eV
Max COSX asymmetry :            0.00000246 Eh               0.00007 eV

Virial components:
Potential Energy   :        -1373.12394235 Eh          -37364.60205 eV
Kinetic Energy     :          684.57188575 Eh           18628.14805 eV
Virial Ratio       :            2.00581410


DFT components:
N(Alpha)           :       55.000096886502 electrons
N(Beta)            :       55.000096886502 electrons
N(Total)           :      110.000193773004 electrons
E(X)               :      -72.335676745662 Eh       
E(C)               :       -4.382958027024 Eh       
E(XC)              :      -76.718634772686 Eh       
DFET-embed. en.    :        0.000000000000 Eh       

---------------
SCF CONVERGENCE
---------------

  Last Energy change         ...   -1.1371e-08  Tolerance :   1.0000e-08
  Last MAX-Density change    ...    2.2204e-15  Tolerance :   1.0000e-07
  Last RMS-Density change    ...    3.7261e-17  Tolerance :   5.0000e-09
  Last Orbital Gradient      ...    6.1613e-07  Tolerance :   1.0000e-05
  Last Orbital Rotation      ...    2.6024e-06  Tolerance :   1.0000e-05

             **** THE GBW FILE WAS UPDATED (NmO_gas.gbw) ****
             **** DENSITY NmO_gas.scfp WAS UPDATED ****
             **** ENERGY FILE WAS UPDATED (NmO_gas.en.tmp) ****
             **** THE GBW FILE WAS UPDATED (NmO_gas.gbw) ****
             **** DENSITY NmO_gas.scfp WAS UPDATED ****
----------------
ORBITAL ENERGIES
----------------

  NO   OCC          E(Eh)            E(eV) 
   0   2.0000     -19.140475      -520.8388 
   1   2.0000     -19.109733      -520.0023 
   2   2.0000     -19.107166      -519.9324 
   3   2.0000     -14.366182      -390.9237 
   4   2.0000     -14.364206      -390.8699 
   5   2.0000     -10.286498      -279.9098 
   6   2.0000     -10.280572      -279.7486 
   7   2.0000     -10.226505      -278.2774 
   8   2.0000     -10.217182      -278.0237 
   9   2.0000     -10.215665      -277.9824 
  10   2.0000     -10.210725      -277.8479 
  11   2.0000     -10.209410      -277.8122 
  12   2.0000     -10.205599      -277.7085 
  13   2.0000     -10.184464      -277.1333 
  14   2.0000      -1.033289       -28.1172 
  15   2.0000      -1.025200       -27.8971 
  16   2.0000      -1.024599       -27.8808 
  17   2.0000      -0.938624       -25.5413 
  18   2.0000      -0.932936       -25.3865 
  19   2.0000      -0.771738       -21.0001 
  20   2.0000      -0.755098       -20.5473 
  21   2.0000      -0.727524       -19.7969 
  22   2.0000      -0.714826       -19.4514 
  23   2.0000      -0.686313       -18.6755 
  24   2.0000      -0.675327       -18.3766 
  25   2.0000      -0.619945       -16.8696 
  26   2.0000      -0.559450       -15.2234 
  27   2.0000      -0.545433       -14.8420 
  28   2.0000      -0.518919       -14.1205 
  29   2.0000      -0.500451       -13.6180 
  30   2.0000      -0.488496       -13.2927 
  31   2.0000      -0.475647       -12.9430 
  32   2.0000      -0.474428       -12.9099 
  33   2.0000      -0.467366       -12.7177 
  34   2.0000      -0.462211       -12.5774 
  35   2.0000      -0.447946       -12.1892 
  36   2.0000      -0.437016       -11.8918 
  37   2.0000      -0.420565       -11.4441 
  38   2.0000      -0.409113       -11.1325 
  39   2.0000      -0.406941       -11.0734 
  40   2.0000      -0.405558       -11.0358 
  41   2.0000      -0.401075       -10.9138 
  42   2.0000      -0.397056       -10.8044 
  43   2.0000      -0.390287       -10.6202 
  44   2.0000      -0.387925       -10.5560 
  45   2.0000      -0.377436       -10.2706 
  46   2.0000      -0.363961        -9.9039 
  47   2.0000      -0.359852        -9.7921 
  48   2.0000      -0.352154        -9.5826 
  49   2.0000      -0.312990        -8.5169 
  50   2.0000      -0.266118        -7.2414 
  51   2.0000      -0.253980        -6.9111 
  52   2.0000      -0.251114        -6.8332 
  53   2.0000      -0.240621        -6.5476 
  54   2.0000      -0.232494        -6.3265 
  55   0.0000       0.011784         0.3207 
  56   0.0000       0.023653         0.6436 
  57   0.0000       0.073147         1.9904 
  58   0.0000       0.085804         2.3349 
  59   0.0000       0.100549         2.7361 
  60   0.0000       0.108890         2.9630 
  61   0.0000       0.128178         3.4879 
  62   0.0000       0.134508         3.6602 
  63   0.0000       0.142634         3.8813 
  64   0.0000       0.149007         4.0547 
  65   0.0000       0.153380         4.1737 
  66   0.0000       0.155220         4.2238 
  67   0.0000       0.161886         4.4051 
  68   0.0000       0.165511         4.5038 
  69   0.0000       0.171230         4.6594 
  70   0.0000       0.174651         4.7525 
  71   0.0000       0.181056         4.9268 
  72   0.0000       0.184299         5.0150 
  73   0.0000       0.189318         5.1516 
  74   0.0000       0.200722         5.4619 
  75   0.0000       0.215776         5.8716 
  76   0.0000       0.218720         5.9517 
  77   0.0000       0.223890         6.0924 
  78   0.0000       0.229344         6.2408 
  79   0.0000       0.238223         6.4824 
  80   0.0000       0.245638         6.6841 
  81   0.0000       0.262176         7.1342 
  82   0.0000       0.274141         7.4598 
  83   0.0000       0.293175         7.9777 
  84   0.0000       0.330875         9.0036 
  85   0.0000       0.359208         9.7745 
  86   0.0000       0.375524        10.2185 
  87   0.0000       0.418182        11.3793 
  88   0.0000       0.467901        12.7322 
  89   0.0000       0.498946        13.5770 
  90   0.0000       0.503246        13.6940 
  91   0.0000       0.508135        13.8271 
  92   0.0000       0.516439        14.0530 
  93   0.0000       0.523236        14.2380 
  94   0.0000       0.537597        14.6288 
  95   0.0000       0.541649        14.7390 
  96   0.0000       0.561344        15.2750 
  97   0.0000       0.570669        15.5287 
  98   0.0000       0.589626        16.0445 
  99   0.0000       0.596254        16.2249 
 100   0.0000       0.607034        16.5182 
 101   0.0000       0.614660        16.7258 
 102   0.0000       0.629085        17.1183 
 103   0.0000       0.637080        17.3358 
 104   0.0000       0.649253        17.6671 
 105   0.0000       0.668405        18.1882 
 106   0.0000       0.674759        18.3611 
 107   0.0000       0.686658        18.6849 
 108   0.0000       0.703604        19.1460 
 109   0.0000       0.717561        19.5258 
 110   0.0000       0.743796        20.2397 
 111   0.0000       0.764530        20.8039 
 112   0.0000       0.777188        21.1484 
 113   0.0000       0.786418        21.3995 
 114   0.0000       0.794494        21.6193 
 115   0.0000       0.814498        22.1636 
 116   0.0000       0.822930        22.3931 
 117   0.0000       0.836706        22.7679 
 118   0.0000       0.842285        22.9197 
 119   0.0000       0.843525        22.9535 
 120   0.0000       0.861112        23.4321 
 121   0.0000       0.864655        23.5285 
 122   0.0000       0.870953        23.6998 
 123   0.0000       0.883442        24.0397 
 124   0.0000       0.890551        24.2331 
 125   0.0000       0.893708        24.3190 
 126   0.0000       0.907487        24.6940 
 127   0.0000       0.912450        24.8290 
 128   0.0000       0.921919        25.0867 
 129   0.0000       0.928285        25.2599 
 130   0.0000       0.938277        25.5318 
 131   0.0000       0.949269        25.8309 
 132   0.0000       0.970719        26.4146 
 133   0.0000       0.979739        26.6600 
 134   0.0000       0.994424        27.0597 
 135   0.0000       0.997815        27.1519 
 136   0.0000       1.011696        27.5296 
 137   0.0000       1.023232        27.8436 
 138   0.0000       1.039284        28.2804 
 139   0.0000       1.056185        28.7403 
 140   0.0000       1.062432        28.9103 
 141   0.0000       1.092494        29.7283 
 142   0.0000       1.105492        30.0820 
 143   0.0000       1.124933        30.6110 
 144   0.0000       1.131954        30.8020 
 145   0.0000       1.151478        31.3333 
 146   0.0000       1.180674        32.1278 
 147   0.0000       1.240163        33.7466 
 148   0.0000       1.269932        34.5566 
 149   0.0000       1.276092        34.7242 
 150   0.0000       1.302557        35.4444 
 151   0.0000       1.335625        36.3442 
 152   0.0000       1.349594        36.7243 
 153   0.0000       1.370982        37.3063 
 154   0.0000       1.400012        38.0963 
 155   0.0000       1.411884        38.4193 
 156   0.0000       1.425706        38.7954 
 157   0.0000       1.428168        38.8624 
 158   0.0000       1.438070        39.1319 
 159   0.0000       1.450721        39.4761 
 160   0.0000       1.478987        40.2453 
 161   0.0000       1.512778        41.1648 
 162   0.0000       1.547396        42.1068 
 163   0.0000       1.549000        42.1504 
 164   0.0000       1.618238        44.0345 
 165   0.0000       1.653750        45.0008 
 166   0.0000       1.674708        45.5711 
 167   0.0000       1.706231        46.4289 
 168   0.0000       1.742718        47.4218 
 169   0.0000       1.751769        47.6681 
 170   0.0000       1.766433        48.0671 
 171   0.0000       1.785408        48.5834 
 172   0.0000       1.806587        49.1597 
 173   0.0000       1.829332        49.7787 
 174   0.0000       1.846665        50.2503 
 175   0.0000       1.856802        50.5261 
 176   0.0000       1.868544        50.8457 
 177   0.0000       1.889300        51.4105 
 178   0.0000       1.893369        51.5212 
 179   0.0000       1.910522        51.9880 
 180   0.0000       1.930889        52.5422 
 181   0.0000       1.947227        52.9867 
 182   0.0000       1.951092        53.0919 
 183   0.0000       1.970770        53.6274 
 184   0.0000       1.976217        53.7756 
 185   0.0000       2.010027        54.6956 
 186   0.0000       2.019568        54.9552 
 187   0.0000       2.030426        55.2507 
 188   0.0000       2.045163        55.6517 
 189   0.0000       2.066705        56.2379 
 190   0.0000       2.071873        56.3785 
 191   0.0000       2.075827        56.4861 
 192   0.0000       2.086861        56.7864 
 193   0.0000       2.098619        57.1063 
 194   0.0000       2.121429        57.7270 
 195   0.0000       2.131063        57.9892 
 196   0.0000       2.148669        58.4683 
 197   0.0000       2.199458        59.8503 
 198   0.0000       2.207596        60.0717 
 199   0.0000       2.211484        60.1775 
 200   0.0000       2.222296        60.4717 
 201   0.0000       2.259843        61.4935 
 202   0.0000       2.276473        61.9460 
 203   0.0000       2.280392        62.0526 
 204   0.0000       2.304441        62.7070 
 205   0.0000       2.328770        63.3691 
 206   0.0000       2.341350        63.7114 
 207   0.0000       2.364609        64.3443 
 208   0.0000       2.389364        65.0179 
 209   0.0000       2.406746        65.4909 
 210   0.0000       2.430927        66.1489 
 211   0.0000       2.436018        66.2874 
 212   0.0000       2.489867        67.7527 
 213   0.0000       2.509535        68.2879 
 214   0.0000       2.542741        69.1915 
 215   0.0000       2.554203        69.5034 
 216   0.0000       2.589002        70.4503 
 217   0.0000       2.614389        71.1411 
 218   0.0000       2.631926        71.6184 
 219   0.0000       2.648561        72.0710 
 220   0.0000       2.686946        73.1155 
 221   0.0000       2.707591        73.6773 
 222   0.0000       2.722100        74.0721 
 223   0.0000       2.756114        74.9977 
 224   0.0000       2.773753        75.4777 
 225   0.0000       2.935017        79.8659 
 226   0.0000       2.942086        80.0582 
 227   0.0000       2.966527        80.7233 
 228   0.0000       3.012828        81.9832 
 229   0.0000       3.014832        82.0378 
 230   0.0000       3.162462        86.0550 
 231   0.0000       3.180563        86.5475 

                    ********************************
                    * MULLIKEN POPULATION ANALYSIS *
                    ********************************

-----------------------
MULLIKEN ATOMIC CHARGES
-----------------------
   0 C :   -0.550897
   1 H :    0.171060
   2 H :    0.179067
   3 H :    0.189602
   4 C :    0.524544
   5 O :   -0.482220
   6 N :   -0.380271
   7 C :   -0.247134
   8 H :    0.175603
   9 H :    0.204133
  10 C :   -0.180899
  11 H :    0.164190
  12 H :    0.180576
  13 C :   -0.026642
  14 H :    0.143802
  15 H :    0.139121
  16 C :    0.516794
  17 N :   -0.363205
  18 O :   -0.493812
  19 C :   -0.346169
  20 H :    0.151520
  21 H :    0.157538
  22 H :    0.214742
  23 C :   -0.322233
  24 H :    0.150926
  25 H :    0.202255
  26 H :    0.154118
  27 O :   -0.471113
  28 C :   -0.209378
  29 H :    0.135327
  30 H :    0.154253
  31 H :    0.164802
Sum of atomic charges:   -0.0000000

--------------------------------
MULLIKEN REDUCED ORBITAL CHARGES
--------------------------------
  0 C s       :     3.318625  s :     3.318625
      pz      :     1.068966  p :     3.200152
      px      :     1.097061
      py      :     1.034124
      dz2     :     0.002109  d :     0.032119
      dxz     :     0.008208
      dyz     :     0.010020
      dx2y2   :     0.006237
      dxy     :     0.005546
  1 H s       :     0.828940  s :     0.828940
  2 H s       :     0.820933  s :     0.820933
  3 H s       :     0.810398  s :     0.810398
  4 C s       :     2.982117  s :     2.982117
      pz      :     0.808178  p :     2.385185
      px      :     0.768534
      py      :     0.808473
      dz2     :     0.008926  d :     0.108154
      dxz     :     0.017206
      dyz     :     0.018502
      dx2y2   :     0.038084
      dxy     :     0.025436
  5 O s       :     3.875886  s :     3.875886
      pz      :     1.533654  p :     4.580156
      px      :     1.621632
      py      :     1.424870
      dz2     :     0.002491  d :     0.026178
      dxz     :     0.002943
      dyz     :     0.006054
      dx2y2   :     0.006983
      dxy     :     0.007707
  6 N s       :     3.532817  s :     3.532817
      pz      :     1.472637  p :     3.811042
      px      :     1.186315
      py      :     1.152090
      dz2     :     0.005014  d :     0.036412
      dxz     :     0.006147
      dyz     :     0.005832
      dx2y2   :     0.009738
      dxy     :     0.009681
  7 C s       :     3.249540  s :     3.249540
      pz      :     1.007543  p :     2.945567
      px      :     0.992232
      py      :     0.945792
      dz2     :     0.014832  d :     0.052027
      dxz     :     0.006050
      dyz     :     0.009848
      dx2y2   :     0.007130
      dxy     :     0.014168
  8 H s       :     0.824397  s :     0.824397
  9 H s       :     0.795867  s :     0.795867
 10 C s       :     3.222619  s :     3.222619
      pz      :     1.042772  p :     2.905385
      px      :     0.969998
      py      :     0.892615
      dz2     :     0.010593  d :     0.052894
      dxz     :     0.013305
      dyz     :     0.005425
      dx2y2   :     0.007420
      dxy     :     0.016151
 11 H s       :     0.835810  s :     0.835810
 12 H s       :     0.819424  s :     0.819424
 13 C s       :     3.191120  s :     3.191120
      pz      :     0.997027  p :     2.770281
      px      :     0.890890
      py      :     0.882364
      dz2     :     0.011495  d :     0.065241
      dxz     :     0.016560
      dyz     :     0.007354
      dx2y2   :     0.011862
      dxy     :     0.017971
 14 H s       :     0.856198  s :     0.856198
 15 H s       :     0.860879  s :     0.860879
 16 C s       :     2.985741  s :     2.985741
      pz      :     0.775672  p :     2.389745
      px      :     0.814304
      py      :     0.799769
      dz2     :     0.028763  d :     0.107720
      dxz     :     0.022183
      dyz     :     0.016732
      dx2y2   :     0.023251
      dxy     :     0.016790
 17 N s       :     3.529668  s :     3.529668
      pz      :     1.203088  p :     3.795999
      px      :     1.101822
      py      :     1.491089
      dz2     :     0.008027  d :     0.037539
      dxz     :     0.010156
      dyz     :     0.005900
      dx2y2   :     0.007801
      dxy     :     0.005654
 18 O s       :     3.874339  s :     3.874339
      pz      :     1.594291  p :     4.593509
      px      :     1.488526
      py      :     1.510692
      dz2     :     0.004346  d :     0.025964
      dxz     :     0.007469
      dyz     :     0.002434
      dx2y2   :     0.005051
      dxy     :     0.006664
 19 C s       :     3.269447  s :     3.269447
      pz      :     0.998838  p :     3.028263
      px      :     0.953294
      py      :     1.076132
      dz2     :     0.008433  d :     0.048458
      dxz     :     0.012558
      dyz     :     0.009419
      dx2y2   :     0.012888
      dxy     :     0.005159
 20 H s       :     0.848480  s :     0.848480
 21 H s       :     0.842462  s :     0.842462
 22 H s       :     0.785258  s :     0.785258
 23 C s       :     3.255325  s :     3.255325
      pz      :     1.071462  p :     3.018763
      px      :     0.887755
      py      :     1.059546
      dz2     :     0.006326  d :     0.048145
      dxz     :     0.013248
      dyz     :     0.008432
      dx2y2   :     0.013442
      dxy     :     0.006697
 24 H s       :     0.849074  s :     0.849074
 25 H s       :     0.797745  s :     0.797745
 26 H s       :     0.845882  s :     0.845882
 27 O s       :     3.860672  s :     3.860672
      pz      :     1.771645  p :     4.582906
      px      :     1.279985
      py      :     1.531276
      dz2     :     0.003809  d :     0.027535
      dxz     :     0.004881
      dyz     :     0.003821
      dx2y2   :     0.005727
      dxy     :     0.009297
 28 C s       :     3.249434  s :     3.249434
      pz      :     1.031772  p :     2.900540
      px      :     0.800969
      py      :     1.067799
      dz2     :     0.010438  d :     0.059404
      dxz     :     0.013428
      dyz     :     0.010802
      dx2y2   :     0.008870
      dxy     :     0.015866
 29 H s       :     0.864673  s :     0.864673
 30 H s       :     0.845747  s :     0.845747
 31 H s       :     0.835198  s :     0.835198


                     *******************************
                     * LOEWDIN POPULATION ANALYSIS *
                     *******************************

----------------------
LOEWDIN ATOMIC CHARGES
----------------------
   0 C :   -0.389473
   1 H :    0.141549
   2 H :    0.148768
   3 H :    0.154324
   4 C :    0.112200
   5 O :   -0.293903
   6 N :   -0.078542
   7 C :   -0.178071
   8 H :    0.141714
   9 H :    0.158767
  10 C :   -0.175335
  11 H :    0.134680
  12 H :    0.143587
  13 C :   -0.110026
  14 H :    0.117747
  15 H :    0.117093
  16 C :    0.094035
  17 N :   -0.078376
  18 O :   -0.300512
  19 C :   -0.285873
  20 H :    0.122307
  21 H :    0.128070
  22 H :    0.156967
  23 C :   -0.278908
  24 H :    0.121138
  25 H :    0.155875
  26 H :    0.127417
  27 O :   -0.252185
  28 C :   -0.212369
  29 H :    0.109088
  30 H :    0.126676
  31 H :    0.121573

-------------------------------
LOEWDIN REDUCED ORBITAL CHARGES
-------------------------------
  0 C s       :     2.981422  s :     2.981422
      pz      :     1.120893  p :     3.344656
      px      :     1.134999
      py      :     1.088764
      dz2     :     0.003916  d :     0.063394
      dxz     :     0.015312
      dyz     :     0.020137
      dx2y2   :     0.012722
      dxy     :     0.011307
  1 H s       :     0.858451  s :     0.858451
  2 H s       :     0.851232  s :     0.851232
  3 H s       :     0.845676  s :     0.845676
  4 C s       :     2.849021  s :     2.849021
      pz      :     0.849971  p :     2.784199
      px      :     0.931696
      py      :     1.002532
      dz2     :     0.020306  d :     0.254579
      dxz     :     0.039041
      dyz     :     0.040062
      dx2y2   :     0.093280
      dxy     :     0.061889
  5 O s       :     3.568744  s :     3.568744
      pz      :     1.528661  p :     4.672146
      px      :     1.634201
      py      :     1.509284
      dz2     :     0.006493  d :     0.053013
      dxz     :     0.004390
      dyz     :     0.009328
      dx2y2   :     0.013690
      dxy     :     0.019112
  6 N s       :     3.094838  s :     3.094838
      pz      :     1.459766  p :     3.888300
      px      :     1.224847
      py      :     1.203687
      dz2     :     0.011432  d :     0.095404
      dxz     :     0.015585
      dyz     :     0.014498
      dx2y2   :     0.027478
      dxy     :     0.026411
  7 C s       :     2.931096  s :     2.931096
      pz      :     1.059829  p :     3.136927
      px      :     1.058106
      py      :     1.018993
      dz2     :     0.030508  d :     0.110048
      dxz     :     0.012571
      dyz     :     0.020557
      dx2y2   :     0.016075
      dxy     :     0.030337
  8 H s       :     0.858286  s :     0.858286
  9 H s       :     0.841233  s :     0.841233
 10 C s       :     2.930001  s :     2.930001
      pz      :     1.105450  p :     3.131737
      px      :     1.038431
      py      :     0.987856
      dz2     :     0.022138  d :     0.113597
      dxz     :     0.029646
      dyz     :     0.011260
      dx2y2   :     0.016558
      dxy     :     0.033993
 11 H s       :     0.865320  s :     0.865320
 12 H s       :     0.856413  s :     0.856413
 13 C s       :     2.936276  s :     2.936276
      pz      :     1.076825  p :     3.033772
      px      :     0.980054
      py      :     0.976893
      dz2     :     0.024127  d :     0.139978
      dxz     :     0.037278
      dyz     :     0.015278
      dx2y2   :     0.025224
      dxy     :     0.038071
 14 H s       :     0.882253  s :     0.882253
 15 H s       :     0.882907  s :     0.882907
 16 C s       :     2.853536  s :     2.853536
      pz      :     0.920500  p :     2.797720
      px      :     1.014377
      py      :     0.862842
      dz2     :     0.068037  d :     0.254709
      dxz     :     0.052537
      dyz     :     0.041716
      dx2y2   :     0.054707
      dxy     :     0.037712
 17 N s       :     3.089651  s :     3.089651
      pz      :     1.261447  p :     3.891002
      px      :     1.164460
      py      :     1.465095
      dz2     :     0.020507  d :     0.097724
      dxz     :     0.028691
      dyz     :     0.015737
      dx2y2   :     0.018350
      dxy     :     0.014439
 18 O s       :     3.569554  s :     3.569554
      pz      :     1.606590  p :     4.678020
      px      :     1.559404
      py      :     1.512027
      dz2     :     0.007804  d :     0.052938
      dxz     :     0.016705
      dyz     :     0.004616
      dx2y2   :     0.012061
      dxy     :     0.011752
 19 C s       :     2.962770  s :     2.962770
      pz      :     1.065897  p :     3.226354
      px      :     1.030219
      py      :     1.130238
      dz2     :     0.017001  d :     0.096749
      dxz     :     0.025680
      dyz     :     0.018301
      dx2y2   :     0.025271
      dxy     :     0.010496
 20 H s       :     0.877693  s :     0.877693
 21 H s       :     0.871930  s :     0.871930
 22 H s       :     0.843033  s :     0.843033
 23 C s       :     2.962512  s :     2.962512
      pz      :     1.118531  p :     3.220689
      px      :     0.982550
      py      :     1.119607
      dz2     :     0.011957  d :     0.095708
      dxz     :     0.026883
      dyz     :     0.015416
      dx2y2   :     0.027076
      dxy     :     0.014376
 24 H s       :     0.878862  s :     0.878862
 25 H s       :     0.844125  s :     0.844125
 26 H s       :     0.872583  s :     0.872583
 27 O s       :     3.502189  s :     3.502189
      pz      :     1.776880  p :     4.686983
      px      :     1.330130
      py      :     1.579972
      dz2     :     0.007743  d :     0.063012
      dxz     :     0.012009
      dyz     :     0.006795
      dx2y2   :     0.014561
      dxy     :     0.021905
 28 C s       :     2.977683  s :     2.977683
      pz      :     1.093063  p :     3.115885
      px      :     0.900085
      py      :     1.122737
[...]
     61      -0.000709  -0.000765   0.027044  -0.000472   0.074546   0.013990
     62      -0.001409  -0.001333   0.037694  -0.000718   0.103929   0.019910
     63       0.000080   0.000026   0.000120  -0.000085   0.002857   0.001856
     64      -0.000949   0.001475  -0.061823   0.000825  -0.180653  -0.032398
     65       0.000103  -0.000405   0.009735  -0.000165   0.030202   0.005322
     66       0.003963   0.003256   0.253179  -0.004090   0.775382   0.147055
     67      -0.000905  -0.000786  -0.065124   0.000848  -0.193810  -0.036298
     68       0.002251   0.001792   0.137428  -0.002364   0.421919   0.079415
     69       0.000106   0.000198   0.000853  -0.000052   0.010310  -0.053439
     70       0.000091  -0.000341   0.000347   0.000021   0.004961  -0.026073
     71       0.000115  -0.000177  -0.000574   0.000087  -0.012295   0.065089
     72      -0.000420   0.000130  -0.000098  -0.000078   0.005893  -0.027530
     73      -0.001182   0.000478   0.000035  -0.000215   0.015236  -0.078428
     74      -0.001827   0.001266  -0.000675  -0.000376   0.019469  -0.101026
     75      -0.000434  -0.002071  -0.007305   0.000612  -0.121515   0.665917
     76      -0.000119  -0.000997  -0.001972   0.000222  -0.034579   0.185641
     77       0.000576   0.002080   0.007025  -0.000648   0.119196  -0.646466
     78      -0.000055   0.000101   0.000100  -0.000009   0.001476  -0.002035
     79       0.000201   0.004222  -0.002512  -0.000215  -0.042046   0.210576
     80      -0.000066  -0.001036   0.000450   0.000055   0.007971  -0.040587
     81      -0.000257   0.000232   0.000024   0.000025  -0.000041   0.000013
     82      -0.000124  -0.000307   0.000007  -0.000016   0.000001  -0.000002
     83      -0.000117  -0.000215   0.000011  -0.000020  -0.000013  -0.000001
     84      -0.018661   0.040573  -0.000122  -0.000076   0.000038  -0.000009
     85      -0.034580   0.072867  -0.000098   0.000003  -0.000109   0.000189
     86       0.000230   0.006155  -0.000118   0.000011   0.000025  -0.000104
     87      -0.032826   0.062704   0.000311   0.000435  -0.000560   0.000766
     88       0.038230  -0.066654  -0.000442  -0.000511   0.000659  -0.000966
     89      -0.046520   0.083659   0.000423   0.000416  -0.000700   0.001034
     90       0.238190  -0.487795   0.000780   0.000595   0.000216  -0.000799
     91       0.329075  -0.677155   0.001080   0.000693   0.000413  -0.001238
     92      -0.052019   0.107493  -0.000165  -0.000136  -0.000045   0.000204
     93       0.018025  -0.051643   0.000208  -0.000050   0.000076   0.000044
     94       0.040232  -0.117990   0.000579  -0.000150   0.000096   0.000034
     95       0.094635  -0.265305   0.001188  -0.000339   0.000363  -0.000022


-----------
IR SPECTRUM
-----------

 Mode   freq       eps      Int      T**2         TX        TY        TZ
       cm**-1   L/(mol*cm) km/mol    a.u.
----------------------------------------------------------------------------
  6:     33.22   0.000316    1.60  0.002966  (-0.009792 -0.029882 -0.044467)
  7:     57.96   0.000554    2.80  0.002983  (-0.007943  0.047814  0.025177)
  8:     60.44   0.000436    2.20  0.002249  (-0.039520 -0.026189 -0.001316)
  9:     82.91   0.000238    1.20  0.000895  ( 0.010781  0.002516  0.027789)
 10:     86.86   0.000375    1.90  0.001348  (-0.022117  0.005917  0.028706)
 11:     99.40   0.000237    1.20  0.000743  ( 0.006664 -0.017100 -0.020166)
 12:    111.65   0.001887    9.54  0.005275  ( 0.039125 -0.048709  0.037032)
 13:    129.33   0.000620    3.13  0.001496  (-0.028031  0.016270 -0.021118)
 14:    144.34   0.000317    1.60  0.000686  (-0.013441  0.021064  0.007861)
 15:    149.42   0.000306    1.55  0.000639  ( 0.022350 -0.009121  0.007480)
 16:    169.91   0.000046    0.23  0.000084  (-0.001253 -0.001057  0.009026)
 17:    177.78   0.000507    2.56  0.000890  (-0.000728  0.022684  0.019370)
 18:    227.76   0.000254    1.28  0.000348  (-0.000330  0.016519  0.008661)
 19:    243.44   0.000539    2.72  0.000691  (-0.019890  0.017125 -0.001490)
 20:    280.50   0.001369    6.92  0.001523  ( 0.006953 -0.037739 -0.007099)
 21:    320.41   0.000483    2.44  0.000471  ( 0.013353  0.005117  0.016316)
 22:    365.64   0.002576   13.02  0.002198  ( 0.021372 -0.013891  0.039354)
 23:    371.20   0.000858    4.34  0.000722  ( 0.010333  0.016214 -0.018759)
 24:    384.67   0.001688    8.53  0.001370  (-0.025574  0.011805 -0.024002)
 25:    429.66   0.000013    0.06  0.000009  ( 0.002871  0.000825  0.000481)
 26:    451.42   0.002473   12.50  0.001710  (-0.008991 -0.036095 -0.018052)
 27:    471.18   0.000816    4.13  0.000541  (-0.022687  0.001091  0.004980)
 28:    490.46   0.002259   11.41  0.001437  (-0.010634  0.028137  0.023073)
 29:    582.88   0.001720    8.69  0.000921  ( 0.024705 -0.009983  0.014522)
 30:    596.21   0.002441   12.33  0.001278  ( 0.031487 -0.003978  0.016440)
 31:    636.97   0.002482   12.54  0.001216  (-0.016452 -0.015916  0.026305)
 32:    703.09   0.000328    1.66  0.000146  (-0.002625 -0.010354  0.005616)
 33:    767.21   0.001498    7.57  0.000609  (-0.015130  0.016003 -0.011155)
 34:    794.19   0.001878    9.49  0.000738  (-0.013662  0.022162  0.007749)
 35:    830.44   0.002879   14.55  0.001082  ( 0.003427  0.029450 -0.014238)
 36:    955.26   0.001946    9.83  0.000636  (-0.003062  0.024475  0.005225)
 37:    971.87   0.001987   10.04  0.000638  (-0.004360  0.021561  0.012410)
 38:   1005.17   0.002999   15.16  0.000931  (-0.012471 -0.021229  0.018024)
 39:   1012.34   0.006525   32.97  0.002011  (-0.036739  0.006816 -0.024801)
 40:   1040.93   0.000782    3.95  0.000234  (-0.007931  0.012948  0.001969)
 41:   1063.87   0.000828    4.18  0.000243  (-0.013304  0.007996 -0.001390)
 42:   1066.31   0.003619   18.29  0.001059  ( 0.010645 -0.004215 -0.030466)
 43:   1095.53   0.000975    4.93  0.000278  (-0.016330 -0.003146 -0.001019)
 44:   1121.17   0.013509   68.27  0.003760  (-0.048806 -0.032845  0.017299)
 45:   1140.94   0.000129    0.65  0.000035  ( 0.004973 -0.002590 -0.001983)
 46:   1150.29   0.012557   63.46  0.003406  ( 0.054938 -0.018466  0.006872)
 47:   1183.16   0.003751   18.96  0.000989  (-0.014053 -0.017121  0.022334)
 48:   1189.37   0.001037    5.24  0.000272  (-0.003967 -0.014801  0.006100)
 49:   1201.83   0.014607   73.82  0.003793  ( 0.046462  0.017183 -0.036590)
 50:   1232.80   0.008072   40.79  0.002043  ( 0.038724  0.020327  0.011431)
 51:   1245.02   0.001809    9.14  0.000453  ( 0.020767 -0.001335  0.004515)
 52:   1285.87   0.009633   48.68  0.002338  (-0.034973  0.013263  0.030640)
 53:   1291.26   0.014020   70.85  0.003388  (-0.054420  0.018105 -0.009954)
 54:   1311.56   0.004631   23.41  0.001102  (-0.023673  0.020635  0.010760)
 55:   1346.14   0.003995   20.19  0.000926  ( 0.030024 -0.004959 -0.000322)
 56:   1360.99   0.000754    3.81  0.000173  (-0.007992 -0.007102 -0.007658)
 57:   1383.22   0.002437   12.31  0.000550  (-0.018013 -0.014620 -0.003400)
 58:   1417.27   0.001442    7.28  0.000317  ( 0.000156  0.012630  0.012564)
 59:   1437.50   0.001262    6.38  0.000274  ( 0.014092 -0.006744 -0.005478)
 60:   1448.17   0.007522   38.01  0.001621  ( 0.009126 -0.025729  0.029589)
 61:   1461.16   0.019472   98.40  0.004159  ( 0.047356 -0.036486  0.024185)
 62:   1471.45   0.025748  130.12  0.005461  ( 0.067629  0.007348 -0.028860)
 63:   1494.42   0.003195   16.15  0.000667  ( 0.019670  0.016642 -0.001820)
 64:   1500.46   0.001149    5.81  0.000239  (-0.007784 -0.000181 -0.013354)
 65:   1505.87   0.000348    1.76  0.000072  (-0.000460 -0.002053 -0.008223)
 66:   1516.93   0.001699    8.58  0.000349  ( 0.003135  0.002432 -0.018268)
 67:   1517.10   0.000110    0.55  0.000023  ( 0.000190  0.004631 -0.001044)
 68:   1519.04   0.003410   17.23  0.000701  (-0.017196  0.019454  0.005138)
 69:   1523.67   0.000836    4.22  0.000171  ( 0.012805  0.002427 -0.001129)
 70:   1530.07   0.005626   28.43  0.001147  (-0.026590 -0.003284  0.020728)
 71:   1533.00   0.002853   14.42  0.000581  (-0.003187 -0.014127 -0.019261)
 72:   1536.47   0.001835    9.27  0.000373  ( 0.013428  0.013766  0.001690)
 73:   1538.78   0.003988   20.15  0.000809  (-0.005505 -0.027044  0.006860)
 74:   1542.45   0.001613    8.15  0.000326  ( 0.005373  0.012215  0.012175)
 75:   1569.23   0.009198   46.48  0.001829  ( 0.020443 -0.017716  0.033125)
 76:   1745.58   0.032861  166.07  0.005875  (-0.032984 -0.023025  0.065243)
 77:   1748.25   0.082578  417.31  0.014740  (-0.084670 -0.081358  0.030854)
 78:   3006.48   0.009167   46.32  0.000951  (-0.029090  0.010134 -0.001585)
 79:   3018.94   0.004790   24.20  0.000495  ( 0.015852  0.005370 -0.014661)
 80:   3026.66   0.013714   69.31  0.001414  (-0.013306  0.007220 -0.034422)
 81:   3036.38   0.007921   40.03  0.000814  (-0.002073 -0.019665  0.020569)
 82:   3060.73   0.000570    2.88  0.000058  ( 0.000223  0.007476  0.001461)
 83:   3073.00   0.005660   28.60  0.000575  (-0.004476  0.009055 -0.021743)
 84:   3073.29   0.008832   44.63  0.000897  ( 0.001969  0.029546  0.004462)
 85:   3082.18   0.003183   16.09  0.000322  (-0.004299  0.006774  0.016060)
 86:   3083.57   0.008773   44.33  0.000888  (-0.007061  0.028246  0.006334)
 87:   3084.07   0.004032   20.38  0.000408  (-0.015051  0.002911  0.013151)
 88:   3089.37   0.006782   34.27  0.000685  (-0.001772  0.020845 -0.015728)
 89:   3125.25   0.002117   10.70  0.000211  ( 0.005928 -0.000063  0.013275)
 90:   3136.65   0.005104   25.79  0.000508  (-0.021436  0.001715  0.006731)
 91:   3139.79   0.007338   37.08  0.000729  ( 0.007973  0.025693  0.002363)
 92:   3166.84   0.000476    2.40  0.000047  (-0.004280  0.005009 -0.001857)
 93:   3177.01   0.001287    6.51  0.000126  ( 0.010052  0.004518 -0.002232)
 94:   3186.58   0.001792    9.06  0.000175  ( 0.008889 -0.009808  0.000515)
 95:   3190.85   0.000134    0.68  0.000013  (-0.003464 -0.000854  0.000596)

* The epsilon (eps) is given for a Dirac delta lineshape.
** The dipole moment derivative (T) already includes vibrational overlap.

The first frequency considered to be a vibration is 6
The total number of vibrations considered is 90


--------------------------
THERMOCHEMISTRY AT 298.15K
--------------------------

Temperature         ... 298.15 K
Pressure            ... 1.00 atm
Total Mass          ... 202.25 AMU

Throughout the following assumptions are being made:
  (1) The electronic state is orbitally nondegenerate
  (2) There are no thermally accessible electronically excited states
  (3) Hindered rotations indicated by low frequency modes are not
      treated as such but are treated as vibrations and this may
      cause some error
  (4) All equations used are the standard statistical mechanics
      equations for an ideal gas
  (5) All vibrations are strictly harmonic

freq.      33.22  E(vib)   ...       0.55 
freq.      57.96  E(vib)   ...       0.51 
freq.      60.44  E(vib)   ...       0.51 
freq.      82.91  E(vib)   ...       0.48 
freq.      86.86  E(vib)   ...       0.48 
freq.      99.40  E(vib)   ...       0.46 
freq.     111.65  E(vib)   ...       0.45 
freq.     129.33  E(vib)   ...       0.43 
freq.     144.34  E(vib)   ...       0.41 
freq.     149.42  E(vib)   ...       0.40 
freq.     169.91  E(vib)   ...       0.38 
freq.     177.78  E(vib)   ...       0.37 
freq.     227.76  E(vib)   ...       0.33 
freq.     243.44  E(vib)   ...       0.31 
freq.     280.50  E(vib)   ...       0.28 
freq.     320.41  E(vib)   ...       0.25 
freq.     365.64  E(vib)   ...       0.22 
freq.     371.20  E(vib)   ...       0.21 
freq.     384.67  E(vib)   ...       0.20 
freq.     429.66  E(vib)   ...       0.18 
freq.     451.42  E(vib)   ...       0.16 
freq.     471.18  E(vib)   ...       0.15 
freq.     490.46  E(vib)   ...       0.15 
freq.     582.88  E(vib)   ...       0.11 
freq.     596.21  E(vib)   ...       0.10 
freq.     636.97  E(vib)   ...       0.09 
freq.     703.09  E(vib)   ...       0.07 
freq.     767.21  E(vib)   ...       0.06 
freq.     794.19  E(vib)   ...       0.05 
freq.     830.44  E(vib)   ...       0.04 
freq.     955.26  E(vib)   ...       0.03 
freq.     971.87  E(vib)   ...       0.03 
freq.    1005.17  E(vib)   ...       0.02 
freq.    1012.34  E(vib)   ...       0.02 
freq.    1040.93  E(vib)   ...       0.02 
freq.    1063.87  E(vib)   ...       0.02 
freq.    1066.31  E(vib)   ...       0.02 
freq.    1095.53  E(vib)   ...       0.02 
freq.    1121.17  E(vib)   ...       0.01 
freq.    1140.94  E(vib)   ...       0.01 
freq.    1150.29  E(vib)   ...       0.01 
freq.    1183.16  E(vib)   ...       0.01 
freq.    1189.37  E(vib)   ...       0.01 
freq.    1201.83  E(vib)   ...       0.01 
freq.    1232.80  E(vib)   ...       0.01 
freq.    1245.02  E(vib)   ...       0.01 
freq.    1285.87  E(vib)   ...       0.01 
freq.    1291.26  E(vib)   ...       0.01 
freq.    1311.56  E(vib)   ...       0.01 
freq.    1346.14  E(vib)   ...       0.01 
freq.    1360.99  E(vib)   ...       0.01 
freq.    1383.22  E(vib)   ...       0.00 
freq.    1417.27  E(vib)   ...       0.00 
freq.    1437.50  E(vib)   ...       0.00 
freq.    1448.17  E(vib)   ...       0.00 
freq.    1461.16  E(vib)   ...       0.00 
freq.    1471.45  E(vib)   ...       0.00 
freq.    1494.42  E(vib)   ...       0.00 
freq.    1500.46  E(vib)   ...       0.00 
freq.    1505.87  E(vib)   ...       0.00 
freq.    1516.93  E(vib)   ...       0.00 
freq.    1517.10  E(vib)   ...       0.00 
freq.    1519.04  E(vib)   ...       0.00 
freq.    1523.67  E(vib)   ...       0.00 
freq.    1530.07  E(vib)   ...       0.00 
freq.    1533.00  E(vib)   ...       0.00 
freq.    1536.47  E(vib)   ...       0.00 
freq.    1538.78  E(vib)   ...       0.00 
freq.    1542.45  E(vib)   ...       0.00 
freq.    1569.23  E(vib)   ...       0.00 
freq.    1745.58  E(vib)   ...       0.00 
freq.    1748.25  E(vib)   ...       0.00 
freq.    3006.48  E(vib)   ...       0.00 
freq.    3018.94  E(vib)   ...       0.00 
freq.    3026.66  E(vib)   ...       0.00 
freq.    3036.38  E(vib)   ...       0.00 
freq.    3060.73  E(vib)   ...       0.00 
freq.    3073.00  E(vib)   ...       0.00 
freq.    3073.29  E(vib)   ...       0.00 
freq.    3082.18  E(vib)   ...       0.00 
freq.    3083.57  E(vib)   ...       0.00 
freq.    3084.07  E(vib)   ...       0.00 
freq.    3089.37  E(vib)   ...       0.00 
freq.    3125.25  E(vib)   ...       0.00 
freq.    3136.65  E(vib)   ...       0.00 
freq.    3139.79  E(vib)   ...       0.00 
freq.    3166.84  E(vib)   ...       0.00 
freq.    3177.01  E(vib)   ...       0.00 
freq.    3186.58  E(vib)   ...       0.00 
freq.    3190.85  E(vib)   ...       0.00 

------------
INNER ENERGY
------------

The inner energy is: U= E(el) + E(ZPE) + E(vib) + E(rot) + E(trans)
    E(el)   - is the total energy from the electronic structure calculation
              = E(kin-el) + E(nuc-el) + E(el-el) + E(nuc-nuc)
    E(ZPE)  - the the zero temperature vibrational energy from the frequency calculation
    E(vib)  - the the finite temperature correction to E(ZPE) due to population
              of excited vibrational states
    E(rot)  - is the rotational thermal energy
    E(trans)- is the translational thermal energy

Summary of contributions to the inner energy U:
Electronic energy                ...   -688.60602428 Eh
Zero point energy                ...      0.27843762 Eh     174.72 kcal/mol
Thermal vibrational correction   ...      0.01393577 Eh       8.74 kcal/mol
Thermal rotational correction    ...      0.00141627 Eh       0.89 kcal/mol
Thermal translational correction ...      0.00141627 Eh       0.89 kcal/mol
-----------------------------------------------------------------------
Total thermal energy                   -688.31081834 Eh


Summary of corrections to the electronic energy:
(perhaps to be used in another calculation)
Total thermal correction                  0.01676832 Eh      10.52 kcal/mol
Non-thermal (ZPE) correction              0.27843762 Eh     174.72 kcal/mol
-----------------------------------------------------------------------
Total correction                          0.29520593 Eh     185.24 kcal/mol


--------
ENTHALPY
--------

The enthalpy is H = U + kB*T
                kB is Boltzmann's constant
Total free energy                 ...   -688.31081834 Eh 
Thermal Enthalpy correction       ...      0.00094421 Eh       0.59 kcal/mol
-----------------------------------------------------------------------
Total Enthalpy                    ...   -688.30987414 Eh


Note: Only C1 symmetry has been detected, increase convergence thresholds 
      if your molecule has a higher symmetry. Symmetry factor of 1.0 is   
      used for the rotational entropy correction. 
 

Note: Rotational entropy computed according to Herzberg 
Infrared and Raman Spectra, Chapter V,1, Van Nostrand Reinhold, 1945 
Point Group:  C1, Symmetry Number:   1  
Rotational constants in cm-1:     0.023661     0.020391     0.013488 

Vibrational entropy computed according to the QRRHO of S. Grimme
Chem.Eur.J. 2012 18 9955


-------
ENTROPY
-------

The entropy contributions are T*S = T*(S(el)+S(vib)+S(rot)+S(trans))
     S(el)   - electronic entropy
     S(vib)  - vibrational entropy
     S(rot)  - rotational entropy
     S(trans)- translational entropy
The entropies will be listed as multiplied by the temperature to get
units of energy

Electronic entropy                ...      0.00000000 Eh      0.00 kcal/mol
Vibrational entropy               ...      0.02526612 Eh     15.85 kcal/mol
Rotational entropy                ...      0.01514877 Eh      9.51 kcal/mol
Translational entropy             ...      0.01986880 Eh     12.47 kcal/mol
-----------------------------------------------------------------------
Final entropy term                ...      0.06028368 Eh     37.83 kcal/mol

In case the symmetry of your molecule has not been determined correctly
or in case you have a reason to use a different symmetry number we print 
out the resulting rotational entropy values for sn=1,12 :
 --------------------------------------------------------
|  sn= 1 | S(rot)=       0.01514877 Eh      9.51 kcal/mol|
|  sn= 2 | S(rot)=       0.01449431 Eh      9.10 kcal/mol|
|  sn= 3 | S(rot)=       0.01411148 Eh      8.86 kcal/mol|
|  sn= 4 | S(rot)=       0.01383986 Eh      8.68 kcal/mol|
|  sn= 5 | S(rot)=       0.01362917 Eh      8.55 kcal/mol|
|  sn= 6 | S(rot)=       0.01345702 Eh      8.44 kcal/mol|
|  sn= 7 | S(rot)=       0.01331148 Eh      8.35 kcal/mol|
|  sn= 8 | S(rot)=       0.01318540 Eh      8.27 kcal/mol|
|  sn= 9 | S(rot)=       0.01307419 Eh      8.20 kcal/mol|
|  sn=10 | S(rot)=       0.01297471 Eh      8.14 kcal/mol|
|  sn=11 | S(rot)=       0.01288472 Eh      8.09 kcal/mol|
|  sn=12 | S(rot)=       0.01280257 Eh      8.03 kcal/mol|
 --------------------------------------------------------


-------------------
GIBBS FREE ENERGY
-------------------

The Gibbs free energy is G = H - T*S

Total enthalpy                    ...   -688.30987414 Eh 
Total entropy correction          ...     -0.06028368 Eh    -37.83 kcal/mol
-----------------------------------------------------------------------
Final Gibbs free energy         ...   -688.37015782 Eh

For completeness - the Gibbs free energy minus the electronic energy
G-E(el)                           ...      0.23586646 Eh    148.01 kcal/mol


Timings for individual modules:

Sum of individual times         ...     1161.514 sec (=  19.359 min)
GTO integral calculation        ...       13.678 sec (=   0.228 min)   1.2 %
SCF iterations                  ...      492.576 sec (=   8.210 min)  42.4 %
SCF Gradient evaluation         ...      148.554 sec (=   2.476 min)  12.8 %
Geometry relaxation             ...        0.955 sec (=   0.016 min)   0.1 %
Analytical frequency calculation...      505.751 sec (=   8.429 min)  43.5 %
                             ****ORCA TERMINATED NORMALLY****
TOTAL RUN TIME: 0 days 0 hours 19 minutes 25 seconds 682 msec
