
                                 *****************
                                 * O   R   C   A *
                                 *****************

                                            #,                                       
                                            ###                                      
                                            ####                                     
                                            #####                                    
                                            ######                                   
                                           ########,                                 
                                     ,,################,,,,,                         
                               ,,#################################,,                 
                          ,,##########################################,,             
                       ,#########################################, ''#####,          
                    ,#############################################,,   '####,        
                  ,##################################################,,,,####,       
                ,###########''''           ''''###############################       
              ,#####''   ,,,,##########,,,,          '''####'''          '####       
            ,##' ,,,,###########################,,,                        '##       
           ' ,,###''''                  '''############,,,                           
         ,,##''                                '''############,,,,        ,,,,,,###''
      ,#''                                            '''#######################'''  
     '                                                          ''''####''''         
             ,#######,   #######,   ,#######,      ##                                
            ,#'     '#,  ##    ##  ,#'     '#,    #''#        ######   ,####,        
            ##       ##  ##   ,#'  ##            #'  '#       #        #'  '#        
            ##       ##  #######   ##           ,######,      #####,   #    #        
            '#,     ,#'  ##    ##  '#,     ,#' ,#      #,         ##   #,  ,#        
             '#######'   ##     ##  '#######'  #'      '#     #####' # '####'        



                  #######################################################
                  #                        -***-                        #
                  #          Department of theory and spectroscopy      #
                  #    Directorship and core code : Frank Neese         #
                  #        Max Planck Institute fuer Kohlenforschung    #
                  #                Kaiser Wilhelm Platz 1               #
                  #                 D-45470 Muelheim/Ruhr               #
                  #                      Germany                        #
                  #                                                     #
                  #                  All rights reserved                #
                  #                        -***-                        #
                  #######################################################


                         Program Version 5.0.4 -  RELEASE  -


 With contributions from (in alphabetic order):
   Daniel Aravena         : Magnetic Suceptibility
   Michael Atanasov       : Ab Initio Ligand Field Theory (pilot matlab implementation)
   Alexander A. Auer      : GIAO ZORA, VPT2 properties, NMR spectrum
   Ute Becker             : Parallelization
   Giovanni Bistoni       : ED, misc. LED, open-shell LED, HFLD
   Martin Brehm           : Molecular dynamics
   Dmytro Bykov           : SCF Hessian
   Vijay G. Chilkuri      : MRCI spin determinant printing, contributions to CSF-ICE
   Dipayan Datta          : RHF DLPNO-CCSD density
   Achintya Kumar Dutta   : EOM-CC, STEOM-CC
   Dmitry Ganyushin       : Spin-Orbit,Spin-Spin,Magnetic field MRCI
   Miquel Garcia          : C-PCM and meta-GGA Hessian, CC/C-PCM, Gaussian charge scheme
   Yang Guo               : DLPNO-NEVPT2, F12-NEVPT2, CIM, IAO-localization
   Andreas Hansen         : Spin unrestricted coupled pair/coupled cluster methods
   Benjamin Helmich-Paris : MC-RPA, TRAH-SCF, COSX integrals
   Lee Huntington         : MR-EOM, pCC
   Robert Izsak           : Overlap fitted RIJCOSX, COSX-SCS-MP3, EOM
   Marcus Kettner         : VPT2
   Christian Kollmar      : KDIIS, OOCD, Brueckner-CCSD(T), CCSD density, CASPT2, CASPT2-K
   Simone Kossmann        : Meta GGA functionals, TD-DFT gradient, OOMP2, MP2 Hessian
   Martin Krupicka        : Initial AUTO-CI
   Lucas Lang             : DCDCAS
   Marvin Lechner         : AUTO-CI (C++ implementation), FIC-MRCC
   Dagmar Lenk            : GEPOL surface, SMD
   Dimitrios Liakos       : Extrapolation schemes; Compound Job, initial MDCI parallelization
   Dimitrios Manganas     : Further ROCIS development; embedding schemes
   Dimitrios Pantazis     : SARC Basis sets
   Anastasios Papadopoulos: AUTO-CI, single reference methods and gradients
   Taras Petrenko         : DFT Hessian,TD-DFT gradient, ASA, ECA, R-Raman, ABS, FL, XAS/XES, NRVS
   Peter Pinski           : DLPNO-MP2, DLPNO-MP2 Gradient
   Christoph Reimann      : Effective Core Potentials
   Marius Retegan         : Local ZFS, SOC
   Christoph Riplinger    : Optimizer, TS searches, QM/MM, DLPNO-CCSD(T), (RO)-DLPNO pert. Triples
   Tobias Risthaus        : Range-separated hybrids, TD-DFT gradient, RPA, STAB
   Michael Roemelt        : Original ROCIS implementation
   Masaaki Saitow         : Open-shell DLPNO-CCSD energy and density
   Barbara Sandhoefer     : DKH picture change effects
   Avijit Sen             : IP-ROCIS
   Kantharuban Sivalingam : CASSCF convergence, NEVPT2, FIC-MRCI
   Bernardo de Souza      : ESD, SOC TD-DFT
   Georgi Stoychev        : AutoAux, RI-MP2 NMR, DLPNO-MP2 response
   Willem Van den Heuvel  : Paramagnetic NMR
   Boris Wezisla          : Elementary symmetry handling
   Frank Wennmohs         : Technical directorship


 We gratefully acknowledge several colleagues who have allowed us to
 interface, adapt or use parts of their codes:
   Stefan Grimme, W. Hujo, H. Kruse, P. Pracht,  : VdW corrections, initial TS optimization,
                  C. Bannwarth, S. Ehlert          DFT functionals, gCP, sTDA/sTD-DF
   Ed Valeev, F. Pavosevic, A. Kumar             : LibInt (2-el integral package), F12 methods
   Garnet Chan, S. Sharma, J. Yang, R. Olivares  : DMRG
   Ulf Ekstrom                                   : XCFun DFT Library
   Mihaly Kallay                                 : mrcc  (arbitrary order and MRCC methods)
   Jiri Pittner, Ondrej Demel                    : Mk-CCSD
   Frank Weinhold                                : gennbo (NPA and NBO analysis)
   Christopher J. Cramer and Donald G. Truhlar   : smd solvation model
   Lars Goerigk                                  : TD-DFT with DH, B97 family of functionals
   V. Asgeirsson, H. Jonsson                     : NEB implementation
   FAccTs GmbH                                   : IRC, NEB, NEB-TS, DLPNO-Multilevel, CI-OPT
                                                   MM, QMMM, 2- and 3-layer-ONIOM, Crystal-QMMM,
                                                   LR-CPCM, SF, NACMEs, symmetry and pop. for TD-DFT,
                                                   nearIR, NL-DFT gradient (VV10), updates on ESD,
                                                   ML-optimized integration grids
   S Lehtola, MJT Oliveira, MAL Marques          : LibXC Library
   Liviu Ungur et al                             : ANISO software


 Your calculation uses the libint2 library for the computation of 2-el integrals
 For citations please refer to: http://libint.valeyev.net

 Your ORCA version has been built with support for libXC version: 5.1.0
 For citations please refer to: https://tddft.org/programs/libxc/

 This ORCA versions uses:
   CBLAS   interface :  Fast vector & matrix operations
   LAPACKE interface :  Fast linear algebra routines
   SCALAPACK package :  Parallel linear algebra routines
   Shared memory     :  Shared parallel matrices
   BLAS/LAPACK       :  OpenBLAS 0.3.15  USE64BITINT DYNAMIC_ARCH NO_AFFINITY SkylakeX SINGLE_THREADED
        Core in use  :  SkylakeX
   Copyright (c) 2011-2014, The OpenBLAS Project




***************************************
The coordinates will be read from file: /users/fjb15167/WWenergy/structures/Nab.xyz
***************************************


Your calculation utilizes the atom-pairwise dispersion correction
based on tight binding partial charges (D4)
Cite in your paper:
E.Caldeweyher, C.Bannwarth, S.Grimme, J.Chem.Phys., (2017), 147, 034112.
E.Caldeweyher, S.Ehlert, A.Hansen, H.Neugebauer, S.Grimme, J.Chem.Phys., (2018), in progress.
   

================================================================================

----- Orbital basis set information -----
Your calculation utilizes the basis: 6-31G(d)
   H-He, Li-Ne : W. J. Hehre, R. Ditchfield and J.A. Pople, J. Chem. Phys. 56, 2257 (1972).
                 Note: He and Ne are unpublished basis sets taken from the Gaussian program.
                 Note: Li and B from J. D. Dill and J. A. Pople, J. Chem. Phys. 62, 2921 (1975).
   Na - Ar     : M. M. Francl, W. J. Pietro, W. J. Hehre, J. S. Binkley, M. S. Gordon, 
                 D. J. DeFrees and J. A. Pople, J. Chem. Phys. 77, 3654 (1982).
   K - Zn      : V. A. Rassolov, J. A. Pople, M. A. Ratner, and T. L. Windus, J. Chem. Phys. 109, 1223 (1998).

----- AuxJ basis set information -----
Your calculation utilizes the AutoAux generation procedure.
  G. L. Stoychev, A. A. Auer, F. Neese, J. Chem. Theory Comput. 13, 554 (2017)

----- AuxC basis set information -----
Your calculation utilizes the AutoAux generation procedure.
  G. L. Stoychev, A. A. Auer, F. Neese, J. Chem. Theory Comput. 13, 554 (2017)

----- AuxJK basis set information -----
Your calculation utilizes the AutoAux generation procedure.
  G. L. Stoychev, A. A. Auer, F. Neese, J. Chem. Theory Comput. 13, 554 (2017)

================================================================================
                                        WARNINGS
                       Please study these warnings very carefully!
================================================================================


WARNING: Geometry Optimization
  ===> : Switching off AutoStart
         For restart on a previous wavefunction, please use MOREAD

INFO   : the flag for use of the SHARK integral package has been found!

================================================================================
                                       INPUT FILE
================================================================================
NAME = Nab_water.inp
|  1> ! OPT FREQ B3LYP 6-31G(d) D4 AUTOAUX CPCM(water)
|  2> 
|  3> %PAL NPROCS 4 END
|  4> 
|  5> %maxcore 3375
|  6> 
|  7> *xyzfile 0 1 /users/fjb15167/WWenergy/structures/Nab.xyz
|  8> 
|  9>                          ****END OF INPUT****
================================================================================

                       *****************************
                       * Geometry Optimization Run *
                       *****************************

Geometry optimization settings:
Update method            Update   .... BFGS
Choice of coordinates    CoordSys .... Z-matrix Internals
Initial Hessian          InHess   .... Almoef's Model

Convergence Tolerances:
Energy Change            TolE     ....  5.0000e-06 Eh
Max. Gradient            TolMAXG  ....  3.0000e-04 Eh/bohr
RMS Gradient             TolRMSG  ....  1.0000e-04 Eh/bohr
Max. Displacement        TolMAXD  ....  4.0000e-03 bohr
RMS Displacement         TolRMSD  ....  2.0000e-03 bohr
Strict Convergence                ....  False
------------------------------------------------------------------------------
                        ORCA OPTIMIZATION COORDINATE SETUP
------------------------------------------------------------------------------

The optimization will be done in new redundant internal coordinates
Making redundant internal coordinates   ...  (new redundants) done
Evaluating the initial hessian          ...  (Almloef) done
Evaluating the coordinates              ...  done
Calculating the B-matrix                .... done
Calculating the G-matrix                .... done
Diagonalizing the G-matrix              .... done
Small eigenvalue found = 3.603e-03
Small eigenvalue found = 5.350e-03
Small eigenvalue found = 1.210e-02
Small eigenvalue found = 1.375e-02
Small eigenvalue found = 2.848e-02
The first mode is                       ....   68
The number of degrees of freedom        ....   96

    -----------------------------------------------------------------
                    Redundant Internal Coordinates


    -----------------------------------------------------------------
         Definition                    Initial Value    Approx d2E/dq
    -----------------------------------------------------------------
      1. B(H   1,C   0)                  1.0930         0.356095   
      2. B(H   2,C   0)                  1.0945         0.354184   
      3. B(H   3,C   0)                  1.0895         0.360704   
      4. B(C   4,C   0)                  1.5155         0.394044   
      5. B(O   5,C   4)                  1.2398         0.971816   
      6. B(N   6,C   4)                  1.3720         0.597924   
      7. B(C   7,N   6)                  1.4598         0.433001   
      8. B(H   8,C   7)                  1.0953         0.353193   
      9. B(H   9,C   7)                  1.0905         0.359500   
     10. B(C  10,N   6)                  1.4639         0.426492   
     11. B(H  11,C  10)                  1.0946         0.354076   
     12. B(H  12,C  10)                  1.0947         0.353912   
     13. B(C  13,C  10)                  1.5289         0.375034   
     14. B(H  14,C  13)                  1.0945         0.354181   
     15. B(H  15,C  13)                  1.0974         0.350461   
     16. B(C  16,C   7)                  1.5247         0.380932   
     17. B(N  17,C  16)                  1.3651         0.613190   
     18. B(O  18,C  16)                  1.2404         0.969528   
     19. B(C  19,N  17)                  1.4548         0.441052   
     20. B(H  20,C  19)                  1.0982         0.349420   
     21. B(H  21,C  19)                  1.0954         0.352996   
     22. B(H  22,C  19)                  1.0874         0.363588   
     23. B(C  23,N  17)                  1.4550         0.440665   
     24. B(H  24,C  23)                  1.0973         0.350531   
     25. B(H  25,C  23)                  1.0886         0.361896   
     26. B(H  26,C  23)                  1.0934         0.355629   
     27. B(C  27,C  13)                  1.5276         0.376910   
     28. B(H  28,C  27)                  1.0976         0.350190   
     29. B(H  29,C  27)                  1.0973         0.350622   
     30. B(C  30,C  27)                  1.5258         0.379412   
     31. B(H  31,C  30)                  1.0950         0.353569   
     32. B(H  32,C  30)                  1.0946         0.354004   
     33. B(H  33,C  30)                  1.0937         0.355299   
     34. A(H   3,C   0,C   4)          107.1577         0.327268   
     35. A(H   2,C   0,H   3)          108.7649         0.290160   
     36. A(H   2,C   0,C   4)          110.8424         0.326286   
     37. A(H   1,C   0,C   4)          112.5084         0.326575   
     38. A(H   1,C   0,H   2)          108.0075         0.289576   
     39. A(H   1,C   0,H   3)          109.5018         0.290406   
     40. A(C   0,C   4,N   6)          117.1496         0.395335   
     41. A(C   0,C   4,O   5)          120.8108         0.430932   
     42. A(O   5,C   4,N   6)          122.0377         0.461684   
     43. A(C   4,N   6,C  10)          124.3142         0.398304   
     44. A(C   7,N   6,C  10)          116.5470         0.376517   
     45. A(C   4,N   6,C   7)          118.9375         0.399367   
     46. A(H   8,C   7,C  16)          105.4177         0.324326   
     47. A(N   6,C   7,C  16)          111.2932         0.371583   
     48. A(N   6,C   7,H   9)          107.8286         0.330221   
     49. A(H   8,C   7,H   9)          108.9642         0.289881   
     50. A(N   6,C   7,H   8)          109.7231         0.329257   
     51. A(H   9,C   7,C  16)          113.5558         0.325271   
     52. A(H  12,C  10,C  13)          109.2420         0.323604   
     53. A(H  11,C  10,C  13)          110.1094         0.323629   
     54. A(N   6,C  10,C  13)          113.8368         0.369624   
     55. A(H  11,C  10,H  12)          107.0160         0.289283   
     56. A(N   6,C  10,H  12)          106.9539         0.328545   
     57. A(N   6,C  10,H  11)          109.4175         0.328570   
     58. A(H  14,C  13,H  15)          107.1441         0.288853   
     59. A(H  15,C  13,C  27)          109.7426         0.323349   
     60. A(C  10,C  13,H  15)          109.5407         0.323085   
     61. A(C  10,C  13,H  14)          109.1018         0.323645   
     62. A(H  14,C  13,C  27)          109.3139         0.323910   
     63. A(C  10,C  13,C  27)          111.8783         0.364147   
     64. A(N  17,C  16,O  18)          122.7628         0.463617   
     65. A(C   7,C  16,O  18)          119.3042         0.428142   
     66. A(C   7,C  16,N  17)          117.9229         0.394737   
     67. A(C  16,N  17,C  19)          124.9877         0.402447   
     68. A(C  19,N  17,C  23)          115.3975         0.379862   
     69. A(C  16,N  17,C  23)          118.0879         0.402385   
     70. A(H  21,C  19,H  22)          108.7131         0.290370   
     71. A(H  20,C  19,H  22)          108.5082         0.289906   
     72. A(N  17,C  19,H  22)          111.9299         0.331850   
     73. A(H  20,C  19,H  21)          108.2329         0.288567   
     74. A(N  17,C  19,H  21)          108.8443         0.330230   
     75. A(N  17,C  19,H  20)          110.5267         0.329675   
     76. A(H  25,C  23,H  26)          110.2250         0.290496   
     77. A(H  24,C  23,H  26)          108.6732         0.289046   
     78. A(N  17,C  23,H  26)          109.2554         0.330588   
     79. A(H  24,C  23,H  25)          109.2305         0.289839   
     80. A(N  17,C  23,H  25)          108.6001         0.331545   
     81. A(N  17,C  23,H  24)          110.8530         0.329800   
     82. A(H  29,C  27,C  30)          109.5775         0.323725   
     83. A(H  28,C  27,C  30)          109.7151         0.323659   
     84. A(C  13,C  27,C  30)          112.3592         0.364870   
     85. A(H  28,C  27,H  29)          106.5020         0.288361   
     86. A(C  13,C  27,H  29)          109.0101         0.323373   
     87. A(C  13,C  27,H  28)          109.5025         0.323308   
     88. A(H  32,C  30,H  33)          107.9183         0.289451   
     89. A(H  31,C  30,H  33)          107.9153         0.289395   
     90. A(C  27,C  30,H  33)          111.3736         0.324430   
     91. A(H  31,C  30,H  32)          107.8965         0.289230   
     92. A(C  27,C  30,H  32)          110.9252         0.324235   
     93. A(C  27,C  30,H  31)          110.6720         0.324170   
     94. D(O   5,C   4,C   0,H   2)    110.2917         0.011540   
     95. D(O   5,C   4,C   0,H   1)   -128.6557         0.011540   
     96. D(N   6,C   4,C   0,H   1)     51.8465         0.011540   
     97. D(N   6,C   4,C   0,H   2)    -69.2061         0.011540   
     98. D(O   5,C   4,C   0,H   3)     -8.2490         0.011540   
     99. D(N   6,C   4,C   0,H   3)    172.2532         0.011540   
    100. D(C   7,N   6,C   4,C   0)    173.8549         0.028793   
    101. D(C   7,N   6,C   4,O   5)     -5.6363         0.028793   
    102. D(C  10,N   6,C   4,C   0)     -0.8020         0.028793   
    103. D(C  10,N   6,C   4,O   5)    179.7068         0.028793   
    104. D(H   9,C   7,N   6,C  10)    176.8379         0.015985   
    105. D(H   9,C   7,N   6,C   4)      1.7702         0.015985   
    106. D(H   8,C   7,N   6,C  10)     58.2865         0.015985   
    107. D(C  16,C   7,N   6,C   4)    126.9335         0.015985   
    108. D(H   8,C   7,N   6,C   4)   -116.7812         0.015985   
    109. D(C  16,C   7,N   6,C  10)    -57.9988         0.015985   
    110. D(C  13,C  10,N   6,C   7)     95.0544         0.015508   
    111. D(C  13,C  10,N   6,C   4)    -90.1724         0.015508   
    112. D(H  12,C  10,N   6,C   7)    -25.6994         0.015508   
    113. D(H  12,C  10,N   6,C   4)    149.0738         0.015508   
    114. D(H  11,C  10,N   6,C   7)   -141.2841         0.015508   
    115. D(H  11,C  10,N   6,C   4)     33.4891         0.015508   
    116. D(H  15,C  13,C  10,H  12)    176.4417         0.011226   
    117. D(C  27,C  13,C  10,H  11)     55.6149         0.011226   
    118. D(H  15,C  13,C  10,H  11)    -66.3080         0.011226   
    119. D(H  15,C  13,C  10,N   6)     56.9775         0.011226   
    120. D(H  14,C  13,C  10,H  12)     59.4455         0.011226   
    121. D(C  27,C  13,C  10,N   6)    178.9004         0.011226   
    122. D(H  14,C  13,C  10,H  11)    176.6958         0.011226   
    123. D(C  27,C  13,C  10,H  12)    -61.6354         0.011226   
    124. D(H  14,C  13,C  10,N   6)    -60.0187         0.011226   
    125. D(O  18,C  16,C   7,H   9)   -135.9387         0.010825   
    126. D(O  18,C  16,C   7,H   8)    -16.7306         0.010825   
    127. D(O  18,C  16,C   7,N   6)    102.1644         0.010825   
    128. D(N  17,C  16,C   7,H   9)     45.1816         0.010825   
    129. D(N  17,C  16,C   7,H   8)    164.3898         0.010825   
    130. D(N  17,C  16,C   7,N   6)    -76.7153         0.010825   
    131. D(C  23,N  17,C  16,O  18)     -4.2102         0.030395   
    132. D(C  23,N  17,C  16,C   7)    174.6280         0.030395   
    133. D(C  19,N  17,C  16,O  18)   -169.4290         0.030395   
    134. D(C  19,N  17,C  16,C   7)      9.4091         0.030395   
    135. D(H  22,C  19,N  17,C  16)    -20.2110         0.016588   
    136. D(H  21,C  19,N  17,C  23)     54.0282         0.016588   
    137. D(H  21,C  19,N  17,C  16)   -140.3997         0.016588   
    138. D(H  20,C  19,N  17,C  23)    -64.7093         0.016588   
    139. D(H  22,C  19,N  17,C  23)    174.2168         0.016588   
    140. D(H  20,C  19,N  17,C  16)    100.8628         0.016588   
    141. D(H  26,C  23,N  17,C  19)    -53.0628         0.016559   
    142. D(H  26,C  23,N  17,C  16)    140.3156         0.016559   
    143. D(H  25,C  23,N  17,C  19)   -173.3234         0.016559   
    144. D(H  25,C  23,N  17,C  16)     20.0550         0.016559   
    145. D(H  24,C  23,N  17,C  19)     66.6716         0.016559   
    146. D(H  24,C  23,N  17,C  16)    -99.9500         0.016559   
    147. D(C  30,C  27,C  13,H  15)    -59.1346         0.011332   
    148. D(C  30,C  27,C  13,H  14)     58.1004         0.011332   
    149. D(C  30,C  27,C  13,C  10)    179.0584         0.011332   
    150. D(H  29,C  27,C  13,H  15)    179.2013         0.011332   
    151. D(H  29,C  27,C  13,H  14)    -63.5637         0.011332   
    152. D(H  29,C  27,C  13,C  10)     57.3943         0.011332   
    153. D(H  28,C  27,C  13,H  15)     63.0502         0.011332   
    154. D(H  28,C  27,C  13,H  14)   -179.7148         0.011332   
    155. D(H  28,C  27,C  13,C  10)    -58.7568         0.011332   
    156. D(H  31,C  30,C  27,C  13)    -59.7430         0.011475   
    157. D(H  33,C  30,C  27,H  28)     58.1448         0.011475   
    158. D(H  33,C  30,C  27,C  13)   -179.7911         0.011475   
    159. D(H  32,C  30,C  27,H  29)   -178.6734         0.011475   
    160. D(H  32,C  30,C  27,H  28)    -62.0775         0.011475   
    161. D(H  32,C  30,C  27,C  13)     59.9866         0.011475   
    162. D(H  31,C  30,C  27,H  29)     61.5970         0.011475   
    163. D(H  33,C  30,C  27,H  29)    -58.4510         0.011475   
    164. D(H  31,C  30,C  27,H  28)    178.1929         0.011475   
    -----------------------------------------------------------------

Number of atoms                         .... 34
Number of degrees of freedom            .... 164

         *************************************************************
         *                GEOMETRY OPTIMIZATION CYCLE   1            *
         *************************************************************
---------------------------------
CARTESIAN COORDINATES (ANGSTROEM)
---------------------------------
  C     -0.488000    3.158000   -0.634000
  H      0.413000    2.847000   -1.169000
  H     -0.183000    3.803000    0.196000
  H     -1.130000    3.729000   -1.304000
  C     -1.300000    1.981000   -0.132000
  O     -2.513000    1.897000   -0.374000
  N     -0.637000    1.031000    0.603000
  C     -1.404000   -0.047000    1.220000
  H     -1.315000    0.013000    2.310000
  H     -2.450000    0.086000    0.942000
  C      0.793000    1.077000    0.913000
  H      1.106000    2.119000    1.033000
  H      0.925000    0.589000    1.884000
  C      1.673000    0.380000   -0.125000
  H      1.385000   -0.674000   -0.189000
  H      1.497000    0.824000   -1.113000
  C     -0.842000   -1.413000    0.842000
  N     -1.118000   -1.895000   -0.405000
  O     -0.142000   -2.029000    1.660000
  C     -1.742000   -1.132000   -1.475000
  H     -0.986000   -0.785000   -2.192000
  H     -2.447000   -1.780000   -2.007000
  H     -2.281000   -0.267000   -1.096000
  C     -0.487000   -3.141000   -0.813000
  H      0.383000   -2.947000   -1.453000
  H     -0.164000   -3.675000    0.079000
  H     -1.207000   -3.743000   -1.374000
  C      3.156000    0.478000    0.228000
  H      3.447000    1.534000    0.298000
  H      3.316000    0.044000    1.223000
  C      4.043000   -0.234000   -0.789000
  H      3.787000   -1.297000   -0.848000
  H      3.918000    0.198000   -1.787000
  H      5.100000   -0.157000   -0.519000

----------------------------
CARTESIAN COORDINATES (A.U.)
----------------------------
  NO LB      ZA    FRAG     MASS         X           Y           Z
   0 C     6.0000    0    12.011   -0.922186    5.967755   -1.198086
   1 H     1.0000    0     1.008    0.780457    5.380050   -2.209090
   2 H     1.0000    0     1.008   -0.345820    7.186628    0.370386
   3 H     1.0000    0     1.008   -2.135391    7.046789   -2.464203
   4 C     6.0000    0    12.011   -2.456644    3.743547   -0.249444
   5 O     8.0000    0    15.999   -4.748882    3.584810   -0.706758
   6 N     7.0000    0    14.007   -1.203756    1.948308    1.139505
   7 C     6.0000    0    12.011   -2.653175   -0.088817    2.305466
   8 H     1.0000    0     1.008   -2.484990    0.024566    4.365267
   9 H     1.0000    0     1.008   -4.629829    0.162516    1.780122
  10 C     6.0000    0    12.011    1.498553    2.035235    1.725320
  11 H     1.0000    0     1.008    2.090037    4.004330    1.952087
  12 H     1.0000    0     1.008    1.747997    1.113049    3.560244
  13 C     6.0000    0    12.011    3.161512    0.718096   -0.236216
  14 H     1.0000    0     1.008    2.617271   -1.273675   -0.357158
  15 H     1.0000    0     1.008    2.828920    1.557134   -2.103265
  16 C     6.0000    0    12.011   -1.591149   -2.670183    1.591149
  17 N     7.0000    0    14.007   -2.112714   -3.581031   -0.765339
  18 O     8.0000    0    15.999   -0.268341   -3.834254    3.136945
  19 C     6.0000    0    12.011   -3.291903   -2.139170   -2.787346
  20 H     1.0000    0     1.008   -1.863270   -1.483435   -4.142280
  21 H     1.0000    0     1.008   -4.624160   -3.363713   -3.792680
  22 H     1.0000    0     1.008   -4.310465   -0.504557   -2.071140
  23 C     6.0000    0    12.011   -0.920297   -5.935630   -1.536347
  24 H     1.0000    0     1.008    0.723765   -5.569023   -2.745772
  25 H     1.0000    0     1.008   -0.309915   -6.944744    0.149288
  26 H     1.0000    0     1.008   -2.280899   -7.073245   -2.596484
  27 C     6.0000    0    12.011    5.963976    0.903289    0.430858
  28 H     1.0000    0     1.008    6.513886    2.898840    0.563138
  29 H     1.0000    0     1.008    6.266332    0.083148    2.311135
  30 C     6.0000    0    12.011    7.640163   -0.442196   -1.490994
  31 H     1.0000    0     1.008    7.156393   -2.450975   -1.602488
  32 H     1.0000    0     1.008    7.403947    0.374166   -3.376941
  33 H     1.0000    0     1.008    9.637603   -0.296687   -0.980768

--------------------------------
INTERNAL COORDINATES (ANGSTROEM)
--------------------------------
 C      0   0   0     0.000000000000     0.00000000     0.00000000
 H      1   0   0     1.093044829822     0.00000000     0.00000000
 H      1   2   0     1.094509022347   108.00746877     0.00000000
 H      1   2   3     1.089543482381   109.50182607   118.29190597
 C      1   2   3     1.515479132156   112.50842434   237.33841365
 O      5   1   2     1.239753604552   120.81076714   231.34430679
 N      5   1   2     1.371967200774   117.14955956    51.84650891
 C      7   5   1     1.459815741798   118.93747773   173.85486441
 H      8   7   5     1.095272112308   109.72310240   243.21878321
 H      8   7   5     1.090453575353   107.82863684     1.77019287
 C      7   5   1     1.463938523299   124.31421671   359.19799700
 H     11   7   5     1.094592618283   109.41749889    33.48907154
 H     11   7   5     1.094718685325   106.95390419   149.07375585
 C     11   7   5     1.528938520674   113.83676370   269.82759835
 H     14  11   7     1.094511763299   109.10181484   299.98129619
 H     14  11   7     1.097385984966   109.54068508    56.97751640
 C      8   7   5     1.524691444195   111.29322620   126.93349455
 N     17   8   7     1.365104025340   117.92287996   283.28470877
 O     17   8   7     1.240395098346   119.30424603   102.16436088
 C     18  17   8     1.454800673632   124.98772449     9.40914641
 H     20  18  17     1.098195793108   110.52665328   100.86279341
 H     20  18  17     1.095423662333   108.84428788   219.60033836
 H     20  18  17     1.087376199850   111.92989700   339.78897550
 C     18  17   8     1.455039861997   118.08790671   174.62798178
 H     24  18  17     1.097331308220   110.85300717   260.05000815
 H     24  18  17     1.088645488669   108.60008593    20.05502350
 H     24  18  17     1.093400658496   109.25539615   140.31563211
 C     14  11   7     1.527580439781   111.87828065   178.90044260
 H     28  14  11     1.097596009468   109.50247687   301.24315066
 H     28  14  11     1.097260680057   109.01014656    57.39425331
 C     28  14  11     1.525779145224   112.35916767   179.05840755
 H     31  28  14     1.094982191636   110.67200181   300.25699244
 H     31  28  14     1.094647431825   110.92521776    59.98659015
 H     31  28  14     1.093653510030   111.37362304   180.20892819

---------------------------
INTERNAL COORDINATES (A.U.)
---------------------------
 C      0   0   0     0.000000000000     0.00000000     0.00000000
 H      1   0   0     2.065555380462     0.00000000     0.00000000
 H      1   2   0     2.068322303343   108.00746877     0.00000000
 H      1   2   3     2.058938792700   109.50182607   118.29190597
 C      1   2   3     2.863840521447   112.50842434   237.33841365
 O      5   1   2     2.342794786145   120.81076714   231.34430679
 N      5   1   2     2.592642274186   117.14955956    51.84650891
 C      7   5   1     2.758651957985   118.93747773   173.85486441
 H      8   7   5     2.069764334384   109.72310240   243.21878321
 H      8   7   5     2.060658619172   107.82863684     1.77019287
 C      7   5   1     2.766442885933   124.31421671   359.19799700
 H     11   7   5     2.068480276767   109.41749889    33.48907154
 H     11   7   5     2.068718508951   106.95390419   149.07375585
 C     11   7   5     2.889275079676   113.83676370   269.82759835
 H     14  11   7     2.068327482990   109.10181484   299.98129619
 H     14  11   7     2.073758974789   109.54068508    56.97751640
 C      8   7   5     2.881249268261   111.29322620   126.93349455
 N     17   8   7     2.579672752206   117.92287996   283.28470877
 O     17   8   7     2.344007033732   119.30424603   102.16436088
 C     18  17   8     2.749174852609   124.98772449     9.40914641
 H     20  18  17     2.075289290398   110.52665328   100.86279341
 H     20  18  17     2.070050722427   108.84428788   219.60033836
 H     20  18  17     2.054843222260   111.92989700   339.78897550
 C     18  17   8     2.749626853113   118.08790671   174.62798178
 H     24  18  17     2.073655650713   110.85300717   260.05000815
 H     24  18  17     2.057241830514   108.60008593    20.05502350
 H     24  18  17     2.066227799207   109.25539615   140.31563211
 C     14  11   7     2.886708678720   111.87828065   178.90044260
 H     28  14  11     2.074155863579   109.50247687   301.24315066
 H     28  14  11     2.073522182829   109.01014656    57.39425331
 C     28  14  11     2.883304725322   112.35916767   179.05840755
 H     31  28  14     2.069216463713   110.67200181   300.25699244
 H     31  28  14     2.068583859349   110.92521776    59.98659015
 H     31  28  14     2.066705619358   111.37362304   180.20892819

---------------------
BASIS SET INFORMATION
---------------------
There are 4 groups of distinct atoms

 Group   1 Type C   : 10s4p1d contracted to 3s2p1d pattern {631/31/1}
 Group   2 Type H   : 4s contracted to 2s pattern {31}
 Group   3 Type O   : 10s4p1d contracted to 3s2p1d pattern {631/31/1}
 Group   4 Type N   : 10s4p1d contracted to 3s2p1d pattern {631/31/1}

Atom   0C    basis set group =>   1
Atom   1H    basis set group =>   2
Atom   2H    basis set group =>   2
Atom   3H    basis set group =>   2
Atom   4C    basis set group =>   1
Atom   5O    basis set group =>   3
Atom   6N    basis set group =>   4
Atom   7C    basis set group =>   1
Atom   8H    basis set group =>   2
Atom   9H    basis set group =>   2
Atom  10C    basis set group =>   1
Atom  11H    basis set group =>   2
Atom  12H    basis set group =>   2
Atom  13C    basis set group =>   1
Atom  14H    basis set group =>   2
Atom  15H    basis set group =>   2
Atom  16C    basis set group =>   1
Atom  17N    basis set group =>   4
Atom  18O    basis set group =>   3
Atom  19C    basis set group =>   1
Atom  20H    basis set group =>   2
Atom  21H    basis set group =>   2
Atom  22H    basis set group =>   2
Atom  23C    basis set group =>   1
Atom  24H    basis set group =>   2
Atom  25H    basis set group =>   2
Atom  26H    basis set group =>   2
Atom  27C    basis set group =>   1
Atom  28H    basis set group =>   2
Atom  29H    basis set group =>   2
Atom  30C    basis set group =>   1
Atom  31H    basis set group =>   2
Atom  32H    basis set group =>   2
Atom  33H    basis set group =>   2
---------------------------------
AUXILIARY/J BASIS SET INFORMATION
---------------------------------
There are 4 groups of distinct atoms

 Group   1 Type C   : 13s11p10d2f contracted to 13s11p10d2f pattern {1111111111111/11111111111/1111111111/11}
 Group   2 Type H   : 9s2p contracted to 9s2p pattern {111111111/11}
 Group   3 Type O   : 14s11p10d2f contracted to 14s11p10d2f pattern {11111111111111/11111111111/1111111111/11}
 Group   4 Type N   : 14s11p10d2f contracted to 14s11p10d2f pattern {11111111111111/11111111111/1111111111/11}

Atom   0C    basis set group =>   1
Atom   1H    basis set group =>   2
Atom   2H    basis set group =>   2
Atom   3H    basis set group =>   2
Atom   4C    basis set group =>   1
Atom   5O    basis set group =>   3
Atom   6N    basis set group =>   4
Atom   7C    basis set group =>   1
Atom   8H    basis set group =>   2
Atom   9H    basis set group =>   2
Atom  10C    basis set group =>   1
Atom  11H    basis set group =>   2
Atom  12H    basis set group =>   2
Atom  13C    basis set group =>   1
Atom  14H    basis set group =>   2
Atom  15H    basis set group =>   2
Atom  16C    basis set group =>   1
Atom  17N    basis set group =>   4
Atom  18O    basis set group =>   3
Atom  19C    basis set group =>   1
Atom  20H    basis set group =>   2
Atom  21H    basis set group =>   2
Atom  22H    basis set group =>   2
Atom  23C    basis set group =>   1
Atom  24H    basis set group =>   2
Atom  25H    basis set group =>   2
Atom  26H    basis set group =>   2
Atom  27C    basis set group =>   1
Atom  28H    basis set group =>   2
Atom  29H    basis set group =>   2
Atom  30C    basis set group =>   1
Atom  31H    basis set group =>   2
Atom  32H    basis set group =>   2
Atom  33H    basis set group =>   2
---------------------------------
AUXILIARY/C BASIS SET INFORMATION
---------------------------------
There are 4 groups of distinct atoms

 Group   1 Type C   : 13s11p10d2f contracted to 13s11p10d2f pattern {1111111111111/11111111111/1111111111/11}
 Group   2 Type H   : 9s2p contracted to 9s2p pattern {111111111/11}
 Group   3 Type O   : 14s11p10d2f contracted to 14s11p10d2f pattern {11111111111111/11111111111/1111111111/11}
 Group   4 Type N   : 14s11p10d2f contracted to 14s11p10d2f pattern {11111111111111/11111111111/1111111111/11}

Atom   0C    basis set group =>   1
Atom   1H    basis set group =>   2
Atom   2H    basis set group =>   2
Atom   3H    basis set group =>   2
Atom   4C    basis set group =>   1
Atom   5O    basis set group =>   3
Atom   6N    basis set group =>   4
Atom   7C    basis set group =>   1
Atom   8H    basis set group =>   2
Atom   9H    basis set group =>   2
Atom  10C    basis set group =>   1
Atom  11H    basis set group =>   2
Atom  12H    basis set group =>   2
Atom  13C    basis set group =>   1
Atom  14H    basis set group =>   2
Atom  15H    basis set group =>   2
Atom  16C    basis set group =>   1
Atom  17N    basis set group =>   4
Atom  18O    basis set group =>   3
Atom  19C    basis set group =>   1
Atom  20H    basis set group =>   2
Atom  21H    basis set group =>   2
Atom  22H    basis set group =>   2
Atom  23C    basis set group =>   1
Atom  24H    basis set group =>   2
Atom  25H    basis set group =>   2
Atom  26H    basis set group =>   2
Atom  27C    basis set group =>   1
Atom  28H    basis set group =>   2
Atom  29H    basis set group =>   2
Atom  30C    basis set group =>   1
Atom  31H    basis set group =>   2
Atom  32H    basis set group =>   2
Atom  33H    basis set group =>   2
----------------------------------
AUXILIARY/JK BASIS SET INFORMATION
----------------------------------
There are 4 groups of distinct atoms

 Group   1 Type C   : 13s11p10d2f contracted to 13s11p10d2f pattern {1111111111111/11111111111/1111111111/11}
 Group   2 Type H   : 9s2p contracted to 9s2p pattern {111111111/11}
 Group   3 Type O   : 14s11p10d2f contracted to 14s11p10d2f pattern {11111111111111/11111111111/1111111111/11}
 Group   4 Type N   : 14s11p10d2f contracted to 14s11p10d2f pattern {11111111111111/11111111111/1111111111/11}

Atom   0C    basis set group =>   1
Atom   1H    basis set group =>   2
Atom   2H    basis set group =>   2
Atom   3H    basis set group =>   2
Atom   4C    basis set group =>   1
Atom   5O    basis set group =>   3
Atom   6N    basis set group =>   4
Atom   7C    basis set group =>   1
Atom   8H    basis set group =>   2
Atom   9H    basis set group =>   2
Atom  10C    basis set group =>   1
Atom  11H    basis set group =>   2
Atom  12H    basis set group =>   2
Atom  13C    basis set group =>   1
Atom  14H    basis set group =>   2
Atom  15H    basis set group =>   2
Atom  16C    basis set group =>   1
Atom  17N    basis set group =>   4
Atom  18O    basis set group =>   3
Atom  19C    basis set group =>   1
Atom  20H    basis set group =>   2
Atom  21H    basis set group =>   2
Atom  22H    basis set group =>   2
Atom  23C    basis set group =>   1
Atom  24H    basis set group =>   2
Atom  25H    basis set group =>   2
Atom  26H    basis set group =>   2
Atom  27C    basis set group =>   1
Atom  28H    basis set group =>   2
Atom  29H    basis set group =>   2
Atom  30C    basis set group =>   1
Atom  31H    basis set group =>   2
Atom  32H    basis set group =>   2
Atom  33H    basis set group =>   2


           ************************************************************
           *        Program running with 4 parallel MPI-processes     *
           *              working on a common directory               *
           ************************************************************
------------------------------------------------------------------------------
                           ORCA GTO INTEGRAL CALCULATION
                           -- RI-GTO INTEGRALS CHOSEN --
------------------------------------------------------------------------------
------------------------------------------------------------------------------
                   ___                                                        
                  /   \      - P O W E R E D   B Y -                         
                 /     \                                                     
                 |  |  |   _    _      __       _____    __    __             
                 |  |  |  | |  | |    /  \     |  _  \  |  |  /  |          
                  \  \/   | |  | |   /    \    | | | |  |  | /  /          
                 / \  \   | |__| |  /  /\  \   | |_| |  |  |/  /          
                |  |  |   |  __  | /  /__\  \  |    /   |      \           
                |  |  |   | |  | | |   __   |  |    \   |  |\   \          
                \     /   | |  | | |  |  |  |  | |\  \  |  | \   \       
                 \___/    |_|  |_| |__|  |__|  |_| \__\ |__|  \__/        
                                                                              
                      - O R C A' S   B I G   F R I E N D -                    
                                      &                                       
                       - I N T E G R A L  F E E D E R -                       
                                                                              
 v1 FN, 2020, v2 2021                                                         
------------------------------------------------------------------------------


Reading SHARK input file Nab_water.SHARKINP.tmp ... ok
----------------------
SHARK INTEGRAL PACKAGE
----------------------

Number of atoms                             ...     34
Number of basis functions                   ...    236
Number of shells                            ...    124
Maximum angular momentum                    ...      2
Integral batch strategy                     ... SHARK/LIBINT Hybrid
RI-J (if used) integral strategy            ... SPLIT-RIJ (Revised 2003 algorithm where possible)
Printlevel                                  ...      1
Contraction scheme used                     ... SEGMENTED contraction
Coulomb Range Separation                    ... NOT USED
Exchange Range Separation                   ... NOT USED
Finite Nucleus Model                        ... NOT USED
Auxiliary Coulomb fitting basis             ... AVAILABLE
   # of basis functions in Aux-J            ...   1844
   # of shells in Aux-J                     ...    728
   Maximum angular momentum in Aux-J        ...      3
Auxiliary J/K fitting basis                 ... AVAILABLE
   # of basis functions in Aux-JK           ...   1844
   # of shells in Aux-JK                    ...    728
   Maximum angular momentum in Aux-JK       ...      3
Auxiliary Correlation fitting basis         ... AVAILABLE
   # of basis functions in Aux-C            ...   1844
   # of shells in Aux-C                     ...    728
   Maximum angular momentum in Aux-C        ...      3
Auxiliary 'external' fitting basis          ... NOT available
Integral threshold                          ...     2.500000e-11
Primitive cut-off                           ...     2.500000e-12
Primitive pair pre-selection threshold      ...     2.500000e-12

Calculating pre-screening integrals         ... done (  0.0 sec) Dimension = 124
Organizing shell pair data                  ... done (  0.3 sec)
Shell pair information
Total number of shell pairs                 ...      7750
Shell pairs after pre-screening             ...      6706
Total number of primitive shell pairs       ...     42549
Primitive shell pairs kept                  ...     21679
          la=0 lb=0:   2861 shell pairs
          la=1 lb=0:   2090 shell pairs
          la=1 lb=1:    393 shell pairs
          la=2 lb=0:    924 shell pairs
          la=2 lb=1:    353 shell pairs
          la=2 lb=2:     85 shell pairs

Calculating one electron integrals          ... done (  0.0 sec)
Calculating RI/J V-Matrix + Cholesky decomp.... done (  0.2 sec)
Calculating RI/JK V-Matrix + Cholesky decomp... done (  0.2 sec)
Calculating RI/C V-Matrix + Cholesky decomp.... done (  0.2 sec)
Calculating Nuclear repulsion               ... done (  0.0 sec) ENN=    993.883679092106 Eh

SHARK setup successfully completed in   1.5 seconds

Maximum memory used throughout the entire GTOINT-calculation: 30.9 MB


           ************************************************************
           *        Program running with 4 parallel MPI-processes     *
           *              working on a common directory               *
           ************************************************************
-------------------------------------------------------------------------------
                                 ORCA SCF
-------------------------------------------------------------------------------

------------
SCF SETTINGS
------------
Hamiltonian:
 Density Functional     Method          .... DFT(GTOs)
 Exchange Functional    Exchange        .... B88
   X-Alpha parameter    XAlpha          ....  0.666667
   Becke's b parameter  XBeta           ....  0.004200
 Correlation Functional Correlation     .... LYP
 LDA part of GGA corr.  LDAOpt          .... VWN-5
 Gradients option       PostSCFGGA      .... off
 Hybrid DFT is turned on
   Fraction HF Exchange ScalHFX         ....  0.200000
   Scaling of DF-GGA-X  ScalDFX         ....  0.720000
   Scaling of DF-GGA-C  ScalDFC         ....  0.810000
   Scaling of DF-LDA-C  ScalLDAC        ....  1.000000
   Perturbative correction              ....  0.000000
   Density functional embedding theory  .... OFF
   NL short-range parameter             ....  4.800000
 RI-approximation to the Coulomb term is turned on
   Number of AuxJ basis functions       .... 1844
   RIJ-COSX (HFX calculated with COS-X)).... on


General Settings:
 Integral files         IntName         .... Nab_water
 Hartree-Fock type      HFTyp           .... RHF
 Total Charge           Charge          ....    0
 Multiplicity           Mult            ....    1
 Number of Electrons    NEL             ....  110
 Basis Dimension        Dim             ....  236
 Nuclear Repulsion      ENuc            ....    993.8836790921 Eh

Convergence Acceleration:
 DIIS                   CNVDIIS         .... on
   Start iteration      DIISMaxIt       ....    12
   Startup error        DIISStart       ....  0.200000
   # of expansion vecs  DIISMaxEq       ....     5
   Bias factor          DIISBfac        ....   1.050
   Max. coefficient     DIISMaxC        ....  10.000
 Trust-Rad. Augm. Hess. CNVTRAH         .... auto
   Auto Start mean grad. ratio tolernc. ....  1.125000
   Auto Start start iteration           ....    20
   Auto Start num. interpolation iter.  ....    10
   Max. Number of Micro iterations      ....    16
   Max. Number of Macro iterations      .... Maxiter - #DIIS iter
   Number of Davidson start vectors     ....     2
   Converg. threshold I  (grad. norm)   ....   1.000e-05
   Converg. threshold II (energy diff.) ....   1.000e-08
   Grad. Scal. Fac. for Micro threshold ....   0.100
   Minimum threshold for Micro iter.    ....   0.010
   NR start threshold (gradient norm)   ....   0.001
   Initial trust radius                 ....   0.400
   Minimum AH scaling param. (alpha)    ....   1.000
   Maximum AH scaling param. (alpha)    .... 1000.000
   Orbital update algorithm             .... Taylor
   White noise on init. David. guess    .... on
   Maximum white noise                  ....   0.010
   Quad. conv. algorithm                .... NR
 SOSCF                  CNVSOSCF        .... on
   Start iteration      SOSCFMaxIt      ....   150
   Startup grad/error   SOSCFStart      ....  0.003300
 Level Shifting         CNVShift        .... on
   Level shift para.    LevelShift      ....    0.2500
   Turn off err/grad.   ShiftErr        ....    0.0010
 Zerner damping         CNVZerner       .... off
 Static damping         CNVDamp         .... on
   Fraction old density DampFac         ....    0.7000
   Max. Damping (<1)    DampMax         ....    0.9800
   Min. Damping (>=0)   DampMin         ....    0.0000
   Turn off err/grad.   DampErr         ....    0.1000
 Fernandez-Rico         CNVRico         .... off

SCF Procedure:
 Maximum # iterations   MaxIter         ....   125
 SCF integral mode      SCFMode         .... Direct
   Integral package                     .... SHARK and LIBINT hybrid scheme
 Reset frequency        DirectResetFreq ....    20
 Integral Threshold     Thresh          ....  2.500e-11 Eh
 Primitive CutOff       TCut            ....  2.500e-12 Eh

Convergence Tolerance:
 Convergence Check Mode ConvCheckMode   .... Total+1el-Energy
 Convergence forced     ConvForced      .... 0
 Energy Change          TolE            ....  1.000e-08 Eh
 1-El. energy change                    ....  1.000e-05 Eh
 Orbital Gradient       TolG            ....  1.000e-05
 Orbital Rotation angle TolX            ....  1.000e-05
 DIIS Error             TolErr          ....  5.000e-07


Diagonalization of the overlap matrix:
Smallest eigenvalue                        ... 2.889e-03
Time for diagonalization                   ...    0.063 sec
Threshold for overlap eigenvalues          ... 1.000e-08
Number of eigenvalues below threshold      ... 0
Time for construction of square roots      ...    0.004 sec
Total time needed                          ...    0.068 sec

Time for model grid setup =    0.917 sec

------------------------------
INITIAL GUESS: MODEL POTENTIAL
------------------------------
Loading Hartree-Fock densities                     ... done
Calculating cut-offs                               ... done
Initializing the effective Hamiltonian             ... done
Setting up the integral package (SHARK)            ... done
Starting the Coulomb interaction                   ... done (   0.7 sec)
Reading the grid                                   ... done
Mapping shells                                     ... done
Starting the XC term evaluation                    ... done (   0.2 sec)
  promolecular density results
     # of electrons  =    109.992457484
     EX              =    -86.929379850
     EC              =     -3.675893932
     EX+EC           =    -90.605273781
Transforming the Hamiltonian                       ... done (   0.0 sec)
Diagonalizing the Hamiltonian                      ... done (   0.0 sec)
Back transforming the eigenvectors                 ... done (   0.0 sec)
Now organizing SCF variables                       ... done
                      ------------------
                      INITIAL GUESS DONE (   1.8 sec)
                      ------------------
-------------------
DFT GRID GENERATION
-------------------

General Integration Accuracy     IntAcc      ... 4.388
Radial Grid Type                 RadialGrid  ... OptM3 with GC (2021)
Angular Grid (max. ang.)         AngularGrid ... 4 (Lebedev-302)
Angular grid pruning method      GridPruning ... 4 (adaptive)
Weight generation scheme         WeightScheme... Becke
Basis function cutoff            BFCut       ... 1.0000e-11
Integration weight cutoff        WCut        ... 1.0000e-14
Angular grids for H and He will be reduced by one unit
Partially contracted basis set               ... off
Rotationally invariant grid construction     ... off

Total number of grid points                  ...   147244
Total number of batches                      ...     2319
Average number of points per batch           ...       63
Average number of grid points per atom       ...     4331
Time for grid setup =    1.144 sec

--------------------
COSX GRID GENERATION
--------------------

GRIDX 1
-------
General Integration Accuracy     IntAcc      ... 3.816
Radial Grid Type                 RadialGrid  ... OptM3 with GC (2021)
Angular Grid (max. ang.)         AngularGrid ... 1 (Lebedev-50)
Angular grid pruning method      GridPruning ... 4 (adaptive)
Weight generation scheme         WeightScheme... Becke
Basis function cutoff            BFCut       ... 1.0000e-11
Integration weight cutoff        WCut        ... 1.0000e-14
Angular grids for H and He will be reduced by one unit
Partially contracted basis set               ... on
Rotationally invariant grid construction     ... off

Total number of grid points                  ...    18768
Total number of batches                      ...      315
Average number of points per batch           ...       59
Average number of grid points per atom       ...      552
UseSFitting                                  ... on

GRIDX 2
-------
General Integration Accuracy     IntAcc      ... 4.020
Radial Grid Type                 RadialGrid  ... OptM3 with GC (2021)
Angular Grid (max. ang.)         AngularGrid ... 2 (Lebedev-110)
Angular grid pruning method      GridPruning ... 4 (adaptive)
Weight generation scheme         WeightScheme... Becke
Basis function cutoff            BFCut       ... 1.0000e-11
Integration weight cutoff        WCut        ... 1.0000e-14
Angular grids for H and He will be reduced by one unit
Partially contracted basis set               ... on
Rotationally invariant grid construction     ... off

Total number of grid points                  ...    39329
Total number of batches                      ...      632
Average number of points per batch           ...       62
Average number of grid points per atom       ...     1157
UseSFitting                                  ... on

GRIDX 3
-------
General Integration Accuracy     IntAcc      ... 4.338
Radial Grid Type                 RadialGrid  ... OptM3 with GC (2021)
Angular Grid (max. ang.)         AngularGrid ... 3 (Lebedev-194)
Angular grid pruning method      GridPruning ... 4 (adaptive)
Weight generation scheme         WeightScheme... Becke
Basis function cutoff            BFCut       ... 1.0000e-11
Integration weight cutoff        WCut        ... 1.0000e-14
Angular grids for H and He will be reduced by one unit
Partially contracted basis set               ... on
Rotationally invariant grid construction     ... off

Total number of grid points                  ...    85594
Total number of batches                      ...     1356
Average number of points per batch           ...       63
Average number of grid points per atom       ...     2517
UseSFitting                                  ... on

Time for X-Grid setup             =    1.414 sec


--------------------
CPCM SOLVATION MODEL
--------------------
CPCM parameters:
  Epsilon                                         ...      80.4000
  Refrac                                          ...       1.3300
  Rsolv                                           ...       1.3000
  Surface type                                    ... GAUSSIAN VDW
  Epsilon function type                           ...         CPCM
Radii:
 Radius for C  used is    3.8550 Bohr (=   2.0400 Ang.)
 Radius for H  used is    2.4944 Bohr (=   1.3200 Ang.)
 Radius for O  used is    3.4469 Bohr (=   1.8240 Ang.)
 Radius for N  used is    3.5149 Bohr (=   1.8600 Ang.)
Calculating surface                               ...        done! (  0.0s)
GEPOL surface points                              ...         1779
GEPOL Volume                                      ...    1779.1980
GEPOL Surface-area                                ...     950.7165
Calculating surface distance matrix               ...        done! (  0.0s)
Performing Cholesky decomposition & store         ...        done! (  0.1s)
Overall time for CPCM initialization              ...                 0.1s
--------------
SCF ITERATIONS
--------------
ITER       Energy         Delta-E        Max-DP      RMS-DP      [F,P]     Damp
               ***  Starting incremental Fock matrix formation  ***
  0   -652.2315379750   0.000000000000 0.09425858  0.00216415  0.2731620 0.7000
  1   -652.4441798081  -0.212641833171 0.05349561  0.00146684  0.1110843 0.7000
                               ***Turning on DIIS***
  2   -652.5263186872  -0.082138879047 0.06295950  0.00231644  0.0378523 0.0000
  3   -652.6554679672  -0.129149280055 0.03548779  0.00098654  0.0546474 0.0000
  4   -652.6836229150  -0.028154947768 0.00864258  0.00033138  0.0122979 0.0000
  5   -652.6854540092  -0.001831094230 0.00412938  0.00010268  0.0067161 0.0000
                      *** Initiating the SOSCF procedure ***
                           *** Shutting down DIIS ***
                      *** Re-Reading the Fockian *** 
                      *** Removing any level shift *** 
ITER      Energy       Delta-E        Grad      Rot      Max-DP    RMS-DP
  6   -652.68560215  -0.0001481374  0.000253  0.000253  0.001291  0.000044
               *** Restarting incremental Fock matrix formation ***
  7   -652.68560764  -0.0000054931  0.000227  0.000862  0.001678  0.000025
  8   -652.68560287   0.0000047729  0.000408  0.000606  0.001110  0.000016
  9   -652.68561066  -0.0000077897  0.000055  0.000150  0.000286  0.000005
 10   -652.68561041   0.0000002450  0.000111  0.000102  0.000208  0.000004
 11   -652.68561075  -0.0000003397  0.000005  0.000010  0.000024  0.000001
 12   -652.68561076  -0.0000000038  0.000006  0.000005  0.000012  0.000000
                  ***Gradient check signals convergence***
              ***Rediagonalizing the Fockian in SOSCF/NRSCF***

               *****************************************************
               *                     SUCCESS                       *
               *           SCF CONVERGED AFTER  13 CYCLES          *
               *****************************************************

Old exchange energy                            =    -17.752798173 Eh
New exchange energy                            =    -17.752767363 Eh
Exchange energy change after final integration =      0.000030810 Eh
Total energy after final integration           =   -652.685579942 Eh
Final COS-X integration done in                =     9.652 sec

----------------
TOTAL SCF ENERGY
----------------

Total Energy       :         -652.68557994 Eh          -17760.47756 eV

Components:
Nuclear Repulsion  :          993.88367909 Eh           27044.94985 eV
Electronic Energy  :        -1646.56925903 Eh          -44805.42740 eV
One Electron Energy:        -2859.56731593 Eh          -77812.78259 eV
Two Electron Energy:         1212.99805689 Eh           33007.35519 eV
Max COSX asymmetry :            0.00000186 Eh               0.00005 eV
CPCM Dielectric    :           -0.01836724 Eh              -0.49980 eV

Virial components:
Potential Energy   :        -1301.54898091 Eh          -35416.94833 eV
Kinetic Energy     :          648.86340096 Eh           17656.47078 eV
Virial Ratio       :            2.00589058


DFT components:
N(Alpha)           :       55.000010580207 electrons
N(Beta)            :       55.000010580207 electrons
N(Total)           :      110.000021160414 electrons
E(X)               :      -70.457222938356 Eh       
E(C)               :       -4.335252339792 Eh       
E(XC)              :      -74.792475278149 Eh       
DFET-embed. en.    :        0.000000000000 Eh       
CPCM Solvation Model Properties:
Surface-charge          :           -0.02266306
Charge-correction       :           -0.00027413 Eh              -0.00746 eV
Free-energy (cav+disp)  :  This term is not implemented in the current solvation scheme

---------------
SCF CONVERGENCE
---------------

  Last Energy change         ...    2.2503e-09  Tolerance :   1.0000e-08
  Last MAX-Density change    ...    3.5527e-15  Tolerance :   1.0000e-07
  Last RMS-Density change    ...    4.3203e-17  Tolerance :   5.0000e-09
  Last Orbital Gradient      ...    6.1157e-07  Tolerance :   1.0000e-05
  Last Orbital Rotation      ...    2.2100e-06  Tolerance :   1.0000e-05

             **** THE GBW FILE WAS UPDATED (Nab_water.gbw) ****
             **** DENSITY Nab_water.scfp WAS UPDATED ****
             **** ENERGY FILE WAS UPDATED (Nab_water.en.tmp) ****
             **** THE GBW FILE WAS UPDATED (Nab_water.gbw) ****
             **** DENSITY Nab_water.scfp WAS UPDATED ****
----------------
ORBITAL ENERGIES
----------------

  NO   OCC          E(Eh)            E(eV) 
   0   2.0000     -19.109676      -520.0007 
   1   2.0000     -19.108195      -519.9604 
   2   2.0000     -14.359225      -390.7344 
   3   2.0000     -14.357995      -390.7009 
   4   2.0000     -10.283251      -279.8215 
   5   2.0000     -10.278918      -279.7036 
   6   2.0000     -10.209549      -277.8160 
   7   2.0000     -10.206171      -277.7240 
   8   2.0000     -10.197113      -277.4775 
   9   2.0000     -10.193954      -277.3916 
  10   2.0000     -10.171746      -276.7873 
  11   2.0000     -10.166085      -276.6332 
  12   2.0000     -10.165653      -276.6215 
  13   2.0000     -10.156123      -276.3622 
  14   2.0000      -1.031657       -28.0728 
  15   2.0000      -1.024582       -27.8803 
  16   2.0000      -0.933425       -25.3998 
  17   2.0000      -0.926169       -25.2023 
  18   2.0000      -0.790153       -21.5012 
  19   2.0000      -0.758223       -20.6323 
  20   2.0000      -0.726425       -19.7670 
  21   2.0000      -0.714104       -19.4317 
  22   2.0000      -0.703578       -19.1453 
  23   2.0000      -0.668426       -18.1888 
  24   2.0000      -0.638709       -17.3801 
  25   2.0000      -0.577473       -15.7138 
  26   2.0000      -0.549569       -14.9545 
  27   2.0000      -0.534437       -14.5428 
  28   2.0000      -0.509987       -13.8775 
  29   2.0000      -0.486217       -13.2306 
  30   2.0000      -0.477638       -12.9972 
  31   2.0000      -0.463627       -12.6159 
  32   2.0000      -0.456465       -12.4211 
  33   2.0000      -0.453346       -12.3362 
  34   2.0000      -0.447157       -12.1678 
  35   2.0000      -0.420506       -11.4426 
  36   2.0000      -0.407741       -11.0952 
  37   2.0000      -0.405306       -11.0289 
  38   2.0000      -0.402238       -10.9455 
  39   2.0000      -0.395781       -10.7697 
  40   2.0000      -0.393996       -10.7212 
  41   2.0000      -0.392212       -10.6726 
  42   2.0000      -0.387803       -10.5527 
  43   2.0000      -0.375373       -10.2144 
  44   2.0000      -0.372569       -10.1381 
  45   2.0000      -0.362349        -9.8600 
  46   2.0000      -0.348776        -9.4907 
  47   2.0000      -0.347918        -9.4673 
  48   2.0000      -0.333493        -9.0748 
  49   2.0000      -0.325423        -8.8552 
  50   2.0000      -0.318447        -8.6654 
  51   2.0000      -0.258250        -7.0273 
  52   2.0000      -0.252487        -6.8705 
  53   2.0000      -0.236388        -6.4325 
  54   2.0000      -0.234110        -6.3705 
  55   0.0000       0.015381         0.4185 
  56   0.0000       0.028095         0.7645 
  57   0.0000       0.086650         2.3579 
  58   0.0000       0.103601         2.8191 
  59   0.0000       0.112444         3.0598 
  60   0.0000       0.120342         3.2747 
  61   0.0000       0.140273         3.8170 
  62   0.0000       0.146806         3.9948 
  63   0.0000       0.147695         4.0190 
  64   0.0000       0.152560         4.1514 
  65   0.0000       0.159381         4.3370 
  66   0.0000       0.166788         4.5385 
  67   0.0000       0.169426         4.6103 
  68   0.0000       0.173718         4.7271 
  69   0.0000       0.180241         4.9046 
  70   0.0000       0.185574         5.0497 
  71   0.0000       0.189925         5.1681 
  72   0.0000       0.195254         5.3131 
  73   0.0000       0.197880         5.3846 
  74   0.0000       0.201054         5.4709 
  75   0.0000       0.208730         5.6798 
  76   0.0000       0.211401         5.7525 
  77   0.0000       0.230830         6.2812 
  78   0.0000       0.236236         6.4283 
  79   0.0000       0.237456         6.4615 
  80   0.0000       0.244566         6.6550 
  81   0.0000       0.247948         6.7470 
  82   0.0000       0.269978         7.3465 
  83   0.0000       0.275077         7.4852 
  84   0.0000       0.286227         7.7886 
  85   0.0000       0.297348         8.0912 
  86   0.0000       0.340312         9.2603 
  87   0.0000       0.361133         9.8269 
  88   0.0000       0.380584        10.3562 
  89   0.0000       0.421737        11.4760 
  90   0.0000       0.472086        12.8461 
  91   0.0000       0.493979        13.4419 
  92   0.0000       0.509113        13.8537 
  93   0.0000       0.511899        13.9295 
  94   0.0000       0.524876        14.2826 
  95   0.0000       0.527296        14.3484 
  96   0.0000       0.550342        14.9756 
  97   0.0000       0.555797        15.1240 
  98   0.0000       0.560754        15.2589 
  99   0.0000       0.575010        15.6468 
 100   0.0000       0.597769        16.2661 
 101   0.0000       0.607680        16.5358 
 102   0.0000       0.613569        16.6961 
 103   0.0000       0.616854        16.7855 
 104   0.0000       0.627907        17.0862 
 105   0.0000       0.645517        17.5654 
 106   0.0000       0.651501        17.7283 
 107   0.0000       0.668455        18.1896 
 108   0.0000       0.671984        18.2856 
 109   0.0000       0.686492        18.6804 
 110   0.0000       0.708629        19.2828 
 111   0.0000       0.723393        19.6845 
 112   0.0000       0.725716        19.7477 
 113   0.0000       0.738816        20.1042 
 114   0.0000       0.759181        20.6584 
 115   0.0000       0.774201        21.0671 
 116   0.0000       0.799637        21.7592 
 117   0.0000       0.809478        22.0270 
 118   0.0000       0.818590        22.2750 
 119   0.0000       0.832041        22.6410 
 120   0.0000       0.838821        22.8255 
 121   0.0000       0.847615        23.0648 
 122   0.0000       0.855562        23.2810 
 123   0.0000       0.863583        23.4993 
 124   0.0000       0.870356        23.6836 
 125   0.0000       0.881301        23.9814 
 126   0.0000       0.884703        24.0740 
 127   0.0000       0.894273        24.3344 
 128   0.0000       0.903261        24.5790 
 129   0.0000       0.909816        24.7574 
 130   0.0000       0.916061        24.9273 
 131   0.0000       0.925074        25.1725 
 132   0.0000       0.931263        25.3410 
 133   0.0000       0.931824        25.3562 
 134   0.0000       0.957193        26.0465 
 135   0.0000       0.962623        26.1943 
 136   0.0000       0.963351        26.2141 
 137   0.0000       0.972960        26.4756 
 138   0.0000       0.981507        26.7082 
 139   0.0000       0.983900        26.7733 
 140   0.0000       0.998880        27.1809 
 141   0.0000       1.017857        27.6973 
 142   0.0000       1.022490        27.8234 
 143   0.0000       1.028914        27.9982 
 144   0.0000       1.044477        28.4217 
 145   0.0000       1.055618        28.7248 
 146   0.0000       1.067456        29.0470 
 147   0.0000       1.099424        29.9169 
 148   0.0000       1.134791        30.8792 
 149   0.0000       1.138379        30.9769 
 150   0.0000       1.169182        31.8151 
 151   0.0000       1.227433        33.4002 
 152   0.0000       1.248858        33.9832 
 153   0.0000       1.282496        34.8985 
 154   0.0000       1.294530        35.2259 
 155   0.0000       1.315248        35.7897 
 156   0.0000       1.359772        37.0013 
 157   0.0000       1.360617        37.0243 
 158   0.0000       1.411409        38.4064 
 159   0.0000       1.413895        38.4740 
 160   0.0000       1.431036        38.9405 
 161   0.0000       1.437454        39.1151 
 162   0.0000       1.450899        39.4810 
 163   0.0000       1.463715        39.8297 
 164   0.0000       1.492403        40.6104 
 165   0.0000       1.516798        41.2742 
 166   0.0000       1.545580        42.0574 
 167   0.0000       1.561025        42.4776 
 168   0.0000       1.603276        43.6274 
 169   0.0000       1.648521        44.8585 
 170   0.0000       1.690844        46.0102 
 171   0.0000       1.715865        46.6911 
 172   0.0000       1.751872        47.6709 
 173   0.0000       1.760619        47.9089 
 174   0.0000       1.787664        48.6448 
 175   0.0000       1.794307        48.8256 
 176   0.0000       1.813009        49.3345 
 177   0.0000       1.839260        50.0488 
 178   0.0000       1.848727        50.3064 
 179   0.0000       1.861497        50.6539 
 180   0.0000       1.879843        51.1531 
 181   0.0000       1.897343        51.6293 
 182   0.0000       1.911704        52.0201 
 183   0.0000       1.920920        52.2709 
 184   0.0000       1.936181        52.6862 
 185   0.0000       1.948193        53.0130 
 186   0.0000       1.960879        53.3582 
 187   0.0000       1.964415        53.4544 
 188   0.0000       1.982533        53.9475 
 189   0.0000       1.994695        54.2784 
 190   0.0000       2.001797        54.4717 
 191   0.0000       2.005985        54.5856 
 192   0.0000       2.041147        55.5424 
 193   0.0000       2.050294        55.7913 
 194   0.0000       2.052817        55.8600 
 195   0.0000       2.075750        56.4840 
 196   0.0000       2.089161        56.8490 
 197   0.0000       2.095135        57.0115 
 198   0.0000       2.109707        57.4081 
 199   0.0000       2.122510        57.7564 
 200   0.0000       2.157241        58.7015 
 201   0.0000       2.193718        59.6941 
 202   0.0000       2.202508        59.9333 
 203   0.0000       2.229624        60.6712 
 204   0.0000       2.252588        61.2960 
 205   0.0000       2.271261        61.8041 
 206   0.0000       2.276884        61.9572 
 207   0.0000       2.293892        62.4200 
 208   0.0000       2.310064        62.8600 
 209   0.0000       2.324425        63.2508 
 210   0.0000       2.335400        63.5495 
 211   0.0000       2.366964        64.4084 
 212   0.0000       2.381270        64.7976 
 213   0.0000       2.397847        65.2487 
 214   0.0000       2.408484        65.5382 
 215   0.0000       2.433308        66.2137 
 216   0.0000       2.447757        66.6069 
 217   0.0000       2.497500        67.9604 
 218   0.0000       2.528458        68.8028 
 219   0.0000       2.558489        69.6200 
 220   0.0000       2.575950        70.0952 
 221   0.0000       2.606284        70.9206 
 222   0.0000       2.617836        71.2349 
 223   0.0000       2.636161        71.7336 
 224   0.0000       2.646757        72.0219 
 225   0.0000       2.690270        73.2060 
 226   0.0000       2.714512        73.8656 
 227   0.0000       2.729883        74.2839 
 228   0.0000       2.761067        75.1324 
 229   0.0000       2.814140        76.5766 
 230   0.0000       2.935662        79.8834 
 231   0.0000       2.957270        80.4714 
 232   0.0000       3.002549        81.7035 
 233   0.0000       3.006747        81.8178 
 234   0.0000       3.164720        86.1164 
 235   0.0000       3.184600        86.6574 

                    ********************************
                    * MULLIKEN POPULATION ANALYSIS *
                    ********************************

-----------------------
MULLIKEN ATOMIC CHARGES
-----------------------
   0 C :   -0.562316
   1 H :    0.194251
   2 H :    0.199248
   3 H :    0.180067
   4 C :    0.529627
   5 O :   -0.538806
   6 N :   -0.370743
   7 C :   -0.249843
   8 H :    0.180000
   9 H :    0.203734
  10 C :   -0.168730
  11 H :    0.175601
  12 H :    0.171428
  13 C :   -0.269774
  14 H :    0.156890
  15 H :    0.148601
  16 C :    0.527850
  17 N :   -0.361430
  18 O :   -0.548183
  19 C :   -0.347924
  20 H :    0.170866
  21 H :    0.172311
  22 H :    0.196147
  23 C :   -0.330445
  24 H :    0.170995
  25 H :    0.183531
  26 H :    0.171896
  27 C :   -0.253756
  28 H :    0.140056
  29 H :    0.140094
  30 C :   -0.454113
  31 H :    0.147979
  32 H :    0.147733
  33 H :    0.147159
Sum of atomic charges:   -0.0000000

--------------------------------
MULLIKEN REDUCED ORBITAL CHARGES
--------------------------------
  0 C s       :     3.323744  s :     3.323744
      pz      :     1.089774  p :     3.206626
      px      :     1.085787
      py      :     1.031066
      dz2     :     0.002655  d :     0.031946
      dxz     :     0.008379
      dyz     :     0.008939
      dx2y2   :     0.004146
      dxy     :     0.007828
  1 H s       :     0.805749  s :     0.805749
  2 H s       :     0.800752  s :     0.800752
  3 H s       :     0.819933  s :     0.819933
  4 C s       :     2.983077  s :     2.983077
      pz      :     0.793273  p :     2.379397
      px      :     0.777288
      py      :     0.808836
      dz2     :     0.013853  d :     0.107899
      dxz     :     0.025758
      dyz     :     0.009272
      dx2y2   :     0.022081
      dxy     :     0.036935
  5 O s       :     3.862466  s :     3.862466
      pz      :     1.570432  p :     4.651459
      px      :     1.362260
      py      :     1.718767
      dz2     :     0.002817  d :     0.024881
      dxz     :     0.007918
      dyz     :     0.000524
      dx2y2   :     0.007247
      dxy     :     0.006375
  6 N s       :     3.533742  s :     3.533742
      pz      :     1.432790  p :     3.800352
      px      :     1.119483
      py      :     1.248078
      dz2     :     0.005599  d :     0.036649
      dxz     :     0.007082
      dyz     :     0.005152
      dx2y2   :     0.009152
      dxy     :     0.009664
  7 C s       :     3.250026  s :     3.250026
      pz      :     1.057747  p :     2.947882
      px      :     1.029391
      py      :     0.860744
      dz2     :     0.015627  d :     0.051935
      dxz     :     0.005747
      dyz     :     0.007806
      dx2y2   :     0.012821
      dxy     :     0.009934
  8 H s       :     0.820000  s :     0.820000
  9 H s       :     0.796266  s :     0.796266
 10 C s       :     3.219021  s :     3.219021
      pz      :     1.036456  p :     2.895770
      px      :     0.773780
      py      :     1.085533
      dz2     :     0.012040  d :     0.053939
      dxz     :     0.010418
      dyz     :     0.006747
      dx2y2   :     0.016666
      dxy     :     0.008067
 11 H s       :     0.824399  s :     0.824399
 12 H s       :     0.828572  s :     0.828572
 13 C s       :     3.252666  s :     3.252666
      pz      :     0.997102  p :     2.977224
      px      :     0.936680
      py      :     1.043442
      dz2     :     0.010098  d :     0.039884
      dxz     :     0.007219
      dyz     :     0.005887
      dx2y2   :     0.010179
      dxy     :     0.006500
 14 H s       :     0.843110  s :     0.843110
 15 H s       :     0.851399  s :     0.851399
 16 C s       :     2.984650  s :     2.984650
      pz      :     0.760575  p :     2.380162
      px      :     0.782658
      py      :     0.836929
      dz2     :     0.034769  d :     0.107337
      dxz     :     0.021247
      dyz     :     0.022731
      dx2y2   :     0.013723
      dxy     :     0.014867
 17 N s       :     3.534025  s :     3.534025
      pz      :     1.114603  p :     3.789607
      px      :     1.474275
      py      :     1.200728
      dz2     :     0.008892  d :     0.037798
      dxz     :     0.007315
      dyz     :     0.010421
      dx2y2   :     0.004922
      dxy     :     0.006248
 18 O s       :     3.859355  s :     3.859355
      pz      :     1.586144  p :     4.663885
      px      :     1.446819
      py      :     1.630921
      dz2     :     0.005163  d :     0.024943
      dxz     :     0.005680
      dyz     :     0.005554
      dx2y2   :     0.004880
      dxy     :     0.003666
 19 C s       :     3.269547  s :     3.269547
      pz      :     0.938281  p :     3.030161
      px      :     1.047376
      py      :     1.044504
      dz2     :     0.005428  d :     0.048216
      dxz     :     0.015061
      dyz     :     0.012673
      dx2y2   :     0.004002
      dxy     :     0.011052
 20 H s       :     0.829134  s :     0.829134
 21 H s       :     0.827689  s :     0.827689
 22 H s       :     0.803853  s :     0.803853
 23 C s       :     3.259243  s :     3.259243
      pz      :     1.097321  p :     3.023269
      px      :     1.042351
      py      :     0.883597
      dz2     :     0.004693  d :     0.047934
      dxz     :     0.011748
      dyz     :     0.010228
      dx2y2   :     0.009725
      dxy     :     0.011540
 24 H s       :     0.829005  s :     0.829005
 25 H s       :     0.816469  s :     0.816469
 26 H s       :     0.828104  s :     0.828104
 27 C s       :     3.243716  s :     3.243716
      pz      :     1.001419  p :     2.969269
      px      :     0.937073
      py      :     1.030777
      dz2     :     0.011060  d :     0.040772
      dxz     :     0.006453
      dyz     :     0.005709
      dx2y2   :     0.011373
      dxy     :     0.006177
 28 H s       :     0.859944  s :     0.859944
 29 H s       :     0.859906  s :     0.859906
 30 C s       :     3.293870  s :     3.293870
      pz      :     1.029576  p :     3.125208
      px      :     1.042833
      py      :     1.052799
      dz2     :     0.010474  d :     0.035034
      dxz     :     0.004367
      dyz     :     0.005332
      dx2y2   :     0.011924
      dxy     :     0.002937
 31 H s       :     0.852021  s :     0.852021
 32 H s       :     0.852267  s :     0.852267
 33 H s       :     0.852841  s :     0.852841


                     *******************************
                     * LOEWDIN POPULATION ANALYSIS *
                     *******************************

----------------------
LOEWDIN ATOMIC CHARGES
----------------------
   0 C :   -0.392966
   1 H :    0.153477
   2 H :    0.159135
   3 H :    0.149857
   4 C :    0.117053
   5 O :   -0.341409
   6 N :   -0.067325
   7 C :   -0.178430
   8 H :    0.144453
   9 H :    0.158804
  10 C :   -0.160054
  11 H :    0.139968
  12 H :    0.139181
  13 C :   -0.244268
  14 H :    0.129684
  15 H :    0.124300
  16 C :    0.097744
  17 N :   -0.070477
  18 O :   -0.341842
  19 C :   -0.286720
  20 H :    0.132071
  21 H :    0.136377
  22 H :    0.149301
  23 C :   -0.281134
  24 H :    0.131488
  25 H :    0.146763
  26 H :    0.136870
  27 C :   -0.233495
  28 H :    0.121227
  29 H :    0.121735
  30 C :   -0.367070
  31 H :    0.124698
  32 H :    0.124663
  33 H :    0.126342

-------------------------------
LOEWDIN REDUCED ORBITAL CHARGES
-------------------------------
  0 C s       :     2.981708  s :     2.981708
      pz      :     1.132858  p :     3.348450
      px      :     1.126116
      py      :     1.089475
      dz2     :     0.004820  d :     0.062808
      dxz     :     0.015824
      dyz     :     0.017365
      dx2y2   :     0.008424
      dxy     :     0.016374
  1 H s       :     0.846523  s :     0.846523
  2 H s       :     0.840865  s :     0.840865
  3 H s       :     0.850143  s :     0.850143
  4 C s       :     2.849856  s :     2.849856
      pz      :     0.849444  p :     2.778575
      px      :     0.990147
      py      :     0.938984
      dz2     :     0.030686  d :     0.254517
      dxz     :     0.060320
      dyz     :     0.020653
      dx2y2   :     0.052339
      dxy     :     0.090520
  5 O s       :     3.565039  s :     3.565039
      pz      :     1.564003  p :     4.725185
      px      :     1.452103
      py      :     1.709079
      dz2     :     0.006516  d :     0.051185
      dxz     :     0.013439
      dyz     :     0.000808
[...]
     76      -0.000491  -0.000243  -0.000976  -0.000094  -0.088695  -0.469167
     77       0.000831   0.000414   0.001123   0.000117   0.145555   0.763314
     78       0.000314  -0.000043  -0.001821   0.000109   0.032960   0.162879
     79       0.000167  -0.000076  -0.001734   0.000095   0.027498   0.129344
     80       0.000224  -0.000047  -0.001492   0.000087   0.022587   0.110919
     81      -0.000407  -0.000191  -0.000001   0.000015  -0.000003   0.000000
     82      -0.004452  -0.002259   0.000029  -0.000117  -0.000003   0.000005
     83       0.002376   0.001259   0.000013   0.000130  -0.000019  -0.000003
     84       0.013515   0.006802  -0.000034   0.000400  -0.000017  -0.000017
     85       0.041318   0.020520  -0.000202   0.000947   0.000014  -0.000057
     86       0.000869   0.000486  -0.000004   0.000027   0.000002  -0.000000
     87      -0.007338  -0.003819   0.000040  -0.000380   0.000045   0.000009
     88       0.011966   0.006257  -0.000021   0.000540  -0.000059  -0.000011
     89      -0.029916  -0.015740   0.000040  -0.001414   0.000158   0.000033
     90      -0.000411  -0.000159   0.000006   0.000034  -0.000007  -0.000001
     91      -0.001422  -0.000713  -0.000008  -0.000021   0.000004   0.000004
     92       0.000703   0.000410  -0.000007   0.000007   0.000001  -0.000002
     93       0.002383   0.001168   0.000016   0.000031  -0.000010  -0.000030
     94       0.014939   0.007305   0.000076   0.000316  -0.000036  -0.000050
     95       0.001047   0.000523  -0.000001   0.000046  -0.000008  -0.000010
     96      -0.001235  -0.000678   0.000003   0.000017  -0.000006   0.000003
     97       0.003728   0.002103  -0.000016   0.000030   0.000000  -0.000010
     98      -0.010706  -0.005999   0.000051  -0.000116   0.000001   0.000025
     99       0.004001   0.001651  -0.000178  -0.000547   0.000157   0.000024
    100       0.000412   0.000159   0.000001  -0.000010   0.000003   0.000004
    101       0.000842   0.000296  -0.000017  -0.000092   0.000019   0.000005


-----------
IR SPECTRUM
-----------

 Mode   freq       eps      Int      T**2         TX        TY        TZ
       cm**-1   L/(mol*cm) km/mol    a.u.
----------------------------------------------------------------------------
  6:     42.19   0.000693    3.50  0.005124  ( 0.070808 -0.007625 -0.007245)
  7:     46.74   0.000077    0.39  0.000511  (-0.010534 -0.002058  0.019900)
  8:     53.48   0.000734    3.71  0.004280  (-0.045440 -0.036597  0.029597)
  9:     74.64   0.001369    6.92  0.005723  ( 0.044103  0.045293 -0.041549)
 10:     80.34   0.000040    0.20  0.000157  ( 0.005090  0.011102 -0.002837)
 11:     88.02   0.000019    0.10  0.000067  (-0.000136 -0.001381 -0.008050)
 12:    104.22   0.002270   11.47  0.006798  ( 0.008931 -0.065009 -0.049920)
 13:    127.79   0.001134    5.73  0.002768  (-0.010564 -0.043103 -0.028265)
 14:    141.33   0.000898    4.54  0.001982  ( 0.003622  0.043485  0.008842)
 15:    160.29   0.000155    0.79  0.000303  ( 0.010253  0.007548 -0.011853)
 16:    168.44   0.000078    0.40  0.000145  ( 0.004558  0.000628 -0.011129)
 17:    204.61   0.000207    1.04  0.000315  (-0.014572 -0.003224  0.009607)
 18:    240.02   0.000716    3.62  0.000931  (-0.013817 -0.026603  0.005694)
 19:    247.30   0.000197    1.00  0.000249  (-0.011465 -0.010775  0.001059)
 20:    264.65   0.001444    7.30  0.001703  (-0.037231 -0.017785 -0.000732)
 21:    279.57   0.001088    5.50  0.001214  ( 0.018596  0.024756  0.015990)
 22:    342.11   0.001960    9.91  0.001788  (-0.003088  0.027329  0.032121)
 23:    360.64   0.001696    8.57  0.001468  (-0.009224  0.013391 -0.034690)
 24:    388.50   0.001879    9.49  0.001509  (-0.011982  0.017844  0.032357)
 25:    427.18   0.000832    4.20  0.000608  (-0.004383  0.022720  0.008500)
 26:    443.26   0.001592    8.05  0.001121  ( 0.010654 -0.027667 -0.015553)
 27:    457.13   0.002759   13.94  0.001883  ( 0.041070 -0.013445  0.003992)
 28:    498.86   0.004751   24.01  0.002972  (-0.033998 -0.036665  0.021715)
 29:    579.62   0.003790   19.15  0.002041  (-0.017446  0.039642  0.012841)
 30:    600.34   0.001968    9.95  0.001023  (-0.021325  0.022613  0.007548)
 31:    634.40   0.004950   25.02  0.002435  (-0.005942  0.000414 -0.048985)
 32:    702.48   0.000833    4.21  0.000370  (-0.012218 -0.001190 -0.014807)
 33:    737.40   0.002429   12.28  0.001028  (-0.003631 -0.028520  0.014194)
 34:    761.52   0.002721   13.75  0.001115  ( 0.005906  0.023934  0.022520)
 35:    796.90   0.001486    7.51  0.000582  (-0.013646 -0.012959 -0.015095)
 36:    824.17   0.004179   21.12  0.001582  ( 0.020728  0.007472  0.033119)
 37:    918.02   0.000686    3.47  0.000233  (-0.014081  0.003158  0.005007)
 38:    950.55   0.002171   10.97  0.000713  ( 0.001491  0.019426 -0.018253)
 39:    958.68   0.000626    3.16  0.000204  (-0.010788 -0.009043 -0.002383)
 40:   1003.11   0.006776   34.24  0.002108  ( 0.006591 -0.022387 -0.039539)
 41:   1009.80   0.005345   27.01  0.001652  (-0.031132  0.021757 -0.014470)
 42:   1028.19   0.004610   23.29  0.001399  (-0.023226  0.021675  0.019743)
 43:   1061.81   0.001865    9.43  0.000548  (-0.002289  0.015064  0.017779)
 44:   1068.00   0.000453    2.29  0.000132  ( 0.007865 -0.007332 -0.004100)
 45:   1079.24   0.007091   35.84  0.002050  (-0.013217  0.024361 -0.035809)
 46:   1090.54   0.001410    7.12  0.000403  ( 0.012499 -0.015651  0.001479)
 47:   1134.93   0.000534    2.70  0.000147  (-0.000103  0.011612 -0.003443)
 48:   1138.45   0.002649   13.39  0.000726  (-0.016884 -0.001773 -0.020926)
 49:   1157.03   0.009145   46.22  0.002467  (-0.017876 -0.027585 -0.037229)
 50:   1183.04   0.002322   11.74  0.000613  ( 0.009753  0.002122  0.022649)
 51:   1201.31   0.010318   52.14  0.002680  (-0.008260  0.007009 -0.050625)
 52:   1233.02   0.004203   21.24  0.001064  (-0.024255  0.007701  0.020397)
 53:   1267.00   0.021967  111.01  0.005410  (-0.023843  0.060183 -0.034928)
 54:   1286.55   0.012205   61.68  0.002960  (-0.020510  0.042216  0.027524)
 55:   1292.70   0.022735  114.90  0.005488  (-0.001073 -0.066161  0.033316)
 56:   1309.06   0.000689    3.48  0.000164  ( 0.007869 -0.010030 -0.001351)
 57:   1336.06   0.001900    9.60  0.000444  ( 0.016748 -0.012220  0.003726)
 58:   1348.52   0.002123   10.73  0.000491  (-0.013962  0.016974 -0.002854)
 59:   1369.62   0.000652    3.29  0.000148  (-0.007309  0.000879 -0.009710)
 60:   1398.74   0.001083    5.47  0.000242  ( 0.015096 -0.001371  0.003439)
 61:   1410.50   0.004399   22.23  0.000973  ( 0.027819  0.008803 -0.011037)
 62:   1424.93   0.007581   38.31  0.001660  (-0.034777  0.018620 -0.010204)
 63:   1429.03   0.000754    3.81  0.000165  (-0.008517  0.002414 -0.009287)
 64:   1440.08   0.014382   72.68  0.003117  (-0.004097 -0.022973 -0.050716)
 65:   1456.52   0.017972   90.82  0.003851  ( 0.005343 -0.050267 -0.035989)
 66:   1475.26   0.047777  241.45  0.010106  (-0.051307  0.074154 -0.044442)
 67:   1484.52   0.003722   18.81  0.000782  ( 0.022260  0.016889  0.001267)
 68:   1489.23   0.000811    4.10  0.000170  ( 0.008824  0.002845 -0.009166)
 69:   1497.29   0.001767    8.93  0.000368  (-0.001643 -0.013689  0.013350)
 70:   1501.63   0.001245    6.29  0.000259  ( 0.001974  0.005001  0.015163)
 71:   1503.99   0.005967   30.16  0.001238  ( 0.006710  0.024749 -0.024097)
 72:   1510.38   0.001057    5.34  0.000218  ( 0.009443 -0.011279  0.001445)
 73:   1512.21   0.002315   11.70  0.000478  ( 0.002694 -0.020946  0.005635)
 74:   1513.23   0.000775    3.92  0.000160  ( 0.000931  0.009806 -0.007920)
 75:   1517.56   0.002991   15.11  0.000615  (-0.019264 -0.013454 -0.007927)
 76:   1526.70   0.000949    4.80  0.000194  (-0.002275 -0.012242  0.006239)
 77:   1528.72   0.006781   34.27  0.001384  ( 0.036244  0.008396 -0.000458)
 78:   1536.78   0.004393   22.20  0.000892  (-0.001187 -0.004383  0.029520)
 79:   1554.32   0.017546   88.67  0.003523  ( 0.010205 -0.039144 -0.043432)
 80:   1700.15   0.145086  733.21  0.026631  ( 0.142405 -0.034854  0.071671)
 81:   1710.19   0.093363  471.82  0.017036  ( 0.019324 -0.034339  0.124433)
 82:   3024.12   0.009075   45.86  0.000936  (-0.009143 -0.016333 -0.024209)
 83:   3035.30   0.003789   19.15  0.000390  ( 0.006793 -0.017006  0.007361)
 84:   3035.89   0.008158   41.23  0.000839  ( 0.019776 -0.016148 -0.013666)
 85:   3040.10   0.018068   91.31  0.001855  ( 0.013318 -0.006240 -0.040476)
 86:   3045.57   0.007908   39.97  0.000810  (-0.006958 -0.012943 -0.024380)
 87:   3054.11   0.006590   33.30  0.000673  ( 0.002632 -0.012839  0.022396)
 88:   3064.41   0.000614    3.10  0.000063  (-0.003940 -0.005347  0.004290)
 89:   3074.50   0.010190   51.50  0.001034  ( 0.015717  0.009161  0.026520)
 90:   3084.01   0.009620   48.62  0.000973  ( 0.001701  0.007389 -0.030265)
 91:   3093.08   0.000521    2.63  0.000053  (-0.003709  0.006022 -0.001582)
 92:   3098.96   0.016546   83.61  0.001666  (-0.032579 -0.022044 -0.010900)
 93:   3101.05   0.025462  128.68  0.002562  ( 0.004561  0.043563 -0.025372)
 94:   3101.45   0.000911    4.60  0.000092  (-0.005941 -0.007342 -0.001564)
 95:   3105.90   0.013381   67.62  0.001344  ( 0.030913  0.008830  0.017630)
 96:   3129.24   0.009907   50.06  0.000988  (-0.003518 -0.031078  0.003122)
 97:   3130.64   0.004097   20.71  0.000408  (-0.006251 -0.011651  0.015284)
 98:   3160.67   0.001906    9.63  0.000188  ( 0.000142 -0.012673 -0.005251)
 99:   3170.94   0.002943   14.87  0.000290  (-0.012724  0.008513 -0.007436)
100:   3190.48   0.000668    3.38  0.000065  ( 0.004762  0.006193 -0.002081)
101:   3194.19   0.000924    4.67  0.000090  (-0.004797  0.006900 -0.004437)

* The epsilon (eps) is given for a Dirac delta lineshape.
** The dipole moment derivative (T) already includes vibrational overlap.

The first frequency considered to be a vibration is 6
The total number of vibrations considered is 96


--------------------------
THERMOCHEMISTRY AT 298.15K
--------------------------

Temperature         ... 298.15 K
Pressure            ... 1.00 atm
Total Mass          ... 200.28 AMU

Throughout the following assumptions are being made:
  (1) The electronic state is orbitally nondegenerate
  (2) There are no thermally accessible electronically excited states
  (3) Hindered rotations indicated by low frequency modes are not
      treated as such but are treated as vibrations and this may
      cause some error
  (4) All equations used are the standard statistical mechanics
      equations for an ideal gas
  (5) All vibrations are strictly harmonic

freq.      42.19  E(vib)   ...       0.53 
freq.      46.74  E(vib)   ...       0.53 
freq.      53.48  E(vib)   ...       0.52 
freq.      74.64  E(vib)   ...       0.49 
freq.      80.34  E(vib)   ...       0.49 
freq.      88.02  E(vib)   ...       0.48 
freq.     104.22  E(vib)   ...       0.46 
freq.     127.79  E(vib)   ...       0.43 
freq.     141.33  E(vib)   ...       0.41 
freq.     160.29  E(vib)   ...       0.39 
freq.     168.44  E(vib)   ...       0.38 
freq.     204.61  E(vib)   ...       0.35 
freq.     240.02  E(vib)   ...       0.31 
freq.     247.30  E(vib)   ...       0.31 
freq.     264.65  E(vib)   ...       0.29 
freq.     279.57  E(vib)   ...       0.28 
freq.     342.11  E(vib)   ...       0.23 
freq.     360.64  E(vib)   ...       0.22 
freq.     388.50  E(vib)   ...       0.20 
freq.     427.18  E(vib)   ...       0.18 
freq.     443.26  E(vib)   ...       0.17 
freq.     457.13  E(vib)   ...       0.16 
freq.     498.86  E(vib)   ...       0.14 
freq.     579.62  E(vib)   ...       0.11 
freq.     600.34  E(vib)   ...       0.10 
freq.     634.40  E(vib)   ...       0.09 
freq.     702.48  E(vib)   ...       0.07 
freq.     737.40  E(vib)   ...       0.06 
freq.     761.52  E(vib)   ...       0.06 
freq.     796.90  E(vib)   ...       0.05 
freq.     824.17  E(vib)   ...       0.05 
freq.     918.02  E(vib)   ...       0.03 
freq.     950.55  E(vib)   ...       0.03 
freq.     958.68  E(vib)   ...       0.03 
freq.    1003.11  E(vib)   ...       0.02 
freq.    1009.80  E(vib)   ...       0.02 
freq.    1028.19  E(vib)   ...       0.02 
freq.    1061.81  E(vib)   ...       0.02 
freq.    1068.00  E(vib)   ...       0.02 
freq.    1079.24  E(vib)   ...       0.02 
freq.    1090.54  E(vib)   ...       0.02 
freq.    1134.93  E(vib)   ...       0.01 
freq.    1138.45  E(vib)   ...       0.01 
freq.    1157.03  E(vib)   ...       0.01 
freq.    1183.04  E(vib)   ...       0.01 
freq.    1201.31  E(vib)   ...       0.01 
freq.    1233.02  E(vib)   ...       0.01 
freq.    1267.00  E(vib)   ...       0.01 
freq.    1286.55  E(vib)   ...       0.01 
freq.    1292.70  E(vib)   ...       0.01 
freq.    1309.06  E(vib)   ...       0.01 
freq.    1336.06  E(vib)   ...       0.01 
freq.    1348.52  E(vib)   ...       0.01 
freq.    1369.62  E(vib)   ...       0.01 
freq.    1398.74  E(vib)   ...       0.00 
freq.    1410.50  E(vib)   ...       0.00 
freq.    1424.93  E(vib)   ...       0.00 
freq.    1429.03  E(vib)   ...       0.00 
freq.    1440.08  E(vib)   ...       0.00 
freq.    1456.52  E(vib)   ...       0.00 
freq.    1475.26  E(vib)   ...       0.00 
freq.    1484.52  E(vib)   ...       0.00 
freq.    1489.23  E(vib)   ...       0.00 
freq.    1497.29  E(vib)   ...       0.00 
freq.    1501.63  E(vib)   ...       0.00 
freq.    1503.99  E(vib)   ...       0.00 
freq.    1510.38  E(vib)   ...       0.00 
freq.    1512.21  E(vib)   ...       0.00 
freq.    1513.23  E(vib)   ...       0.00 
freq.    1517.56  E(vib)   ...       0.00 
freq.    1526.70  E(vib)   ...       0.00 
freq.    1528.72  E(vib)   ...       0.00 
freq.    1536.78  E(vib)   ...       0.00 
freq.    1554.32  E(vib)   ...       0.00 
freq.    1700.15  E(vib)   ...       0.00 
freq.    1710.19  E(vib)   ...       0.00 
freq.    3024.12  E(vib)   ...       0.00 
freq.    3035.30  E(vib)   ...       0.00 
freq.    3035.89  E(vib)   ...       0.00 
freq.    3040.10  E(vib)   ...       0.00 
freq.    3045.57  E(vib)   ...       0.00 
freq.    3054.11  E(vib)   ...       0.00 
freq.    3064.41  E(vib)   ...       0.00 
freq.    3074.50  E(vib)   ...       0.00 
freq.    3084.01  E(vib)   ...       0.00 
freq.    3093.08  E(vib)   ...       0.00 
freq.    3098.96  E(vib)   ...       0.00 
freq.    3101.05  E(vib)   ...       0.00 
freq.    3101.45  E(vib)   ...       0.00 
freq.    3105.90  E(vib)   ...       0.00 
freq.    3129.24  E(vib)   ...       0.00 
freq.    3130.64  E(vib)   ...       0.00 
freq.    3160.67  E(vib)   ...       0.00 
freq.    3170.94  E(vib)   ...       0.00 
freq.    3190.48  E(vib)   ...       0.00 
freq.    3194.19  E(vib)   ...       0.00 

------------
INNER ENERGY
------------

The inner energy is: U= E(el) + E(ZPE) + E(vib) + E(rot) + E(trans)
    E(el)   - is the total energy from the electronic structure calculation
              = E(kin-el) + E(nuc-el) + E(el-el) + E(nuc-nuc)
    E(ZPE)  - the the zero temperature vibrational energy from the frequency calculation
    E(vib)  - the the finite temperature correction to E(ZPE) due to population
              of excited vibrational states
    E(rot)  - is the rotational thermal energy
    E(trans)- is the translational thermal energy

Summary of contributions to the inner energy U:
Electronic energy                ...   -652.74171770 Eh
Zero point energy                ...      0.30153822 Eh     189.22 kcal/mol
Thermal vibrational correction   ...      0.01425026 Eh       8.94 kcal/mol
Thermal rotational correction    ...      0.00141627 Eh       0.89 kcal/mol
Thermal translational correction ...      0.00141627 Eh       0.89 kcal/mol
-----------------------------------------------------------------------
Total thermal energy                   -652.42309668 Eh


Summary of corrections to the electronic energy:
(perhaps to be used in another calculation)
Total thermal correction                  0.01708280 Eh      10.72 kcal/mol
Non-thermal (ZPE) correction              0.30153822 Eh     189.22 kcal/mol
-----------------------------------------------------------------------
Total correction                          0.31862102 Eh     199.94 kcal/mol


--------
ENTHALPY
--------

The enthalpy is H = U + kB*T
                kB is Boltzmann's constant
Total free energy                 ...   -652.42309668 Eh 
Thermal Enthalpy correction       ...      0.00094421 Eh       0.59 kcal/mol
-----------------------------------------------------------------------
Total Enthalpy                    ...   -652.42215247 Eh


Note: Only C1 symmetry has been detected, increase convergence thresholds 
      if your molecule has a higher symmetry. Symmetry factor of 1.0 is   
      used for the rotational entropy correction. 
 

Note: Rotational entropy computed according to Herzberg 
Infrared and Raman Spectra, Chapter V,1, Van Nostrand Reinhold, 1945 
Point Group:  C1, Symmetry Number:   1  
Rotational constants in cm-1:     0.021059     0.019595     0.012942 

Vibrational entropy computed according to the QRRHO of S. Grimme
Chem.Eur.J. 2012 18 9955


-------
ENTROPY
-------

The entropy contributions are T*S = T*(S(el)+S(vib)+S(rot)+S(trans))
     S(el)   - electronic entropy
     S(vib)  - vibrational entropy
     S(rot)  - rotational entropy
     S(trans)- translational entropy
The entropies will be listed as multiplied by the temperature to get
units of energy

Electronic entropy                ...      0.00000000 Eh      0.00 kcal/mol
Vibrational entropy               ...      0.02568710 Eh     16.12 kcal/mol
Rotational entropy                ...      0.01524204 Eh      9.56 kcal/mol
Translational entropy             ...      0.01985492 Eh     12.46 kcal/mol
-----------------------------------------------------------------------
Final entropy term                ...      0.06078406 Eh     38.14 kcal/mol

In case the symmetry of your molecule has not been determined correctly
or in case you have a reason to use a different symmetry number we print 
out the resulting rotational entropy values for sn=1,12 :
 --------------------------------------------------------
|  sn= 1 | S(rot)=       0.01524204 Eh      9.56 kcal/mol|
|  sn= 2 | S(rot)=       0.01458758 Eh      9.15 kcal/mol|
|  sn= 3 | S(rot)=       0.01420475 Eh      8.91 kcal/mol|
|  sn= 4 | S(rot)=       0.01393313 Eh      8.74 kcal/mol|
|  sn= 5 | S(rot)=       0.01372244 Eh      8.61 kcal/mol|
|  sn= 6 | S(rot)=       0.01355029 Eh      8.50 kcal/mol|
|  sn= 7 | S(rot)=       0.01340475 Eh      8.41 kcal/mol|
|  sn= 8 | S(rot)=       0.01327867 Eh      8.33 kcal/mol|
|  sn= 9 | S(rot)=       0.01316746 Eh      8.26 kcal/mol|
|  sn=10 | S(rot)=       0.01306798 Eh      8.20 kcal/mol|
|  sn=11 | S(rot)=       0.01297799 Eh      8.14 kcal/mol|
|  sn=12 | S(rot)=       0.01289584 Eh      8.09 kcal/mol|
 --------------------------------------------------------


-------------------
GIBBS FREE ENERGY
-------------------

The Gibbs free energy is G = H - T*S

Total enthalpy                    ...   -652.42215247 Eh 
Total entropy correction          ...     -0.06078406 Eh    -38.14 kcal/mol
-----------------------------------------------------------------------
Final Gibbs free energy         ...   -652.48293653 Eh

For completeness - the Gibbs free energy minus the electronic energy
G-E(el)                           ...      0.25878117 Eh    162.39 kcal/mol


Timings for individual modules:

Sum of individual times         ...     1607.575 sec (=  26.793 min)
GTO integral calculation        ...       20.621 sec (=   0.344 min)   1.3 %
SCF iterations                  ...      765.666 sec (=  12.761 min)  47.6 %
SCF Gradient evaluation         ...      249.703 sec (=   4.162 min)  15.5 %
Geometry relaxation             ...        1.683 sec (=   0.028 min)   0.1 %
Analytical frequency calculation...      569.902 sec (=   9.498 min)  35.5 %
                             ****ORCA TERMINATED NORMALLY****
TOTAL RUN TIME: 0 days 0 hours 26 minutes 53 seconds 953 msec
