
                                 *****************
                                 * O   R   C   A *
                                 *****************

                                            #,                                       
                                            ###                                      
                                            ####                                     
                                            #####                                    
                                            ######                                   
                                           ########,                                 
                                     ,,################,,,,,                         
                               ,,#################################,,                 
                          ,,##########################################,,             
                       ,#########################################, ''#####,          
                    ,#############################################,,   '####,        
                  ,##################################################,,,,####,       
                ,###########''''           ''''###############################       
              ,#####''   ,,,,##########,,,,          '''####'''          '####       
            ,##' ,,,,###########################,,,                        '##       
           ' ,,###''''                  '''############,,,                           
         ,,##''                                '''############,,,,        ,,,,,,###''
      ,#''                                            '''#######################'''  
     '                                                          ''''####''''         
             ,#######,   #######,   ,#######,      ##                                
            ,#'     '#,  ##    ##  ,#'     '#,    #''#        ######   ,####,        
            ##       ##  ##   ,#'  ##            #'  '#       #        #'  '#        
            ##       ##  #######   ##           ,######,      #####,   #    #        
            '#,     ,#'  ##    ##  '#,     ,#' ,#      #,         ##   #,  ,#        
             '#######'   ##     ##  '#######'  #'      '#     #####' # '####'        



                  #######################################################
                  #                        -***-                        #
                  #          Department of theory and spectroscopy      #
                  #    Directorship and core code : Frank Neese         #
                  #        Max Planck Institute fuer Kohlenforschung    #
                  #                Kaiser Wilhelm Platz 1               #
                  #                 D-45470 Muelheim/Ruhr               #
                  #                      Germany                        #
                  #                                                     #
                  #                  All rights reserved                #
                  #                        -***-                        #
                  #######################################################


                         Program Version 5.0.4 -  RELEASE  -


 With contributions from (in alphabetic order):
   Daniel Aravena         : Magnetic Suceptibility
   Michael Atanasov       : Ab Initio Ligand Field Theory (pilot matlab implementation)
   Alexander A. Auer      : GIAO ZORA, VPT2 properties, NMR spectrum
   Ute Becker             : Parallelization
   Giovanni Bistoni       : ED, misc. LED, open-shell LED, HFLD
   Martin Brehm           : Molecular dynamics
   Dmytro Bykov           : SCF Hessian
   Vijay G. Chilkuri      : MRCI spin determinant printing, contributions to CSF-ICE
   Dipayan Datta          : RHF DLPNO-CCSD density
   Achintya Kumar Dutta   : EOM-CC, STEOM-CC
   Dmitry Ganyushin       : Spin-Orbit,Spin-Spin,Magnetic field MRCI
   Miquel Garcia          : C-PCM and meta-GGA Hessian, CC/C-PCM, Gaussian charge scheme
   Yang Guo               : DLPNO-NEVPT2, F12-NEVPT2, CIM, IAO-localization
   Andreas Hansen         : Spin unrestricted coupled pair/coupled cluster methods
   Benjamin Helmich-Paris : MC-RPA, TRAH-SCF, COSX integrals
   Lee Huntington         : MR-EOM, pCC
   Robert Izsak           : Overlap fitted RIJCOSX, COSX-SCS-MP3, EOM
   Marcus Kettner         : VPT2
   Christian Kollmar      : KDIIS, OOCD, Brueckner-CCSD(T), CCSD density, CASPT2, CASPT2-K
   Simone Kossmann        : Meta GGA functionals, TD-DFT gradient, OOMP2, MP2 Hessian
   Martin Krupicka        : Initial AUTO-CI
   Lucas Lang             : DCDCAS
   Marvin Lechner         : AUTO-CI (C++ implementation), FIC-MRCC
   Dagmar Lenk            : GEPOL surface, SMD
   Dimitrios Liakos       : Extrapolation schemes; Compound Job, initial MDCI parallelization
   Dimitrios Manganas     : Further ROCIS development; embedding schemes
   Dimitrios Pantazis     : SARC Basis sets
   Anastasios Papadopoulos: AUTO-CI, single reference methods and gradients
   Taras Petrenko         : DFT Hessian,TD-DFT gradient, ASA, ECA, R-Raman, ABS, FL, XAS/XES, NRVS
   Peter Pinski           : DLPNO-MP2, DLPNO-MP2 Gradient
   Christoph Reimann      : Effective Core Potentials
   Marius Retegan         : Local ZFS, SOC
   Christoph Riplinger    : Optimizer, TS searches, QM/MM, DLPNO-CCSD(T), (RO)-DLPNO pert. Triples
   Tobias Risthaus        : Range-separated hybrids, TD-DFT gradient, RPA, STAB
   Michael Roemelt        : Original ROCIS implementation
   Masaaki Saitow         : Open-shell DLPNO-CCSD energy and density
   Barbara Sandhoefer     : DKH picture change effects
   Avijit Sen             : IP-ROCIS
   Kantharuban Sivalingam : CASSCF convergence, NEVPT2, FIC-MRCI
   Bernardo de Souza      : ESD, SOC TD-DFT
   Georgi Stoychev        : AutoAux, RI-MP2 NMR, DLPNO-MP2 response
   Willem Van den Heuvel  : Paramagnetic NMR
   Boris Wezisla          : Elementary symmetry handling
   Frank Wennmohs         : Technical directorship


 We gratefully acknowledge several colleagues who have allowed us to
 interface, adapt or use parts of their codes:
   Stefan Grimme, W. Hujo, H. Kruse, P. Pracht,  : VdW corrections, initial TS optimization,
                  C. Bannwarth, S. Ehlert          DFT functionals, gCP, sTDA/sTD-DF
   Ed Valeev, F. Pavosevic, A. Kumar             : LibInt (2-el integral package), F12 methods
   Garnet Chan, S. Sharma, J. Yang, R. Olivares  : DMRG
   Ulf Ekstrom                                   : XCFun DFT Library
   Mihaly Kallay                                 : mrcc  (arbitrary order and MRCC methods)
   Jiri Pittner, Ondrej Demel                    : Mk-CCSD
   Frank Weinhold                                : gennbo (NPA and NBO analysis)
   Christopher J. Cramer and Donald G. Truhlar   : smd solvation model
   Lars Goerigk                                  : TD-DFT with DH, B97 family of functionals
   V. Asgeirsson, H. Jonsson                     : NEB implementation
   FAccTs GmbH                                   : IRC, NEB, NEB-TS, DLPNO-Multilevel, CI-OPT
                                                   MM, QMMM, 2- and 3-layer-ONIOM, Crystal-QMMM,
                                                   LR-CPCM, SF, NACMEs, symmetry and pop. for TD-DFT,
                                                   nearIR, NL-DFT gradient (VV10), updates on ESD,
                                                   ML-optimized integration grids
   S Lehtola, MJT Oliveira, MAL Marques          : LibXC Library
   Liviu Ungur et al                             : ANISO software


 Your calculation uses the libint2 library for the computation of 2-el integrals
 For citations please refer to: http://libint.valeyev.net

 Your ORCA version has been built with support for libXC version: 5.1.0
 For citations please refer to: https://tddft.org/programs/libxc/

 This ORCA versions uses:
   CBLAS   interface :  Fast vector & matrix operations
   LAPACKE interface :  Fast linear algebra routines
   SCALAPACK package :  Parallel linear algebra routines
   Shared memory     :  Shared parallel matrices
   BLAS/LAPACK       :  OpenBLAS 0.3.15  USE64BITINT DYNAMIC_ARCH NO_AFFINITY SkylakeX SINGLE_THREADED
        Core in use  :  SkylakeX
   Copyright (c) 2011-2014, The OpenBLAS Project




***************************************
The coordinates will be read from file: /users/fjb15167/WWenergy/structures/Nke.xyz
***************************************


Your calculation utilizes the atom-pairwise dispersion correction
based on tight binding partial charges (D4)
Cite in your paper:
E.Caldeweyher, C.Bannwarth, S.Grimme, J.Chem.Phys., (2017), 147, 034112.
E.Caldeweyher, S.Ehlert, A.Hansen, H.Neugebauer, S.Grimme, J.Chem.Phys., (2018), in progress.
   

================================================================================

----- Orbital basis set information -----
Your calculation utilizes the basis: 6-31+G(d)
   H-He, Li-Ne : W. J. Hehre, R. Ditchfield and J.A. Pople, J. Chem. Phys. 56, 2257 (1972).
                 Note: He and Ne are unpublished basis sets taken from the Gaussian program.
                 Note: Li and B from J. D. Dill and J. A. Pople, J. Chem. Phys. 62, 2921 (1975).
   Na - Ar     : M. M. Francl, W. J. Pietro, W. J. Hehre, J. S. Binkley, M. S. Gordon, 
                 D. J. DeFrees and J. A. Pople, J. Chem. Phys. 77, 3654 (1982).
   K - Zn      : V. A. Rassolov, J. A. Pople, M. A. Ratner, and T. L. Windus, J. Chem. Phys. 109, 1223 (1998).
   Additional Pol./Diff. from the 6-311G equivalent.

----- AuxJ basis set information -----
Your calculation utilizes the AutoAux generation procedure.
  G. L. Stoychev, A. A. Auer, F. Neese, J. Chem. Theory Comput. 13, 554 (2017)

----- AuxC basis set information -----
Your calculation utilizes the AutoAux generation procedure.
  G. L. Stoychev, A. A. Auer, F. Neese, J. Chem. Theory Comput. 13, 554 (2017)

----- AuxJK basis set information -----
Your calculation utilizes the AutoAux generation procedure.
  G. L. Stoychev, A. A. Auer, F. Neese, J. Chem. Theory Comput. 13, 554 (2017)

================================================================================
                                        WARNINGS
                       Please study these warnings very carefully!
================================================================================


WARNING: Geometry Optimization
  ===> : Switching off AutoStart
         For restart on a previous wavefunction, please use MOREAD

INFO   : the flag for use of the SHARK integral package has been found!

================================================================================
                                       INPUT FILE
================================================================================
NAME = Nke_water.inp
|  1> ! OPT FREQ B3LYP 6-31+G(d) D4 AUTOAUX CPCM(water)
|  2> 
|  3> %PAL NPROCS 4 END
|  4> 
|  5> %maxcore 3375
|  6> 
|  7> *xyzfile 1 1 /users/fjb15167/WWenergy/structures/Nke.xyz
|  8> 
|  9>                          ****END OF INPUT****
================================================================================

                       *****************************
                       * Geometry Optimization Run *
                       *****************************

Geometry optimization settings:
Update method            Update   .... BFGS
Choice of coordinates    CoordSys .... Z-matrix Internals
Initial Hessian          InHess   .... Almoef's Model

Convergence Tolerances:
Energy Change            TolE     ....  5.0000e-06 Eh
Max. Gradient            TolMAXG  ....  3.0000e-04 Eh/bohr
RMS Gradient             TolRMSG  ....  1.0000e-04 Eh/bohr
Max. Displacement        TolMAXD  ....  4.0000e-03 bohr
RMS Displacement         TolRMSD  ....  2.0000e-03 bohr
Strict Convergence                ....  False
------------------------------------------------------------------------------
                        ORCA OPTIMIZATION COORDINATE SETUP
------------------------------------------------------------------------------

The optimization will be done in new redundant internal coordinates
Making redundant internal coordinates   ...  (new redundants) done
Evaluating the initial hessian          ...  (Almloef) done
Evaluating the coordinates              ...  done
Calculating the B-matrix                .... done
Calculating the G-matrix                .... done
Diagonalizing the G-matrix              .... done
Small eigenvalue found = 6.688e-03
Small eigenvalue found = 8.741e-03
Small eigenvalue found = 1.530e-02
Small eigenvalue found = 1.863e-02
Small eigenvalue found = 2.358e-02
The first mode is                       ....   59
The number of degrees of freedom        ....   87

    -----------------------------------------------------------------
                    Redundant Internal Coordinates


    -----------------------------------------------------------------
         Definition                    Initial Value    Approx d2E/dq
    -----------------------------------------------------------------
      1. B(H   1,C   0)                  1.0939         0.354996   
      2. B(H   2,C   0)                  1.0939         0.355010   
      3. B(H   3,C   0)                  1.0900         0.360075   
      4. B(C   4,C   0)                  1.5301         0.373409   
      5. B(O   5,C   4)                  1.2115         1.078121   
      6. B(N   6,C   4)                  1.3907         0.558099   
      7. B(C   7,N   6)                  1.4598         0.432989   
      8. B(H   8,C   7)                  1.0965         0.351583   
      9. B(H   9,C   7)                  1.0903         0.359765   
     10. B(C  10,N   6)                  1.4504         0.448218   
     11. B(H  11,C  10)                  1.0912         0.358531   
     12. B(H  12,C  10)                  1.0990         0.348327   
     13. B(C  13,C  10)                  1.5303         0.373160   
     14. B(H  14,C  13)                  1.0916         0.357924   
     15. B(H  15,C  13)                  1.0922         0.357242   
     16. B(C  16,C   7)                  1.5252         0.380218   
     17. B(N  17,C  16)                  1.3315         0.693689   
     18. B(O  18,C  16)                  1.2645         0.887480   
     19. B(C  19,N  17)                  1.4664         0.422725   
     20. B(H  20,C  19)                  1.0911         0.358673   
     21. B(H  21,C  19)                  1.0933         0.355824   
     22. B(H  22,C  19)                  1.0871         0.363903   
     23. B(C  23,N  17)                  1.4703         0.416564   
     24. B(H  24,C  23)                  1.0919         0.357640   
     25. B(H  25,C  23)                  1.0916         0.357972   
     26. B(H  26,C  23)                  1.0892         0.361137   
     27. B(N  27,C  13)                  1.4949         0.380657   
     28. B(H  28,N  27)                  1.0247         0.409911   
     29. B(H  29,N  27)                  1.0276         0.405611   
     30. B(H  30,N  27)                  1.0732         0.343109   
     31. A(H   1,C   0,C   4)          112.8707         0.323536   
     32. A(H   3,C   0,C   4)          106.4887         0.324292   
     33. A(H   2,C   0,H   3)          108.8061         0.290187   
     34. A(H   1,C   0,H   3)          108.6047         0.290185   
     35. A(H   1,C   0,H   2)          108.2266         0.289541   
     36. A(H   2,C   0,C   4)          111.7310         0.323538   
     37. A(C   0,C   4,O   5)          122.3876         0.434825   
     38. A(O   5,C   4,N   6)          119.9818         0.464638   
     39. A(C   0,C   4,N   6)          117.6300         0.386943   
     40. A(C   4,N   6,C  10)          126.6361         0.396960   
     41. A(C   7,N   6,C  10)          119.8435         0.379767   
     42. A(C   4,N   6,C   7)          112.7115         0.394560   
     43. A(H   8,C   7,C  16)          107.8747         0.323983   
     44. A(N   6,C   7,H   9)          109.5010         0.330260   
     45. A(H   8,C   7,H   9)          108.1228         0.289707   
     46. A(H   9,C   7,C  16)          112.7719         0.325210   
     47. A(N   6,C   7,C  16)          109.5794         0.371462   
     48. A(N   6,C   7,H   8)          108.9018         0.329007   
     49. A(H  12,C  10,C  13)          108.2513         0.322496   
     50. A(H  11,C  10,C  13)          109.6205         0.324027   
     51. A(N   6,C  10,C  13)          111.9153         0.372476   
     52. A(H  11,C  10,H  12)          106.7526         0.289129   
     53. A(N   6,C  10,H  12)          111.4481         0.330383   
     54. A(N   6,C  10,H  11)          108.7138         0.331966   
     55. A(H  14,C  13,H  15)          108.6307         0.290200   
     56. A(H  15,C  13,N  27)          105.7593         0.322954   
     57. A(C  10,C  13,H  15)          111.7458         0.323836   
     58. A(C  10,C  13,H  14)          111.0949         0.323937   
     59. A(H  14,C  13,N  27)          110.1004         0.323055   
     60. A(C  10,C  13,N  27)          109.3721         0.362184   
     61. A(N  17,C  16,O  18)          121.9955         0.466590   
     62. A(C   7,C  16,O  18)          118.4401         0.421280   
     63. A(C   7,C  16,N  17)          119.4558         0.403259   
     64. A(C  16,N  17,C  19)          119.3923         0.408240   
     65. A(C  19,N  17,C  23)          116.8505         0.373438   
     66. A(C  16,N  17,C  23)          122.9503         0.407181   
     67. A(H  21,C  19,H  22)          109.6818         0.290774   
     68. A(H  20,C  19,H  22)          110.0862         0.291138   
     69. A(N  17,C  19,H  22)          108.8737         0.329575   
     70. A(H  20,C  19,H  21)          109.6474         0.290114   
     71. A(N  17,C  19,H  21)          109.7400         0.328356   
     72. A(N  17,C  19,H  20)          108.7930         0.328788   
     73. A(H  25,C  23,H  26)          109.0455         0.290700   
     74. A(H  24,C  23,H  26)          108.0813         0.290658   
     75. A(N  17,C  23,H  26)          107.5792         0.328363   
     76. A(H  24,C  23,H  25)          110.7188         0.290256   
     77. A(N  17,C  23,H  25)          109.9803         0.327887   
     78. A(N  17,C  23,H  24)          111.3374         0.327837   
     79. A(H  29,N  27,H  30)          100.0687         0.289342   
     80. A(H  28,N  27,H  30)          120.5222         0.289821   
     81. A(C  13,N  27,H  30)          104.4659         0.318125   
     82. A(H  28,N  27,H  29)          107.5194         0.297573   
     83. A(C  13,N  27,H  29)          111.4729         0.326970   
     84. A(C  13,N  27,H  28)          112.1650         0.327539   
     85. D(O   5,C   4,C   0,H   2)    116.2500         0.010428   
     86. D(O   5,C   4,C   0,H   1)   -121.5039         0.010428   
     87. D(N   6,C   4,C   0,H   1)     58.2148         0.010428   
     88. D(N   6,C   4,C   0,H   2)    -64.0314         0.010428   
     89. D(N   6,C   4,C   0,H   3)    177.2904         0.010428   
     90. D(O   5,C   4,C   0,H   3)     -2.4282         0.010428   
     91. D(C   7,N   6,C   4,C   0)    174.0695         0.024866   
     92. D(C  10,N   6,C   4,C   0)      4.4850         0.024866   
     93. D(C   7,N   6,C   4,O   5)     -6.2048         0.024866   
     94. D(C  10,N   6,C   4,O   5)   -175.7893         0.024866   
     95. D(C  16,C   7,N   6,C   4)     71.0892         0.015984   
     96. D(H   9,C   7,N   6,C  10)    117.2825         0.015984   
     97. D(H   8,C   7,N   6,C  10)     -0.7552         0.015984   
     98. D(H   9,C   7,N   6,C   4)    -53.0896         0.015984   
     99. D(H   8,C   7,N   6,C   4)   -171.1273         0.015984   
    100. D(C  16,C   7,N   6,C  10)   -118.5387         0.015984   
    101. D(C  13,C  10,N   6,C   7)     67.0484         0.017136   
    102. D(C  13,C  10,N   6,C   4)   -124.0365         0.017136   
    103. D(H  12,C  10,N   6,C   7)    -54.3341         0.017136   
    104. D(H  12,C  10,N   6,C   4)    114.5810         0.017136   
    105. D(H  11,C  10,N   6,C   7)   -171.7247         0.017136   
    106. D(H  11,C  10,N   6,C   4)     -2.8096         0.017136   
    107. D(N  27,C  13,C  10,H  12)    169.2468         0.011120   
    108. D(H  15,C  13,C  10,H  12)     52.4903         0.011120   
    109. D(N  27,C  13,C  10,H  11)    -74.6634         0.011120   
    110. D(H  15,C  13,C  10,H  11)    168.5800         0.011120   
    111. D(H  15,C  13,C  10,N   6)    -70.7184         0.011120   
    112. D(N  27,C  13,C  10,N   6)     46.0381         0.011120   
    113. D(H  14,C  13,C  10,H  12)    -69.0111         0.011120   
    114. D(H  14,C  13,C  10,H  11)     47.0786         0.011120   
    115. D(H  14,C  13,C  10,N   6)    167.7802         0.011120   
    116. D(O  18,C  16,C   7,H   9)    166.8500         0.010787   
    117. D(O  18,C  16,C   7,H   8)    -73.8198         0.010787   
    118. D(O  18,C  16,C   7,N   6)     44.6030         0.010787   
    119. D(N  17,C  16,C   7,H   9)    -16.8625         0.010787   
    120. D(N  17,C  16,C   7,H   8)    102.4676         0.010787   
    121. D(N  17,C  16,C   7,N   6)   -139.1096         0.010787   
    122. D(C  23,N  17,C  16,O  18)   -171.7122         0.039749   
    123. D(C  23,N  17,C  16,C   7)     12.1372         0.039749   
    124. D(C  19,N  17,C  16,O  18)     -2.3307         0.039749   
    125. D(C  19,N  17,C  16,C   7)   -178.4812         0.039749   
    126. D(H  22,C  19,N  17,C  16)     15.6509         0.015236   
    127. D(H  21,C  19,N  17,C  23)     65.6156         0.015236   
    128. D(H  21,C  19,N  17,C  16)   -104.4040         0.015236   
    129. D(H  20,C  19,N  17,C  23)    -54.3479         0.015236   
    130. D(H  22,C  19,N  17,C  23)   -174.3295         0.015236   
    131. D(H  20,C  19,N  17,C  16)    135.6325         0.015236   
    132. D(H  26,C  23,N  17,C  19)      5.8013         0.014798   
    133. D(H  26,C  23,N  17,C  16)    175.4345         0.014798   
    134. D(H  25,C  23,N  17,C  19)   -112.8460         0.014798   
    135. D(H  25,C  23,N  17,C  16)     56.7872         0.014798   
    136. D(H  24,C  23,N  17,C  19)    124.0494         0.014798   
    137. D(H  24,C  23,N  17,C  16)    -66.3174         0.014798   
    138. D(H  30,N  27,C  13,H  15)     42.7762         0.013268   
    139. D(H  30,N  27,C  13,H  14)    159.9537         0.013268   
    140. D(H  30,N  27,C  13,C  10)    -77.7071         0.013268   
    141. D(H  29,N  27,C  13,H  15)    -64.4113         0.013268   
    142. D(H  29,N  27,C  13,H  14)     52.7661         0.013268   
    143. D(H  29,N  27,C  13,C  10)    175.1054         0.013268   
    144. D(H  28,N  27,C  13,H  15)    174.9553         0.013268   
    145. D(H  28,N  27,C  13,H  14)    -67.8672         0.013268   
    146. D(H  28,N  27,C  13,C  10)     54.4721         0.013268   
    -----------------------------------------------------------------

Number of atoms                         .... 31
Number of degrees of freedom            .... 146

         *************************************************************
         *                GEOMETRY OPTIMIZATION CYCLE   1            *
         *************************************************************
---------------------------------
CARTESIAN COORDINATES (ANGSTROEM)
---------------------------------
  C      0.267000    3.124000   -1.208000
  H      1.216000    2.792000   -1.639000
  H      0.475000    3.941000   -0.511000
  H     -0.367000    3.500000   -2.011000
  C     -0.510000    1.990000   -0.536000
  O     -1.631000    1.681000   -0.876000
  N      0.118000    1.301000    0.496000
  C     -0.764000    0.339000    1.150000
  H     -0.264000   -0.050000    2.045000
  H     -1.680000    0.840000    1.464000
  C      1.414000    1.601000    1.074000
  H      1.854000    2.439000    0.531000
  H      1.323000    1.916000    2.123000
  C      2.358000    0.398000    1.015000
  H      3.383000    0.691000    1.250000
  H      2.053000   -0.390000    1.707000
  C     -1.025000   -0.835000    0.212000
  N     -2.250000   -1.351000    0.134000
  O     -0.047000   -1.333000   -0.416000
  C     -2.492000   -2.501000   -0.743000
  H     -3.107000   -3.227000   -0.209000
  H     -3.012000   -2.173000   -1.647000
  H     -1.537000   -2.946000   -1.011000
  C     -3.433000   -0.693000    0.708000
  H     -3.379000   -0.659000    1.798000
  H     -3.538000    0.312000    0.295000
  H     -4.305000   -1.284000    0.431000
  N      2.298000   -0.213000   -0.348000
  H      2.488000    0.471000   -1.087000
  H      2.980000   -0.975000   -0.449000
  H      1.385000   -0.777000   -0.349000

----------------------------
CARTESIAN COORDINATES (A.U.)
----------------------------
  NO LB      ZA    FRAG     MASS         X           Y           Z
   0 C     6.0000    0    12.011    0.504557    5.903504   -2.282789
   1 H     1.0000    0     1.008    2.297907    5.276115   -3.097261
   2 H     1.0000    0     1.008    0.897620    7.447411   -0.965650
   3 H     1.0000    0     1.008   -0.693529    6.614041   -3.800239
   4 C     6.0000    0    12.011   -0.963760    3.760555   -1.012893
   5 O     8.0000    0    15.999   -3.082143    3.176630   -1.655400
   6 N     7.0000    0    14.007    0.222988    2.458534    0.937304
   7 C     6.0000    0    12.011   -1.443751    0.640617    2.173185
   8 H     1.0000    0     1.008   -0.498888   -0.094486    3.864490
   9 H     1.0000    0     1.008   -3.174740    1.587370    2.766559
  10 C     6.0000    0    12.011    2.672073    3.025452    2.029566
  11 H     1.0000    0     1.008    3.503552    4.609042    1.003445
  12 H     1.0000    0     1.008    2.500108    3.620715    4.011889
  13 C     6.0000    0    12.011    4.455974    0.752111    1.918072
  14 H     1.0000    0     1.008    6.392944    1.305801    2.362158
  15 H     1.0000    0     1.008    3.879608   -0.736993    3.225763
  16 C     6.0000    0    12.011   -1.936969   -1.577921    0.400622
  17 N     7.0000    0    14.007   -4.251884   -2.553020    0.253223
  18 O     8.0000    0    15.999   -0.088817   -2.519005   -0.786126
  19 C     6.0000    0    12.011   -4.709198   -4.726205   -1.404067
  20 H     1.0000    0     1.008   -5.871379   -6.098146   -0.394953
  21 H     1.0000    0     1.008   -5.691855   -4.106375   -3.112379
  22 H     1.0000    0     1.008   -2.904509   -5.567133   -1.910513
  23 C     6.0000    0    12.011   -6.487430   -1.309580    1.337926
  24 H     1.0000    0     1.008   -6.385385   -1.245330    3.397728
  25 H     1.0000    0     1.008   -6.685851    0.589595    0.557469
  26 H     1.0000    0     1.008   -8.135271   -2.426408    0.814472
  27 N     7.0000    0    14.007    4.342591   -0.402512   -0.657625
  28 H     1.0000    0     1.008    4.701639    0.890061   -2.054132
  29 H     1.0000    0     1.008    5.631384   -1.842483   -0.848487
  30 H     1.0000    0     1.008    2.617271   -1.468317   -0.659514

--------------------------------
INTERNAL COORDINATES (ANGSTROEM)
--------------------------------
 C      0   0   0     0.000000000000     0.00000000     0.00000000
 H      1   0   0     1.093885734435     0.00000000     0.00000000
 H      1   2   0     1.093874764313   108.22657330     0.00000000
 H      1   2   3     1.090018807177   108.60466181   117.96672434
 C      1   2   3     1.530120583484   112.87065597   235.80788826
 O      5   1   2     1.211495769700   122.38763951   238.49610611
 N      5   1   2     1.390729664601   117.63000391    58.21479491
 C      7   5   1     1.459823276976   112.71150316   174.06947316
 H      8   7   5     1.096515389769   108.90179085   188.87268233
 H      8   7   5     1.090253640214   109.50101074   306.91042216
 C      7   5   1     1.450413734077   126.63605777     4.48499679
 H     11   7   5     1.091188801262   108.71375052   357.19037953
 H     11   7   5     1.099048224602   111.44807717   114.58095875
 C     11   7   5     1.530302584458   111.91526942   235.96350417
 H     14  11   7     1.091649669079   111.09491883   167.78020012
 H     14  11   7     1.092168942975   111.74576345   289.28158577
 C      8   7   5     1.525201953841   109.57942110    71.08921376
 N     17   8   7     1.331527318533   119.45578123   220.89044630
 O     17   8   7     1.264465104303   118.44006205    44.60298928
 C     18  17   8     1.466353640838   119.39229917   181.51877095
 H     20  18  17     1.091080656964   108.79303415   135.63251376
 H     20  18  17     1.093252029497   109.73996384   255.59604846
 H     20  18  17     1.087140285336   108.87374500    15.65094942
 C     18  17   8     1.470349958343   122.95027609    12.13721592
 H     24  18  17     1.091866292181   111.33743650   293.68256921
 H     24  18  17     1.091613026672   109.98034184    56.78719890
 H     24  18  17     1.089217150067   107.57918681   175.43449640
 N     14  11   7     1.494887955668   109.37206622    46.03813611
 H     28  14  11     1.024732648060   112.16500512    54.47205078
 H     28  14  11     1.027603522765   111.47287763   175.10539712
 H     28  14  11     1.073157024857   104.46587937   282.29291115

---------------------------
INTERNAL COORDINATES (A.U.)
---------------------------
 C      0   0   0     0.000000000000     0.00000000     0.00000000
 H      1   0   0     2.067144459885     0.00000000     0.00000000
 H      1   2   0     2.067123729359   108.22657330     0.00000000
 H      1   2   3     2.059837026388   108.60466181   117.96672434
 C      1   2   3     2.891508854660   112.87065597   235.80788826
 O      5   1   2     2.289395217136   122.38763951   238.49610611
 N      5   1   2     2.628098192415   117.63000391    58.21479491
 C      7   5   1     2.758666197407   112.71150316   174.06947316
 H      8   7   5     2.072113788293   108.90179085   188.87268233
 H      8   7   5     2.060280796515   109.50101074   306.91042216
 C      7   5   1     2.740884738284   126.63605777     4.48499679
 H     11   7   5     2.062047994787   108.71375052   357.19037953
 H     11   7   5     2.076900152469   111.44807717   114.58095875
 C     11   7   5     2.891852786658   111.91526942   235.96350417
 H     14  11   7     2.062918908745   111.09491883   167.78020012
 H     14  11   7     2.063900194198   111.74576345   289.28158577
 C      8   7   5     2.882213991681   109.57942110    71.08921376
 N     17   8   7     2.516221971862   119.45578123   220.89044630
 O     17   8   7     2.389492753033   118.44006205    44.60298928
 C     18  17   8     2.771006796663   119.39229917   181.51877095
 H     20  18  17     2.061843631680   108.79303415   135.63251376
 H     20  18  17     2.065946931104   109.73996384   255.59604846
 H     20  18  17     2.054397408438   108.87374500    15.65094942
 C     18  17   8     2.778558742291   122.95027609    12.13721592
 H     24  18  17     2.063328267081   111.33743650   293.68256921
 H     24  18  17     2.062849664631   109.98034184    56.78719890
 H     24  18  17     2.058322113997   107.57918681   175.43449640
 N     14  11   7     2.824928837109   109.37206622    46.03813611
 H     28  14  11     1.936464065321   112.16500512    54.47205078
 H     28  14  11     1.941889232279   111.47287763   175.10539712
 H     28  14  11     2.027972875674   104.46587937   282.29291115

---------------------
BASIS SET INFORMATION
---------------------
There are 4 groups of distinct atoms

 Group   1 Type C   : 11s5p1d contracted to 4s3p1d pattern {6311/311/1}
 Group   2 Type H   : 4s contracted to 2s pattern {31}
 Group   3 Type O   : 11s5p1d contracted to 4s3p1d pattern {6311/311/1}
 Group   4 Type N   : 11s5p1d contracted to 4s3p1d pattern {6311/311/1}

Atom   0C    basis set group =>   1
Atom   1H    basis set group =>   2
Atom   2H    basis set group =>   2
Atom   3H    basis set group =>   2
Atom   4C    basis set group =>   1
Atom   5O    basis set group =>   3
Atom   6N    basis set group =>   4
Atom   7C    basis set group =>   1
Atom   8H    basis set group =>   2
Atom   9H    basis set group =>   2
Atom  10C    basis set group =>   1
Atom  11H    basis set group =>   2
Atom  12H    basis set group =>   2
Atom  13C    basis set group =>   1
Atom  14H    basis set group =>   2
Atom  15H    basis set group =>   2
Atom  16C    basis set group =>   1
Atom  17N    basis set group =>   4
Atom  18O    basis set group =>   3
Atom  19C    basis set group =>   1
Atom  20H    basis set group =>   2
Atom  21H    basis set group =>   2
Atom  22H    basis set group =>   2
Atom  23C    basis set group =>   1
Atom  24H    basis set group =>   2
Atom  25H    basis set group =>   2
Atom  26H    basis set group =>   2
Atom  27N    basis set group =>   4
Atom  28H    basis set group =>   2
Atom  29H    basis set group =>   2
Atom  30H    basis set group =>   2
---------------------------------
AUXILIARY/J BASIS SET INFORMATION
---------------------------------
There are 4 groups of distinct atoms

 Group   1 Type C   : 16s13p12d2f contracted to 16s13p12d2f pattern {1111111111111111/1111111111111/111111111111/11}
 Group   2 Type H   : 9s2p contracted to 9s2p pattern {111111111/11}
 Group   3 Type O   : 16s13p12d3f contracted to 16s13p12d3f pattern {1111111111111111/1111111111111/111111111111/111}
 Group   4 Type N   : 16s13p12d3f contracted to 16s13p12d3f pattern {1111111111111111/1111111111111/111111111111/111}

Atom   0C    basis set group =>   1
Atom   1H    basis set group =>   2
Atom   2H    basis set group =>   2
Atom   3H    basis set group =>   2
Atom   4C    basis set group =>   1
Atom   5O    basis set group =>   3
Atom   6N    basis set group =>   4
Atom   7C    basis set group =>   1
Atom   8H    basis set group =>   2
Atom   9H    basis set group =>   2
Atom  10C    basis set group =>   1
Atom  11H    basis set group =>   2
Atom  12H    basis set group =>   2
Atom  13C    basis set group =>   1
Atom  14H    basis set group =>   2
Atom  15H    basis set group =>   2
Atom  16C    basis set group =>   1
Atom  17N    basis set group =>   4
Atom  18O    basis set group =>   3
Atom  19C    basis set group =>   1
Atom  20H    basis set group =>   2
Atom  21H    basis set group =>   2
Atom  22H    basis set group =>   2
Atom  23C    basis set group =>   1
Atom  24H    basis set group =>   2
Atom  25H    basis set group =>   2
Atom  26H    basis set group =>   2
Atom  27N    basis set group =>   4
Atom  28H    basis set group =>   2
Atom  29H    basis set group =>   2
Atom  30H    basis set group =>   2
---------------------------------
AUXILIARY/C BASIS SET INFORMATION
---------------------------------
There are 4 groups of distinct atoms

 Group   1 Type C   : 16s13p12d2f contracted to 16s13p12d2f pattern {1111111111111111/1111111111111/111111111111/11}
 Group   2 Type H   : 9s2p contracted to 9s2p pattern {111111111/11}
 Group   3 Type O   : 16s13p12d3f contracted to 16s13p12d3f pattern {1111111111111111/1111111111111/111111111111/111}
 Group   4 Type N   : 16s13p12d3f contracted to 16s13p12d3f pattern {1111111111111111/1111111111111/111111111111/111}

Atom   0C    basis set group =>   1
Atom   1H    basis set group =>   2
Atom   2H    basis set group =>   2
Atom   3H    basis set group =>   2
Atom   4C    basis set group =>   1
Atom   5O    basis set group =>   3
Atom   6N    basis set group =>   4
Atom   7C    basis set group =>   1
Atom   8H    basis set group =>   2
Atom   9H    basis set group =>   2
Atom  10C    basis set group =>   1
Atom  11H    basis set group =>   2
Atom  12H    basis set group =>   2
Atom  13C    basis set group =>   1
Atom  14H    basis set group =>   2
Atom  15H    basis set group =>   2
Atom  16C    basis set group =>   1
Atom  17N    basis set group =>   4
Atom  18O    basis set group =>   3
Atom  19C    basis set group =>   1
Atom  20H    basis set group =>   2
Atom  21H    basis set group =>   2
Atom  22H    basis set group =>   2
Atom  23C    basis set group =>   1
Atom  24H    basis set group =>   2
Atom  25H    basis set group =>   2
Atom  26H    basis set group =>   2
Atom  27N    basis set group =>   4
Atom  28H    basis set group =>   2
Atom  29H    basis set group =>   2
Atom  30H    basis set group =>   2
----------------------------------
AUXILIARY/JK BASIS SET INFORMATION
----------------------------------
There are 4 groups of distinct atoms

 Group   1 Type C   : 16s13p12d2f contracted to 16s13p12d2f pattern {1111111111111111/1111111111111/111111111111/11}
 Group   2 Type H   : 9s2p contracted to 9s2p pattern {111111111/11}
 Group   3 Type O   : 16s13p12d3f contracted to 16s13p12d3f pattern {1111111111111111/1111111111111/111111111111/111}
 Group   4 Type N   : 16s13p12d3f contracted to 16s13p12d3f pattern {1111111111111111/1111111111111/111111111111/111}

Atom   0C    basis set group =>   1
Atom   1H    basis set group =>   2
Atom   2H    basis set group =>   2
Atom   3H    basis set group =>   2
Atom   4C    basis set group =>   1
Atom   5O    basis set group =>   3
Atom   6N    basis set group =>   4
Atom   7C    basis set group =>   1
Atom   8H    basis set group =>   2
Atom   9H    basis set group =>   2
Atom  10C    basis set group =>   1
Atom  11H    basis set group =>   2
Atom  12H    basis set group =>   2
Atom  13C    basis set group =>   1
Atom  14H    basis set group =>   2
Atom  15H    basis set group =>   2
Atom  16C    basis set group =>   1
Atom  17N    basis set group =>   4
Atom  18O    basis set group =>   3
Atom  19C    basis set group =>   1
Atom  20H    basis set group =>   2
Atom  21H    basis set group =>   2
Atom  22H    basis set group =>   2
Atom  23C    basis set group =>   1
Atom  24H    basis set group =>   2
Atom  25H    basis set group =>   2
Atom  26H    basis set group =>   2
Atom  27N    basis set group =>   4
Atom  28H    basis set group =>   2
Atom  29H    basis set group =>   2
Atom  30H    basis set group =>   2


           ************************************************************
           *        Program running with 4 parallel MPI-processes     *
           *              working on a common directory               *
           ************************************************************
------------------------------------------------------------------------------
                           ORCA GTO INTEGRAL CALCULATION
                           -- RI-GTO INTEGRALS CHOSEN --
------------------------------------------------------------------------------
------------------------------------------------------------------------------
                   ___                                                        
                  /   \      - P O W E R E D   B Y -                         
                 /     \                                                     
                 |  |  |   _    _      __       _____    __    __             
                 |  |  |  | |  | |    /  \     |  _  \  |  |  /  |          
                  \  \/   | |  | |   /    \    | | | |  |  | /  /          
                 / \  \   | |__| |  /  /\  \   | |_| |  |  |/  /          
                |  |  |   |  __  | /  /__\  \  |    /   |      \           
                |  |  |   | |  | | |   __   |  |    \   |  |\   \          
                \     /   | |  | | |  |  |  |  | |\  \  |  | \   \       
                 \___/    |_|  |_| |__|  |__|  |_| \__\ |__|  \__/        
                                                                              
                      - O R C A' S   B I G   F R I E N D -                    
                                      &                                       
                       - I N T E G R A L  F E E D E R -                       
                                                                              
 v1 FN, 2020, v2 2021                                                         
------------------------------------------------------------------------------


Reading SHARK input file Nke_water.SHARKINP.tmp ... ok
----------------------
SHARK INTEGRAL PACKAGE
----------------------

Number of atoms                             ...     31
Number of basis functions                   ...    270
Number of shells                            ...    140
Maximum angular momentum                    ...      2
Integral batch strategy                     ... SHARK/LIBINT Hybrid
RI-J (if used) integral strategy            ... SPLIT-RIJ (Revised 2003 algorithm where possible)
Printlevel                                  ...      1
Contraction scheme used                     ... SEGMENTED contraction
Coulomb Range Separation                    ... NOT USED
Exchange Range Separation                   ... NOT USED
Finite Nucleus Model                        ... NOT USED
Auxiliary Coulomb fitting basis             ... AVAILABLE
   # of basis functions in Aux-J            ...   1982
   # of shells in Aux-J                     ...    762
   Maximum angular momentum in Aux-J        ...      3
Auxiliary J/K fitting basis                 ... AVAILABLE
   # of basis functions in Aux-JK           ...   1982
   # of shells in Aux-JK                    ...    762
   Maximum angular momentum in Aux-JK       ...      3
Auxiliary Correlation fitting basis         ... AVAILABLE
   # of basis functions in Aux-C            ...   1982
   # of shells in Aux-C                     ...    762
   Maximum angular momentum in Aux-C        ...      3
Auxiliary 'external' fitting basis          ... NOT available
Integral threshold                          ...     2.500000e-11
Primitive cut-off                           ...     2.500000e-12
Primitive pair pre-selection threshold      ...     2.500000e-12

Calculating pre-screening integrals         ... done (  0.0 sec) Dimension = 140
Organizing shell pair data                  ... done (  2.0 sec)
Shell pair information
Total number of shell pairs                 ...      9870
Shell pairs after pre-screening             ...      9095
Total number of primitive shell pairs       ...     43398
Primitive shell pairs kept                  ...     26477
          la=0 lb=0:   3490 shell pairs
          la=1 lb=0:   3289 shell pairs
          la=1 lb=1:    770 shell pairs
          la=2 lb=0:    982 shell pairs
          la=2 lb=1:    484 shell pairs
          la=2 lb=2:     80 shell pairs

Calculating one electron integrals          ... done (  0.0 sec)
Calculating RI/J V-Matrix + Cholesky decomp.... done (  0.3 sec)
Calculating RI/JK V-Matrix + Cholesky decomp... done (  0.3 sec)
Calculating RI/C V-Matrix + Cholesky decomp.... done (  0.3 sec)
Calculating Nuclear repulsion               ... done (  0.0 sec) ENN=    917.657985224575 Eh

SHARK setup successfully completed in   3.3 seconds

Maximum memory used throughout the entire GTOINT-calculation: 36.2 MB


           ************************************************************
           *        Program running with 4 parallel MPI-processes     *
           *              working on a common directory               *
           ************************************************************
-------------------------------------------------------------------------------
                                 ORCA SCF
-------------------------------------------------------------------------------

------------
SCF SETTINGS
------------
Hamiltonian:
 Density Functional     Method          .... DFT(GTOs)
 Exchange Functional    Exchange        .... B88
   X-Alpha parameter    XAlpha          ....  0.666667
   Becke's b parameter  XBeta           ....  0.004200
 Correlation Functional Correlation     .... LYP
 LDA part of GGA corr.  LDAOpt          .... VWN-5
 Gradients option       PostSCFGGA      .... off
 Hybrid DFT is turned on
   Fraction HF Exchange ScalHFX         ....  0.200000
   Scaling of DF-GGA-X  ScalDFX         ....  0.720000
   Scaling of DF-GGA-C  ScalDFC         ....  0.810000
   Scaling of DF-LDA-C  ScalLDAC        ....  1.000000
   Perturbative correction              ....  0.000000
   Density functional embedding theory  .... OFF
   NL short-range parameter             ....  4.800000
 RI-approximation to the Coulomb term is turned on
   Number of AuxJ basis functions       .... 1982
   RIJ-COSX (HFX calculated with COS-X)).... on


General Settings:
 Integral files         IntName         .... Nke_water
 Hartree-Fock type      HFTyp           .... RHF
 Total Charge           Charge          ....    1
 Multiplicity           Mult            ....    1
 Number of Electrons    NEL             ....  102
 Basis Dimension        Dim             ....  270
 Nuclear Repulsion      ENuc            ....    917.6579852246 Eh

Convergence Acceleration:
 DIIS                   CNVDIIS         .... on
   Start iteration      DIISMaxIt       ....    12
   Startup error        DIISStart       ....  0.200000
   # of expansion vecs  DIISMaxEq       ....     5
   Bias factor          DIISBfac        ....   1.050
   Max. coefficient     DIISMaxC        ....  10.000
 Trust-Rad. Augm. Hess. CNVTRAH         .... auto
   Auto Start mean grad. ratio tolernc. ....  1.125000
   Auto Start start iteration           ....    20
   Auto Start num. interpolation iter.  ....    10
   Max. Number of Micro iterations      ....    16
   Max. Number of Macro iterations      .... Maxiter - #DIIS iter
   Number of Davidson start vectors     ....     2
   Converg. threshold I  (grad. norm)   ....   1.000e-05
   Converg. threshold II (energy diff.) ....   1.000e-08
   Grad. Scal. Fac. for Micro threshold ....   0.100
   Minimum threshold for Micro iter.    ....   0.010
   NR start threshold (gradient norm)   ....   0.001
   Initial trust radius                 ....   0.400
   Minimum AH scaling param. (alpha)    ....   1.000
   Maximum AH scaling param. (alpha)    .... 1000.000
   Orbital update algorithm             .... Taylor
   White noise on init. David. guess    .... on
   Maximum white noise                  ....   0.010
   Quad. conv. algorithm                .... NR
 SOSCF                  CNVSOSCF        .... on
   Start iteration      SOSCFMaxIt      ....   150
   Startup grad/error   SOSCFStart      ....  0.003300
 Level Shifting         CNVShift        .... on
   Level shift para.    LevelShift      ....    0.2500
   Turn off err/grad.   ShiftErr        ....    0.0010
 Zerner damping         CNVZerner       .... off
 Static damping         CNVDamp         .... on
   Fraction old density DampFac         ....    0.7000
   Max. Damping (<1)    DampMax         ....    0.9800
   Min. Damping (>=0)   DampMin         ....    0.0000
   Turn off err/grad.   DampErr         ....    0.1000
 Fernandez-Rico         CNVRico         .... off

SCF Procedure:
 Maximum # iterations   MaxIter         ....   125
 SCF integral mode      SCFMode         .... Direct
   Integral package                     .... SHARK and LIBINT hybrid scheme
 Reset frequency        DirectResetFreq ....    20
 Integral Threshold     Thresh          ....  2.500e-11 Eh
 Primitive CutOff       TCut            ....  2.500e-12 Eh

Convergence Tolerance:
 Convergence Check Mode ConvCheckMode   .... Total+1el-Energy
 Convergence forced     ConvForced      .... 0
 Energy Change          TolE            ....  1.000e-08 Eh
 1-El. energy change                    ....  1.000e-05 Eh
 Orbital Gradient       TolG            ....  1.000e-05
 Orbital Rotation angle TolX            ....  1.000e-05
 DIIS Error             TolErr          ....  5.000e-07


Diagonalization of the overlap matrix:
Smallest eigenvalue                        ... 1.449e-05
Time for diagonalization                   ...    0.012 sec
Threshold for overlap eigenvalues          ... 1.000e-08
Number of eigenvalues below threshold      ... 0
Time for construction of square roots      ...    0.007 sec
Total time needed                          ...    0.019 sec

Time for model grid setup =    0.254 sec

------------------------------
INITIAL GUESS: MODEL POTENTIAL
------------------------------
Loading Hartree-Fock densities                     ... done
Calculating cut-offs                               ... done
Initializing the effective Hamiltonian             ... done
Setting up the integral package (SHARK)            ... done
Starting the Coulomb interaction                   ... done (   0.2 sec)
Reading the grid                                   ... done
Mapping shells                                     ... done
Starting the XC term evaluation                    ... done (   0.2 sec)
  promolecular density results
     # of electrons  =    102.997026150
     EX              =    -82.687092654
     EC              =     -3.475142167
     EX+EC           =    -86.162234821
Transforming the Hamiltonian                       ... done (   0.0 sec)
Diagonalizing the Hamiltonian                      ... done (   0.0 sec)
Back transforming the eigenvectors                 ... done (   0.0 sec)
Now organizing SCF variables                       ... done
                      ------------------
                      INITIAL GUESS DONE (   0.7 sec)
                      ------------------
-------------------
DFT GRID GENERATION
-------------------

General Integration Accuracy     IntAcc      ... 4.388
Radial Grid Type                 RadialGrid  ... OptM3 with GC (2021)
Angular Grid (max. ang.)         AngularGrid ... 4 (Lebedev-302)
Angular grid pruning method      GridPruning ... 4 (adaptive)
Weight generation scheme         WeightScheme... Becke
Basis function cutoff            BFCut       ... 1.0000e-11
Integration weight cutoff        WCut        ... 1.0000e-14
Angular grids for H and He will be reduced by one unit
Partially contracted basis set               ... off
Rotationally invariant grid construction     ... off

Total number of grid points                  ...   138254
Total number of batches                      ...     2175
Average number of points per batch           ...       63
Average number of grid points per atom       ...     4460
Time for grid setup =    1.134 sec

--------------------
COSX GRID GENERATION
--------------------

GRIDX 1
-------
General Integration Accuracy     IntAcc      ... 3.816
Radial Grid Type                 RadialGrid  ... OptM3 with GC (2021)
Angular Grid (max. ang.)         AngularGrid ... 1 (Lebedev-50)
Angular grid pruning method      GridPruning ... 4 (adaptive)
Weight generation scheme         WeightScheme... Becke
Basis function cutoff            BFCut       ... 1.0000e-11
Integration weight cutoff        WCut        ... 1.0000e-14
Angular grids for H and He will be reduced by one unit
Partially contracted basis set               ... on
Rotationally invariant grid construction     ... off

Total number of grid points                  ...    17671
Total number of batches                      ...      293
Average number of points per batch           ...       60
Average number of grid points per atom       ...      570
UseSFitting                                  ... on

GRIDX 2
-------
General Integration Accuracy     IntAcc      ... 4.020
Radial Grid Type                 RadialGrid  ... OptM3 with GC (2021)
Angular Grid (max. ang.)         AngularGrid ... 2 (Lebedev-110)
Angular grid pruning method      GridPruning ... 4 (adaptive)
Weight generation scheme         WeightScheme... Becke
Basis function cutoff            BFCut       ... 1.0000e-11
Integration weight cutoff        WCut        ... 1.0000e-14
Angular grids for H and He will be reduced by one unit
Partially contracted basis set               ... on
Rotationally invariant grid construction     ... off

Total number of grid points                  ...    39522
Total number of batches                      ...      634
Average number of points per batch           ...       62
Average number of grid points per atom       ...     1275
UseSFitting                                  ... on

GRIDX 3
-------
General Integration Accuracy     IntAcc      ... 4.338
Radial Grid Type                 RadialGrid  ... OptM3 with GC (2021)
Angular Grid (max. ang.)         AngularGrid ... 3 (Lebedev-194)
Angular grid pruning method      GridPruning ... 4 (adaptive)
Weight generation scheme         WeightScheme... Becke
Basis function cutoff            BFCut       ... 1.0000e-11
Integration weight cutoff        WCut        ... 1.0000e-14
Angular grids for H and He will be reduced by one unit
Partially contracted basis set               ... on
Rotationally invariant grid construction     ... off

Total number of grid points                  ...    85187
Total number of batches                      ...     1348
Average number of points per batch           ...       63
Average number of grid points per atom       ...     2748
UseSFitting                                  ... on

Time for X-Grid setup             =    2.960 sec


--------------------
CPCM SOLVATION MODEL
--------------------
CPCM parameters:
  Epsilon                                         ...      80.4000
  Refrac                                          ...       1.3300
  Rsolv                                           ...       1.3000
  Surface type                                    ... GAUSSIAN VDW
  Epsilon function type                           ...         CPCM
Radii:
 Radius for C  used is    3.8550 Bohr (=   2.0400 Ang.)
 Radius for H  used is    2.4944 Bohr (=   1.3200 Ang.)
 Radius for O  used is    3.4469 Bohr (=   1.8240 Ang.)
 Radius for N  used is    3.5149 Bohr (=   1.8600 Ang.)
Calculating surface                               ...        done! (  0.0s)
GEPOL surface points                              ...         1603
GEPOL Volume                                      ...    1593.5889
GEPOL Surface-area                                ...     856.9885
Calculating surface distance matrix               ...        done! (  0.0s)
Performing Cholesky decomposition & store         ...        done! (  0.1s)
Overall time for CPCM initialization              ...                 0.1s
--------------
SCF ITERATIONS
--------------
ITER       Energy         Delta-E        Max-DP      RMS-DP      [F,P]     Damp
               ***  Starting incremental Fock matrix formation  ***
  0   -629.5832957616   0.000000000000 0.08703046  0.00225746  0.2608283 0.7000
  1   -629.7446863473  -0.161390585681 0.07766836  0.00163694  0.1024172 0.7000
                               ***Turning on DIIS***
  2   -629.8053100016  -0.060623654347 0.21885711  0.00299402  0.0349070 0.0000
  3   -629.9042439764  -0.098933974726 0.07484223  0.00112050  0.0526344 0.0000
  4   -629.9244297210  -0.020185744606 0.01939287  0.00044262  0.0109478 0.0000
  5   -629.9257059681  -0.001276247093 0.02362305  0.00022688  0.0041447 0.0000
                      *** Initiating the SOSCF procedure ***
                           *** Shutting down DIIS ***
                      *** Re-Reading the Fockian *** 
                      *** Removing any level shift *** 
ITER      Energy       Delta-E        Grad      Rot      Max-DP    RMS-DP
  6   -629.92578238  -0.0000764114  0.000221  0.000221  0.008435  0.000148
               *** Restarting incremental Fock matrix formation ***
  7   -629.92574007   0.0000423088  0.000219  0.000852  0.002693  0.000059
  8   -629.92573431   0.0000057601  0.000411  0.000578  0.001045  0.000023
  9   -629.92574331  -0.0000089954  0.000046  0.000132  0.000647  0.000011
 10   -629.92574303   0.0000002731  0.000085  0.000086  0.000537  0.000007
 11   -629.92574342  -0.0000003850  0.000004  0.000006  0.001390  0.000008
 12   -629.92574345  -0.0000000279  0.000005  0.000003  0.001038  0.000006
                  ***Gradient check signals convergence***
              ***Rediagonalizing the Fockian in SOSCF/NRSCF***

               *****************************************************
               *                     SUCCESS                       *
               *           SCF CONVERGED AFTER  13 CYCLES          *
               *****************************************************

Old exchange energy                            =    -16.789775966 Eh
New exchange energy                            =    -16.789779167 Eh
Exchange energy change after final integration =     -0.000003201 Eh
Total energy after final integration           =   -629.925746612 Eh
Final COS-X integration done in                =    13.120 sec

----------------
TOTAL SCF ENERGY
----------------

Total Energy       :         -629.92574661 Eh          -17141.15100 eV

Components:
Nuclear Repulsion  :          917.65798522 Eh           24970.74327 eV
Electronic Energy  :        -1547.58373184 Eh          -42111.89427 eV
One Electron Energy:        -2662.16138909 Eh          -72441.09423 eV
Two Electron Energy:         1114.57765726 Eh           30329.19996 eV
Max COSX asymmetry :            0.00001655 Eh               0.00045 eV
CPCM Dielectric    :           -0.10600225 Eh              -2.88447 eV

Virial components:
Potential Energy   :        -1256.04454199 Eh          -34178.70960 eV
Kinetic Energy     :          626.11879537 Eh           17037.55859 eV
Virial Ratio       :            2.00608024


DFT components:
N(Alpha)           :       51.000007966539 electrons
N(Beta)            :       51.000007966539 electrons
N(Total)           :      102.000015933077 electrons
E(X)               :      -66.687789955523 Eh       
E(C)               :       -4.057701479630 Eh       
E(XC)              :      -70.745491435153 Eh       
DFET-embed. en.    :        0.000000000000 Eh       
CPCM Solvation Model Properties:
Surface-charge          :           -1.02580059
Charge-correction       :            0.00295945 Eh               0.08053 eV
Free-energy (cav+disp)  :  This term is not implemented in the current solvation scheme

---------------
SCF CONVERGENCE
---------------

  Last Energy change         ...    3.5495e-08  Tolerance :   1.0000e-08
  Last MAX-Density change    ...    3.5527e-15  Tolerance :   1.0000e-07
  Last RMS-Density change    ...    4.0486e-17  Tolerance :   5.0000e-09
  Last Orbital Gradient      ...    5.2374e-07  Tolerance :   1.0000e-05
  Last Orbital Rotation      ...    1.7070e-06  Tolerance :   1.0000e-05

             **** THE GBW FILE WAS UPDATED (Nke_water.gbw) ****
             **** DENSITY Nke_water.scfp WAS UPDATED ****
             **** ENERGY FILE WAS UPDATED (Nke_water.en.tmp) ****
             **** THE GBW FILE WAS UPDATED (Nke_water.gbw) ****
             **** DENSITY Nke_water.scfp WAS UPDATED ****
----------------
ORBITAL ENERGIES
----------------

  NO   OCC          E(Eh)            E(eV) 
   0   2.0000     -19.141476      -520.8660 
   1   2.0000     -19.138659      -520.7894 
   2   2.0000     -14.414032      -392.2257 
   3   2.0000     -14.384245      -391.4152 
   4   2.0000     -14.375847      -391.1867 
   5   2.0000     -10.305394      -280.4240 
   6   2.0000     -10.302199      -280.3371 
   7   2.0000     -10.239278      -278.6249 
   8   2.0000     -10.234195      -278.4866 
   9   2.0000     -10.231027      -278.4004 
  10   2.0000     -10.211430      -277.8671 
  11   2.0000     -10.207250      -277.7534 
  12   2.0000     -10.182277      -277.0738 
  13   2.0000      -1.070409       -29.1273 
  14   2.0000      -1.054049       -28.6821 
  15   2.0000      -0.983270       -26.7561 
  16   2.0000      -0.951326       -25.8869 
  17   2.0000      -0.946660       -25.7599 
  18   2.0000      -0.782710       -21.2986 
  19   2.0000      -0.764253       -20.7964 
  20   2.0000      -0.732447       -19.9309 
  21   2.0000      -0.723054       -19.6753 
  22   2.0000      -0.689851       -18.7718 
  23   2.0000      -0.656081       -17.8529 
  24   2.0000      -0.595060       -16.1924 
  25   2.0000      -0.565145       -15.3784 
  26   2.0000      -0.557649       -15.1744 
  27   2.0000      -0.545669       -14.8484 
  28   2.0000      -0.522830       -14.2269 
  29   2.0000      -0.517234       -14.0746 
  30   2.0000      -0.499682       -13.5970 
  31   2.0000      -0.482943       -13.1416 
  32   2.0000      -0.478249       -13.0138 
  33   2.0000      -0.464545       -12.6409 
  34   2.0000      -0.458196       -12.4682 
  35   2.0000      -0.437133       -11.8950 
  36   2.0000      -0.427442       -11.6313 
  37   2.0000      -0.418756       -11.3949 
  38   2.0000      -0.413586       -11.2542 
  39   2.0000      -0.411803       -11.2057 
  40   2.0000      -0.404755       -11.0139 
  41   2.0000      -0.403949       -10.9920 
  42   2.0000      -0.399386       -10.8678 
  43   2.0000      -0.385362       -10.4862 
  44   2.0000      -0.382214       -10.4006 
  45   2.0000      -0.375022       -10.2049 
  46   2.0000      -0.362932        -9.8759 
  47   2.0000      -0.290033        -7.8922 
  48   2.0000      -0.279192        -7.5972 
  49   2.0000      -0.265590        -7.2271 
  50   2.0000      -0.259723        -7.0674 
  51   0.0000      -0.008931        -0.2430 
  52   0.0000      -0.000238        -0.0065 
  53   0.0000       0.007317         0.1991 
  54   0.0000       0.014529         0.3953 
  55   0.0000       0.019476         0.5300 
  56   0.0000       0.021997         0.5986 
  57   0.0000       0.035050         0.9537 
  58   0.0000       0.039760         1.0819 
  59   0.0000       0.044748         1.2177 
  60   0.0000       0.047037         1.2800 
  61   0.0000       0.054585         1.4853 
  62   0.0000       0.061966         1.6862 
  63   0.0000       0.064737         1.7616 
  64   0.0000       0.069898         1.9020 
  65   0.0000       0.073308         1.9948 
  66   0.0000       0.078495         2.1360 
  67   0.0000       0.089057         2.4234 
  68   0.0000       0.091238         2.4827 
  69   0.0000       0.098355         2.6764 
  70   0.0000       0.101788         2.7698 
  71   0.0000       0.109980         2.9927 
  72   0.0000       0.110161         2.9976 
  73   0.0000       0.113604         3.0913 
  74   0.0000       0.114874         3.1259 
  75   0.0000       0.124925         3.3994 
  76   0.0000       0.134556         3.6615 
  77   0.0000       0.137532         3.7424 
  78   0.0000       0.139741         3.8025 
  79   0.0000       0.142265         3.8712 
  80   0.0000       0.151163         4.1134 
  81   0.0000       0.158231         4.3057 
  82   0.0000       0.158887         4.3235 
  83   0.0000       0.165725         4.5096 
  84   0.0000       0.168662         4.5895 
  85   0.0000       0.174345         4.7442 
  86   0.0000       0.186806         5.0832 
  87   0.0000       0.187748         5.1089 
  88   0.0000       0.192279         5.2322 
  89   0.0000       0.196121         5.3367 
  90   0.0000       0.202028         5.4975 
  91   0.0000       0.202901         5.5212 
  92   0.0000       0.205733         5.5983 
  93   0.0000       0.212091         5.7713 
  94   0.0000       0.215244         5.8571 
  95   0.0000       0.220984         6.0133 
  96   0.0000       0.226264         6.1569 
  97   0.0000       0.232417         6.3244 
  98   0.0000       0.236217         6.4278 
  99   0.0000       0.247857         6.7445 
 100   0.0000       0.252050         6.8586 
 101   0.0000       0.256106         6.9690 
 102   0.0000       0.260656         7.0928 
 103   0.0000       0.264194         7.1891 
 104   0.0000       0.269115         7.3230 
 105   0.0000       0.277191         7.5427 
 106   0.0000       0.286226         7.7886 
 107   0.0000       0.289917         7.8891 
 108   0.0000       0.291951         7.9444 
 109   0.0000       0.298307         8.1173 
 110   0.0000       0.301959         8.2167 
 111   0.0000       0.309297         8.4164 
 112   0.0000       0.309794         8.4299 
 113   0.0000       0.317022         8.6266 
 114   0.0000       0.320612         8.7243 
 115   0.0000       0.325828         8.8662 
 116   0.0000       0.332651         9.0519 
 117   0.0000       0.340303         9.2601 
 118   0.0000       0.346251         9.4220 
 119   0.0000       0.361240         9.8298 
 120   0.0000       0.364716         9.9244 
 121   0.0000       0.376078        10.2336 
 122   0.0000       0.380431        10.3521 
 123   0.0000       0.385722        10.4960 
 124   0.0000       0.400786        10.9059 
 125   0.0000       0.412414        11.2224 
 126   0.0000       0.418468        11.3871 
 127   0.0000       0.435925        11.8621 
 128   0.0000       0.446359        12.1460 
 129   0.0000       0.456715        12.4278 
 130   0.0000       0.469623        12.7791 
 131   0.0000       0.476491        12.9660 
 132   0.0000       0.491026        13.3615 
 133   0.0000       0.515986        14.0407 
 134   0.0000       0.534582        14.5467 
 135   0.0000       0.632222        17.2036 
 136   0.0000       0.645115        17.5545 
 137   0.0000       0.656464        17.8633 
 138   0.0000       0.668623        18.1942 
 139   0.0000       0.675394        18.3784 
 140   0.0000       0.681688        18.5497 
 141   0.0000       0.701735        19.0952 
 142   0.0000       0.711120        19.3506 
 143   0.0000       0.717654        19.5284 
 144   0.0000       0.723066        19.6756 
 145   0.0000       0.734784        19.9945 
 146   0.0000       0.743314        20.2266 
 147   0.0000       0.756224        20.5779 
 148   0.0000       0.771619        20.9968 
 149   0.0000       0.793118        21.5818 
 150   0.0000       0.799413        21.7531 
 151   0.0000       0.814467        22.1628 
 152   0.0000       0.823363        22.4049 
 153   0.0000       0.830343        22.5948 
 154   0.0000       0.844580        22.9822 
 155   0.0000       0.887081        24.1387 
 156   0.0000       0.891178        24.2502 
 157   0.0000       0.897971        24.4350 
 158   0.0000       0.909590        24.7512 
 159   0.0000       0.915703        24.9175 
 160   0.0000       0.950085        25.8531 
 161   0.0000       0.957497        26.0548 
 162   0.0000       0.965330        26.2680 
 163   0.0000       0.975130        26.5346 
 164   0.0000       0.983828        26.7713 
 165   0.0000       0.999882        27.2082 
 166   0.0000       1.000002        27.2114 
 167   0.0000       1.010845        27.5065 
 168   0.0000       1.013299        27.5733 
 169   0.0000       1.023497        27.8508 
 170   0.0000       1.037385        28.2287 
 171   0.0000       1.060190        28.8492 
 172   0.0000       1.067844        29.0575 
 173   0.0000       1.077946        29.3324 
 174   0.0000       1.089171        29.6379 
 175   0.0000       1.102324        29.9958 
 176   0.0000       1.118435        30.4342 
 177   0.0000       1.121253        30.5109 
 178   0.0000       1.143546        31.1175 
 179   0.0000       1.155267        31.4364 
 180   0.0000       1.159432        31.5498 
 181   0.0000       1.177937        32.0533 
 182   0.0000       1.187410        32.3111 
 183   0.0000       1.212349        32.9897 
 184   0.0000       1.231743        33.5174 
 185   0.0000       1.255068        34.1521 
 186   0.0000       1.271339        34.5949 
 187   0.0000       1.300228        35.3810 
 188   0.0000       1.311138        35.6779 
 189   0.0000       1.319350        35.9013 
 190   0.0000       1.341490        36.5038 
 191   0.0000       1.353122        36.8203 
 192   0.0000       1.386612        37.7316 
 193   0.0000       1.406950        38.2851 
 194   0.0000       1.409509        38.3547 
 195   0.0000       1.411607        38.4118 
 196   0.0000       1.427597        38.8469 
 197   0.0000       1.445805        39.3423 
 198   0.0000       1.461698        39.7748 
 199   0.0000       1.477188        40.1963 
 200   0.0000       1.502074        40.8735 
 201   0.0000       1.528785        41.6003 
 202   0.0000       1.541351        41.9423 
 203   0.0000       1.559085        42.4249 
 204   0.0000       1.564673        42.5769 
 205   0.0000       1.609419        43.7945 
 206   0.0000       1.638513        44.5862 
 207   0.0000       1.663344        45.2619 
 208   0.0000       1.694702        46.1152 
 209   0.0000       1.739860        47.3440 
 210   0.0000       1.760633        47.9092 
 211   0.0000       1.797081        48.9010 
 212   0.0000       1.804487        49.1026 
 213   0.0000       1.812063        49.3087 
 214   0.0000       1.833261        49.8856 
 215   0.0000       1.861499        50.6539 
 216   0.0000       1.865041        50.7503 
 217   0.0000       1.882284        51.2196 
 218   0.0000       1.910113        51.9768 
 219   0.0000       1.915997        52.1369 
 220   0.0000       1.932169        52.5770 
 221   0.0000       1.938467        52.7484 
 222   0.0000       1.951880        53.1134 
 223   0.0000       1.959539        53.3218 
 224   0.0000       1.985137        54.0183 
 225   0.0000       2.002872        54.5009 
 226   0.0000       2.014085        54.8060 
 227   0.0000       2.036521        55.4166 
 228   0.0000       2.048745        55.7492 
 229   0.0000       2.056416        55.9579 
 230   0.0000       2.068781        56.2944 
 231   0.0000       2.086127        56.7664 
 232   0.0000       2.113629        57.5148 
 233   0.0000       2.122574        57.7582 
 234   0.0000       2.156176        58.6725 
 235   0.0000       2.175840        59.2076 
 236   0.0000       2.197199        59.7888 
 237   0.0000       2.220241        60.4158 
 238   0.0000       2.253122        61.3106 
 239   0.0000       2.272470        61.8371 
 240   0.0000       2.275823        61.9283 
 241   0.0000       2.294597        62.4391 
 242   0.0000       2.321149        63.1617 
 243   0.0000       2.333782        63.5054 
 244   0.0000       2.354949        64.0814 
 245   0.0000       2.371798        64.5399 
 246   0.0000       2.391159        65.0668 
 247   0.0000       2.405654        65.4612 
 248   0.0000       2.432097        66.1807 
 249   0.0000       2.466660        67.1212 
 250   0.0000       2.471649        67.2570 
 251   0.0000       2.489913        67.7540 
 252   0.0000       2.501896        68.0801 
 253   0.0000       2.530509        68.8586 
 254   0.0000       2.595144        70.6175 
 255   0.0000       2.613497        71.1169 
 256   0.0000       2.628100        71.5142 
 257   0.0000       2.632274        71.6278 
 258   0.0000       2.643644        71.9372 
 259   0.0000       2.677008        72.8451 
 260   0.0000       2.711406        73.7811 
 261   0.0000       2.737134        74.4812 
 262   0.0000       2.795451        76.0681 
 263   0.0000       2.834042        77.1182 
 264   0.0000       2.951505        80.3145 
 265   0.0000       2.978098        81.0382 
 266   0.0000       3.105851        84.5145 
 267   0.0000       3.166044        86.1524 
 268   0.0000       3.202084        87.1331 
 269   0.0000       3.234061        88.0033 

                    ********************************
                    * MULLIKEN POPULATION ANALYSIS *
                    ********************************

-----------------------
MULLIKEN ATOMIC CHARGES
-----------------------
   0 C :   -1.075799
   1 H :    0.261113
   2 H :    0.262680
   3 H :    0.243623
   4 C :    0.928452
   5 O :   -0.561941
   6 N :   -0.132899
   7 C :   -0.828618
   8 H :    0.281087
   9 H :    0.260675
  10 C :   -0.452777
  11 H :    0.256177
  12 H :    0.256612
  13 C :   -0.092270
  14 H :    0.261209
  15 H :    0.264440
  16 C :    0.586782
  17 N :    0.008865
  18 O :   -0.643998
  19 C :   -0.552243
  20 H :    0.237251
  21 H :    0.240733
  22 H :    0.249885
  23 C :   -0.558046
  24 H :    0.244470
  25 H :    0.257133
  26 H :    0.233738
  27 N :   -1.058868
  28 H :    0.509614
  29 H :    0.527077
  30 H :    0.585845
Sum of atomic charges:    1.0000000

--------------------------------
MULLIKEN REDUCED ORBITAL CHARGES
--------------------------------
  0 C s       :     3.823015  s :     3.823015
      pz      :     1.101443  p :     3.221513
      px      :     1.111373
      py      :     1.008697
      dz2     :     0.002525  d :     0.031271
      dxz     :     0.008139
      dyz     :     0.009182
      dx2y2   :     0.005376
      dxy     :     0.006050
  1 H s       :     0.738887  s :     0.738887
  2 H s       :     0.737320  s :     0.737320
  3 H s       :     0.756377  s :     0.756377
  4 C s       :     2.844639  s :     2.844639
      pz      :     0.708890  p :     2.113872
      px      :     0.732505
      py      :     0.672478
      dz2     :     0.020842  d :     0.113037
      dxz     :     0.029060
      dyz     :     0.011765
      dx2y2   :     0.019930
      dxy     :     0.031439
  5 O s       :     3.935110  s :     3.935110
      pz      :     1.649800  p :     4.601664
      px      :     1.308661
      py      :     1.643202
      dz2     :     0.003108  d :     0.025167
      dxz     :     0.006968
      dyz     :     0.001556
      dx2y2   :     0.006777
      dxy     :     0.006758
  6 N s       :     3.216148  s :     3.216148
      pz      :     1.307469  p :     3.880682
      px      :     1.175487
      py      :     1.397726
      dz2     :     0.006582  d :     0.036069
      dxz     :     0.008521
      dyz     :     0.005938
      dx2y2   :     0.006549
      dxy     :     0.008479
  7 C s       :     3.929277  s :     3.929277
      pz      :     0.954124  p :     2.847167
      px      :     1.048466
      py      :     0.844578
      dz2     :     0.006607  d :     0.052173
      dxz     :     0.011032
      dyz     :     0.012231
      dx2y2   :     0.009905
      dxy     :     0.012398
  8 H s       :     0.718913  s :     0.718913
  9 H s       :     0.739325  s :     0.739325
 10 C s       :     3.505492  s :     3.505492
      pz      :     1.138995  p :     2.893238
      px      :     0.795193
      py      :     0.959051
      dz2     :     0.012091  d :     0.054047
      dxz     :     0.009019
      dyz     :     0.008505
      dx2y2   :     0.011719
      dxy     :     0.012713
 11 H s       :     0.743823  s :     0.743823
 12 H s       :     0.743388  s :     0.743388
 13 C s       :     3.251921  s :     3.251921
      pz      :     0.740604  p :     2.791614
      px      :     1.092502
      py      :     0.958508
      dz2     :     0.011837  d :     0.048735
      dxz     :     0.005739
      dyz     :     0.014648
      dx2y2   :     0.008350
      dxy     :     0.008161
 14 H s       :     0.738791  s :     0.738791
 15 H s       :     0.735560  s :     0.735560
 16 C s       :     3.267630  s :     3.267630
      pz      :     0.695616  p :     2.038141
      px      :     0.741659
      py      :     0.600866
      dz2     :     0.014457  d :     0.107448
      dxz     :     0.025792
      dyz     :     0.012788
      dx2y2   :     0.027983
      dxy     :     0.026428
 17 N s       :     3.226522  s :     3.226522
      pz      :     1.397264  p :     3.726011
      px      :     1.098333
      py      :     1.230414
      dz2     :     0.005538  d :     0.038602
      dxz     :     0.007745
      dyz     :     0.005276
      dx2y2   :     0.009495
      dxy     :     0.010547
 18 O s       :     3.867976  s :     3.867976
      pz      :     1.583749  p :     4.754574
      px      :     1.502131
      py      :     1.668694
      dz2     :     0.004389  d :     0.021448
      dxz     :     0.005235
      dyz     :     0.002680
      dx2y2   :     0.003797
      dxy     :     0.005348
 19 C s       :     3.450359  s :     3.450359
      pz      :     1.000228  p :     3.055016
      px      :     1.163231
      py      :     0.891557
      dz2     :     0.008332  d :     0.046868
      dxz     :     0.008472
      dyz     :     0.013219
      dx2y2   :     0.007548
      dxy     :     0.009297
 20 H s       :     0.762749  s :     0.762749
 21 H s       :     0.759267  s :     0.759267
 22 H s       :     0.750115  s :     0.750115
 23 C s       :     3.431842  s :     3.431842
      pz      :     1.094951  p :     3.079580
      px      :     0.896110
      py      :     1.088520
      dz2     :     0.013297  d :     0.046624
      dxz     :     0.007479
      dyz     :     0.005350
      dx2y2   :     0.008842
      dxy     :     0.011656
 24 H s       :     0.755530  s :     0.755530
 25 H s       :     0.742867  s :     0.742867
 26 H s       :     0.766262  s :     0.766262
 27 N s       :     3.856222  s :     3.856222
      pz      :     1.267156  p :     4.169453
      px      :     1.481367
      py      :     1.420930
      dz2     :     0.008491  d :     0.033193
      dxz     :     0.003379
      dyz     :     0.008683
      dx2y2   :     0.002036
      dxy     :     0.010603
 28 H s       :     0.490386  s :     0.490386
 29 H s       :     0.472923  s :     0.472923
 30 H s       :     0.414155  s :     0.414155


                     *******************************
                     * LOEWDIN POPULATION ANALYSIS *
                     *******************************

----------------------
LOEWDIN ATOMIC CHARGES
----------------------
   0 C :   -0.469061
   1 H :    0.225274
   2 H :    0.225256
   3 H :    0.217845
   4 C :    0.121567
   5 O :   -0.403755
   6 N :   -0.323073
   7 C :   -0.207448
   8 H :    0.256317
   9 H :    0.249258
  10 C :   -0.243846
  11 H :    0.240943
  12 H :    0.233111
  13 C :   -0.247178
  14 H :    0.227955
  15 H :    0.233646
  16 C :    0.125162
  17 N :   -0.291493
  18 O :   -0.496810
  19 C :   -0.344348
  20 H :    0.213044
  21 H :    0.216107
  22 H :    0.233081
  23 C :   -0.357766
  24 H :    0.219214
  25 H :    0.228822
  26 H :    0.220488
  27 N :   -0.431671
  28 H :    0.369546
  29 H :    0.358112
  30 H :    0.401703

-------------------------------
LOEWDIN REDUCED ORBITAL CHARGES
-------------------------------
  0 C s       :     2.989183  s :     2.989183
      pz      :     1.155890  p :     3.418696
      px      :     1.154656
      py      :     1.108150
      dz2     :     0.004673  d :     0.061182
      dxz     :     0.015352
      dyz     :     0.018055
      dx2y2   :     0.010394
      dxy     :     0.012708
  1 H s       :     0.774726  s :     0.774726
  2 H s       :     0.774744  s :     0.774744
  3 H s       :     0.782155  s :     0.782155
  4 C s       :     2.794947  s :     2.794947
      pz      :     0.896646  p :     2.822937
      px      :     0.998558
      py      :     0.927733
      dz2     :     0.046257  d :     0.260549
      dxz     :     0.070173
      dyz     :     0.025994
      dx2y2   :     0.044561
      dxy     :     0.073563
  5 O s       :     3.538387  s :     3.538387
      pz      :     1.657792  p :     4.809555
      px      :     1.495171
      py      :     1.656591
      dz2     :     0.007303  d :     0.055814
      dxz     :     0.014816
      dyz     :     0.002478
      dx2y2   :     0.016949
      dxy     :     0.014269
  6 N s       :     3.105429  s :     3.105429
      pz      :     1.395754  p :     4.123432
      px      :     1.304506
      py      :     1.423172
      dz2     :     0.015930  d :     0.094212
      dxz     :     0.023484
      dyz     :     0.016806
      dx2y2   :     0.016833
      dxy     :     0.021160
  7 C s       :     2.890131  s :     2.890131
      pz      :     1.084964  p :     3.207898
      px      :     1.112407
      py      :     1.010527
      dz2     :     0.012911  d :     0.109418
      dxz     :     0.022499
      dyz     :     0.026827
      dx2y2   :     0.020903
      dxy     :     0.026278
  8 H s       :     0.743683  s :     0.743683
  9 H s       :     0.750742  s :     0.750742
 10 C s       :     2.905439  s :     2.905439
      pz      :     1.144846  p :     3.222887
      px      :     0.966554
      py      :     1.111486
      dz2     :     0.024963  d :     0.115521
      dxz     :     0.019308
      dyz     :     0.015775
      dx2y2   :     0.025332
      dxy     :     0.030144
 11 H s       :     0.759057  s :     0.759057
 12 H s       :     0.766889  s :     0.766889
 13 C s       :     2.941526  s :     2.941526
[...]
     24       0.000261   0.000034   0.000041
     25      -0.000235   0.000159  -0.000034
     26       0.000878  -0.000118   0.000030
     27      -0.000510  -0.000434  -0.000014
     28       0.000100   0.000383   0.000035
     29      -0.000025   0.000154  -0.000037
     30      -0.000026  -0.000240   0.000163
     31      -0.000023  -0.000116   0.000446
     32       0.000018   0.000348   0.000007
     33       0.000313   0.001914  -0.002106
     34       0.000377   0.000901  -0.000994
     35      -0.000205  -0.001139   0.001023
     36      -0.000001  -0.001113  -0.000196
     37      -0.000016   0.001423   0.000537
     38      -0.000052   0.001658   0.001041
     39      -0.000024   0.000839  -0.000652
     40       0.000002   0.000868  -0.000538
     41      -0.000026  -0.000394   0.000537
     42       0.000414  -0.006031   0.000291
     43       0.000093  -0.000979   0.000418
     44       0.000242  -0.002670   0.000009
     45      -0.000062  -0.007663   0.008033
     46      -0.000095  -0.008705   0.009960
     47       0.000094   0.010387  -0.011149
     48      -0.000728   0.000479  -0.000025
     49       0.000451  -0.000145   0.000025
     50       0.000832  -0.000495   0.000031
     51      -0.000217  -0.000214   0.000010
     52      -0.000120  -0.000075   0.000001
     53      -0.000007   0.000106  -0.000006
     54      -0.000172  -0.000550   0.000050
     55      -0.000683   0.000056  -0.000007
     56      -0.000503   0.000244  -0.000013
     57      -0.072354   0.000013  -0.000001
     58      -0.002996   0.000075  -0.000004
     59       0.055070   0.000020   0.000003
     60      -0.001021  -0.000087  -0.000001
     61       0.171572  -0.000456   0.000022
     62      -0.116872   0.000182  -0.000011
     63       0.172821  -0.000461   0.000027
     64      -0.033970  -0.000036  -0.000001
     65       0.103269  -0.000245   0.000012
     66       0.699876   0.000041  -0.000015
     67      -0.091160   0.000105  -0.000016
     68      -0.639189   0.000039  -0.000006
     69       0.000032   0.000048  -0.000003
     70      -0.001517  -0.000039   0.000006
     71       0.000246  -0.000041   0.000001
     72      -0.000346   0.000094  -0.000008
     73      -0.000065   0.000144  -0.000008
     74      -0.001315   0.000318  -0.000024
     75      -0.003483  -0.000401   0.000025
     76       0.003855   0.000334  -0.000020
     77      -0.002587  -0.000031   0.000003
     78       0.007203  -0.000287   0.000010
     79       0.010580  -0.000216   0.000002
     80      -0.004084   0.000196  -0.000008
     81      -0.000247   0.054927   0.005093
     82      -0.000077  -0.007671  -0.075764
     83      -0.000140  -0.026005   0.029144
     84      -0.000190  -0.283449   0.319029
     85      -0.000305  -0.480400   0.507604
     86       0.000264   0.386269  -0.416379
     87      -0.000260  -0.416713  -0.399485
     88       0.000327   0.598612   0.548047
     89      -0.000002  -0.001891   0.005689
     90       0.003913  -0.048252   0.007125
     91       0.001038  -0.015850  -0.008876
     92       0.001727  -0.029765   0.007118


-----------
IR SPECTRUM
-----------

 Mode   freq       eps      Int      T**2         TX        TY        TZ
       cm**-1   L/(mol*cm) km/mol    a.u.
----------------------------------------------------------------------------
  6:     33.67   0.002337   11.81  0.021665  ( 0.018033  0.119695 -0.083745)
  7:     56.67   0.000306    1.54  0.001682  (-0.027337  0.010036 -0.028886)
  8:     82.60   0.002483   12.55  0.009381  (-0.030169  0.076010 -0.051894)
  9:     85.85   0.001120    5.66  0.004072  (-0.040593  0.030580  0.038595)
 10:    100.57   0.002860   14.45  0.008875  (-0.030260  0.076624  0.045691)
 11:    119.87   0.000755    3.81  0.001965  (-0.007697 -0.000726 -0.043646)
 12:    144.93   0.001356    6.85  0.002921  (-0.017244 -0.017329  0.048198)
 13:    161.62   0.000572    2.89  0.001104  ( 0.018921  0.026359  0.007168)
 14:    184.04   0.002487   12.57  0.004216  ( 0.052550  0.031519  0.021478)
 15:    198.12   0.008192   41.40  0.012904  (-0.108293 -0.031330 -0.013954)
 16:    232.42   0.010310   52.10  0.013843  ( 0.110463 -0.032797  0.023781)
 17:    247.54   0.001277    6.45  0.001610  ( 0.039233  0.003837 -0.007467)
 18:    289.14   0.002203   11.13  0.002378  ( 0.016710  0.045776 -0.001844)
 19:    318.51   0.003142   15.88  0.003078  (-0.026115  0.043158 -0.023099)
 20:    344.85   0.001462    7.39  0.001323  ( 0.004749  0.000632 -0.036060)
 21:    384.31   0.003065   15.49  0.002488  ( 0.043701  0.001062  0.024032)
 22:    410.80   0.009446   47.73  0.007175  ( 0.059993  0.058789 -0.010953)
 23:    417.05   0.000845    4.27  0.000632  ( 0.022767  0.004598  0.009628)
 24:    451.57   0.000925    4.68  0.000640  (-0.015389  0.018406  0.007998)
 25:    490.93   0.001049    5.30  0.000667  (-0.011763 -0.003116  0.022780)
 26:    534.98   0.005369   27.13  0.003132  ( 0.044625  0.027676 -0.019356)
 27:    569.01   0.004625   23.37  0.002536  ( 0.035847 -0.015096  0.031990)
 28:    606.43   0.000936    4.73  0.000482  ( 0.016341 -0.014640  0.000400)
 29:    613.31   0.003324   16.80  0.001691  ( 0.025024  0.017160 -0.027759)
 30:    638.22   0.005027   25.40  0.002458  (-0.026283 -0.041083 -0.008898)
 31:    761.15   0.000534    2.70  0.000219  (-0.013922 -0.004388  0.002397)
 32:    824.00   0.010023   50.65  0.003796  ( 0.055266 -0.014394 -0.023118)
 33:    855.06   0.004334   21.90  0.001582  ( 0.028934  0.027219 -0.001925)
 34:    896.92   0.006319   31.93  0.002199  (-0.046811 -0.001244 -0.002411)
 35:    953.85   0.003268   16.51  0.001069  ( 0.021462  0.005260  0.024100)
 36:    970.57   0.002152   10.88  0.000692  ( 0.017396  0.019173  0.004666)
 37:    988.47   0.004659   23.55  0.001471  (-0.030460  0.009109 -0.021450)
 38:   1017.20   0.008739   44.16  0.002681  (-0.035566  0.024333 -0.028704)
 39:   1051.13   0.005911   29.87  0.001755  ( 0.005900  0.005677 -0.041083)
 40:   1065.14   0.002521   12.74  0.000739  ( 0.007766 -0.020515 -0.016046)
 41:   1082.40   0.006279   31.73  0.001810  ( 0.032853 -0.009418 -0.025342)
 42:   1092.37   0.008972   45.34  0.002563  ( 0.003061  0.041350 -0.029050)
 43:   1125.34   0.001000    5.05  0.000277  (-0.015822  0.000692  0.005147)
 44:   1142.92   0.019938  100.76  0.005444  ( 0.071143  0.008585  0.017570)
 45:   1170.93   0.003526   17.82  0.000940  ( 0.016327  0.020121 -0.016379)
 46:   1183.12   0.026895  135.92  0.007094  ( 0.042329  0.070350 -0.018792)
 47:   1187.79   0.006461   32.65  0.001698  ( 0.021896 -0.019105  0.029208)
 48:   1236.85   0.007488   37.84  0.001889  (-0.028821  0.013105 -0.029780)
 49:   1278.38   0.012472   63.03  0.003044  (-0.033561 -0.043379 -0.006036)
 50:   1309.96   0.014841   75.00  0.003536  (-0.022385  0.037558 -0.040297)
 51:   1349.81   0.005785   29.24  0.001338  (-0.004130  0.019790 -0.030476)
 52:   1363.45   0.005190   26.23  0.001188  ( 0.024402  0.022751  0.008645)
 53:   1383.81   0.016348   82.62  0.003687  (-0.034750 -0.034601  0.035804)
 54:   1412.15   0.004653   23.52  0.001028  (-0.023750 -0.006923 -0.020404)
 55:   1413.57   0.003495   17.66  0.000772  (-0.025422 -0.006493  0.009115)
 56:   1430.11   0.008948   45.22  0.001953  ( 0.002983 -0.039245  0.020088)
 57:   1443.66   0.011829   59.78  0.002557  ( 0.044364  0.020197 -0.013450)
 58:   1454.73   0.014334   72.44  0.003075  (-0.006088  0.055076  0.002099)
 59:   1465.59   0.031401  158.69  0.006686  ( 0.052743 -0.037494  0.049986)
 60:   1478.49   0.004975   25.14  0.001050  ( 0.016979  0.014332  0.023588)
 61:   1482.10   0.020547  103.84  0.004326  ( 0.030896  0.015356 -0.056000)
 62:   1494.62   0.015322   77.43  0.003199  (-0.010763  0.046416 -0.030477)
 63:   1498.54   0.004881   24.67  0.001016  (-0.023057 -0.013906  0.017073)
 64:   1499.78   0.016417   82.97  0.003416  ( 0.002468  0.022162 -0.054025)
 65:   1504.48   0.000863    4.36  0.000179  (-0.000906 -0.013217  0.001842)
 66:   1510.99   0.000454    2.29  0.000094  (-0.008707  0.001549  0.003939)
 67:   1513.10   0.001870    9.45  0.000386  (-0.012012  0.011988 -0.009884)
 68:   1516.36   0.003401   17.19  0.000700  (-0.023634  0.006484  0.009965)
 69:   1543.47   0.026239  132.60  0.005305  ( 0.021782 -0.054798 -0.042752)
 70:   1558.69   0.091301  461.40  0.018279  (-0.109164 -0.005299  0.079589)
 71:   1651.21   0.120643  609.68  0.022800  (-0.143390 -0.035200  0.031634)
 72:   1666.44   0.116710  589.80  0.021855  ( 0.104923 -0.027558  0.100435)
 73:   1696.07   0.036622  185.07  0.006738  (-0.076253  0.000030  0.030393)
 74:   1697.80   0.015405   77.85  0.002831  (-0.023638 -0.045895 -0.012900)
 75:   3024.44   0.275345  1391.48  0.028410  (-0.160204 -0.041571 -0.031887)
 76:   3050.56   0.008651   43.72  0.000885  (-0.004815  0.025790  0.014022)
 77:   3055.73   0.003134   15.84  0.000320  ( 0.016441  0.006132 -0.003490)
 78:   3064.46   0.000835    4.22  0.000085  ( 0.008483  0.003565 -0.000584)
 79:   3072.32   0.006295   31.81  0.000639  (-0.012100 -0.008527 -0.020500)
 80:   3091.97   0.001795    9.07  0.000181  (-0.007013 -0.007156  0.008989)
 81:   3109.06   0.006721   33.96  0.000675  (-0.011413  0.016456 -0.016539)
 82:   3117.62   0.003043   15.38  0.000305  ( 0.010953  0.008913 -0.010257)
 83:   3127.17   0.001375    6.95  0.000137  (-0.006239  0.007536  0.006438)
 84:   3132.64   0.003494   17.66  0.000348  ( 0.002196 -0.012666  0.013521)
 85:   3142.86   0.000847    4.28  0.000084  ( 0.007878  0.001898 -0.004297)
 86:   3164.84   0.002066   10.44  0.000204  ( 0.005159 -0.006911  0.011373)
 87:   3166.73   0.002694   13.62  0.000266  (-0.008436 -0.009335 -0.010354)
 88:   3167.35   0.000651    3.29  0.000064  ( 0.003340 -0.005660  0.004573)
 89:   3182.60   0.001525    7.71  0.000150  ( 0.010040  0.006913 -0.000990)
 90:   3193.01   0.000688    3.48  0.000067  (-0.002820  0.003519  0.006849)
 91:   3462.70   0.025921  130.99  0.002336  (-0.045230  0.005838  0.016006)
 92:   3520.83   0.026038  131.59  0.002308  (-0.004243  0.045069 -0.016083)

* The epsilon (eps) is given for a Dirac delta lineshape.
** The dipole moment derivative (T) already includes vibrational overlap.

The first frequency considered to be a vibration is 6
The total number of vibrations considered is 87


--------------------------
THERMOCHEMISTRY AT 298.15K
--------------------------

Temperature         ... 298.15 K
Pressure            ... 1.00 atm
Total Mass          ... 188.25 AMU

Throughout the following assumptions are being made:
  (1) The electronic state is orbitally nondegenerate
  (2) There are no thermally accessible electronically excited states
  (3) Hindered rotations indicated by low frequency modes are not
      treated as such but are treated as vibrations and this may
      cause some error
  (4) All equations used are the standard statistical mechanics
      equations for an ideal gas
  (5) All vibrations are strictly harmonic

freq.      33.67  E(vib)   ...       0.55 
freq.      56.67  E(vib)   ...       0.52 
freq.      82.60  E(vib)   ...       0.48 
freq.      85.85  E(vib)   ...       0.48 
freq.     100.57  E(vib)   ...       0.46 
freq.     119.87  E(vib)   ...       0.44 
freq.     144.93  E(vib)   ...       0.41 
freq.     161.62  E(vib)   ...       0.39 
freq.     184.04  E(vib)   ...       0.37 
freq.     198.12  E(vib)   ...       0.35 
freq.     232.42  E(vib)   ...       0.32 
freq.     247.54  E(vib)   ...       0.31 
freq.     289.14  E(vib)   ...       0.27 
freq.     318.51  E(vib)   ...       0.25 
freq.     344.85  E(vib)   ...       0.23 
freq.     384.31  E(vib)   ...       0.20 
freq.     410.80  E(vib)   ...       0.19 
freq.     417.05  E(vib)   ...       0.18 
freq.     451.57  E(vib)   ...       0.16 
freq.     490.93  E(vib)   ...       0.14 
freq.     534.98  E(vib)   ...       0.13 
freq.     569.01  E(vib)   ...       0.11 
freq.     606.43  E(vib)   ...       0.10 
freq.     613.31  E(vib)   ...       0.10 
freq.     638.22  E(vib)   ...       0.09 
freq.     761.15  E(vib)   ...       0.06 
freq.     824.00  E(vib)   ...       0.05 
freq.     855.06  E(vib)   ...       0.04 
freq.     896.92  E(vib)   ...       0.03 
freq.     953.85  E(vib)   ...       0.03 
freq.     970.57  E(vib)   ...       0.03 
freq.     988.47  E(vib)   ...       0.02 
freq.    1017.20  E(vib)   ...       0.02 
freq.    1051.13  E(vib)   ...       0.02 
freq.    1065.14  E(vib)   ...       0.02 
freq.    1082.40  E(vib)   ...       0.02 
freq.    1092.37  E(vib)   ...       0.02 
freq.    1125.34  E(vib)   ...       0.01 
freq.    1142.92  E(vib)   ...       0.01 
freq.    1170.93  E(vib)   ...       0.01 
freq.    1183.12  E(vib)   ...       0.01 
freq.    1187.79  E(vib)   ...       0.01 
freq.    1236.85  E(vib)   ...       0.01 
freq.    1278.38  E(vib)   ...       0.01 
freq.    1309.96  E(vib)   ...       0.01 
freq.    1349.81  E(vib)   ...       0.01 
freq.    1363.45  E(vib)   ...       0.01 
freq.    1383.81  E(vib)   ...       0.00 
freq.    1412.15  E(vib)   ...       0.00 
freq.    1413.57  E(vib)   ...       0.00 
freq.    1430.11  E(vib)   ...       0.00 
freq.    1443.66  E(vib)   ...       0.00 
freq.    1454.73  E(vib)   ...       0.00 
freq.    1465.59  E(vib)   ...       0.00 
freq.    1478.49  E(vib)   ...       0.00 
freq.    1482.10  E(vib)   ...       0.00 
freq.    1494.62  E(vib)   ...       0.00 
freq.    1498.54  E(vib)   ...       0.00 
freq.    1499.78  E(vib)   ...       0.00 
freq.    1504.48  E(vib)   ...       0.00 
freq.    1510.99  E(vib)   ...       0.00 
freq.    1513.10  E(vib)   ...       0.00 
freq.    1516.36  E(vib)   ...       0.00 
freq.    1543.47  E(vib)   ...       0.00 
freq.    1558.69  E(vib)   ...       0.00 
freq.    1651.21  E(vib)   ...       0.00 
freq.    1666.44  E(vib)   ...       0.00 
freq.    1696.07  E(vib)   ...       0.00 
freq.    1697.80  E(vib)   ...       0.00 
freq.    3024.44  E(vib)   ...       0.00 
freq.    3050.56  E(vib)   ...       0.00 
freq.    3055.73  E(vib)   ...       0.00 
freq.    3064.46  E(vib)   ...       0.00 
freq.    3072.32  E(vib)   ...       0.00 
freq.    3091.97  E(vib)   ...       0.00 
freq.    3109.06  E(vib)   ...       0.00 
freq.    3117.62  E(vib)   ...       0.00 
freq.    3127.17  E(vib)   ...       0.00 
freq.    3132.64  E(vib)   ...       0.00 
freq.    3142.86  E(vib)   ...       0.00 
freq.    3164.84  E(vib)   ...       0.00 
freq.    3166.73  E(vib)   ...       0.00 
freq.    3167.35  E(vib)   ...       0.00 
freq.    3182.60  E(vib)   ...       0.00 
freq.    3193.01  E(vib)   ...       0.00 
freq.    3462.70  E(vib)   ...       0.00 
freq.    3520.83  E(vib)   ...       0.00 

------------
INNER ENERGY
------------

The inner energy is: U= E(el) + E(ZPE) + E(vib) + E(rot) + E(trans)
    E(el)   - is the total energy from the electronic structure calculation
              = E(kin-el) + E(nuc-el) + E(el-el) + E(nuc-nuc)
    E(ZPE)  - the the zero temperature vibrational energy from the frequency calculation
    E(vib)  - the the finite temperature correction to E(ZPE) due to population
              of excited vibrational states
    E(rot)  - is the rotational thermal energy
    E(trans)- is the translational thermal energy

Summary of contributions to the inner energy U:
Electronic energy                ...   -629.98656667 Eh
Zero point energy                ...      0.27745002 Eh     174.10 kcal/mol
Thermal vibrational correction   ...      0.01232643 Eh       7.73 kcal/mol
Thermal rotational correction    ...      0.00141627 Eh       0.89 kcal/mol
Thermal translational correction ...      0.00141627 Eh       0.89 kcal/mol
-----------------------------------------------------------------------
Total thermal energy                   -629.69395767 Eh


Summary of corrections to the electronic energy:
(perhaps to be used in another calculation)
Total thermal correction                  0.01515897 Eh       9.51 kcal/mol
Non-thermal (ZPE) correction              0.27745002 Eh     174.10 kcal/mol
-----------------------------------------------------------------------
Total correction                          0.29260899 Eh     183.61 kcal/mol


--------
ENTHALPY
--------

The enthalpy is H = U + kB*T
                kB is Boltzmann's constant
Total free energy                 ...   -629.69395767 Eh 
Thermal Enthalpy correction       ...      0.00094421 Eh       0.59 kcal/mol
-----------------------------------------------------------------------
Total Enthalpy                    ...   -629.69301346 Eh


Note: Only C1 symmetry has been detected, increase convergence thresholds 
      if your molecule has a higher symmetry. Symmetry factor of 1.0 is   
      used for the rotational entropy correction. 
 

Note: Rotational entropy computed according to Herzberg 
Infrared and Raman Spectra, Chapter V,1, Van Nostrand Reinhold, 1945 
Point Group:  C1, Symmetry Number:   1  
Rotational constants in cm-1:     0.036724     0.018112     0.015267 

Vibrational entropy computed according to the QRRHO of S. Grimme
Chem.Eur.J. 2012 18 9955


-------
ENTROPY
-------

The entropy contributions are T*S = T*(S(el)+S(vib)+S(rot)+S(trans))
     S(el)   - electronic entropy
     S(vib)  - vibrational entropy
     S(rot)  - rotational entropy
     S(trans)- translational entropy
The entropies will be listed as multiplied by the temperature to get
units of energy

Electronic entropy                ...      0.00000000 Eh      0.00 kcal/mol
Vibrational entropy               ...      0.02192415 Eh     13.76 kcal/mol
Rotational entropy                ...      0.01493869 Eh      9.37 kcal/mol
Translational entropy             ...      0.01976718 Eh     12.40 kcal/mol
-----------------------------------------------------------------------
Final entropy term                ...      0.05663002 Eh     35.54 kcal/mol

In case the symmetry of your molecule has not been determined correctly
or in case you have a reason to use a different symmetry number we print 
out the resulting rotational entropy values for sn=1,12 :
 --------------------------------------------------------
|  sn= 1 | S(rot)=       0.01493869 Eh      9.37 kcal/mol|
|  sn= 2 | S(rot)=       0.01428423 Eh      8.96 kcal/mol|
|  sn= 3 | S(rot)=       0.01390140 Eh      8.72 kcal/mol|
|  sn= 4 | S(rot)=       0.01362977 Eh      8.55 kcal/mol|
|  sn= 5 | S(rot)=       0.01341909 Eh      8.42 kcal/mol|
|  sn= 6 | S(rot)=       0.01324694 Eh      8.31 kcal/mol|
|  sn= 7 | S(rot)=       0.01310140 Eh      8.22 kcal/mol|
|  sn= 8 | S(rot)=       0.01297532 Eh      8.14 kcal/mol|
|  sn= 9 | S(rot)=       0.01286411 Eh      8.07 kcal/mol|
|  sn=10 | S(rot)=       0.01276463 Eh      8.01 kcal/mol|
|  sn=11 | S(rot)=       0.01267464 Eh      7.95 kcal/mol|
|  sn=12 | S(rot)=       0.01259249 Eh      7.90 kcal/mol|
 --------------------------------------------------------


-------------------
GIBBS FREE ENERGY
-------------------

The Gibbs free energy is G = H - T*S

Total enthalpy                    ...   -629.69301346 Eh 
Total entropy correction          ...     -0.05663002 Eh    -35.54 kcal/mol
-----------------------------------------------------------------------
Final Gibbs free energy         ...   -629.74964348 Eh

For completeness - the Gibbs free energy minus the electronic energy
G-E(el)                           ...      0.23692319 Eh    148.67 kcal/mol


Timings for individual modules:

Sum of individual times         ...     3338.294 sec (=  55.638 min)
GTO integral calculation        ...       31.180 sec (=   0.520 min)   0.9 %
SCF iterations                  ...     1864.311 sec (=  31.072 min)  55.8 %
SCF Gradient evaluation         ...      515.116 sec (=   8.585 min)  15.4 %
Geometry relaxation             ...        1.826 sec (=   0.030 min)   0.1 %
Analytical frequency calculation...      925.860 sec (=  15.431 min)  27.7 %
                             ****ORCA TERMINATED NORMALLY****
TOTAL RUN TIME: 0 days 0 hours 55 minutes 47 seconds 539 msec
