
                                 *****************
                                 * O   R   C   A *
                                 *****************

                                            #,                                       
                                            ###                                      
                                            ####                                     
                                            #####                                    
                                            ######                                   
                                           ########,                                 
                                     ,,################,,,,,                         
                               ,,#################################,,                 
                          ,,##########################################,,             
                       ,#########################################, ''#####,          
                    ,#############################################,,   '####,        
                  ,##################################################,,,,####,       
                ,###########''''           ''''###############################       
              ,#####''   ,,,,##########,,,,          '''####'''          '####       
            ,##' ,,,,###########################,,,                        '##       
           ' ,,###''''                  '''############,,,                           
         ,,##''                                '''############,,,,        ,,,,,,###''
      ,#''                                            '''#######################'''  
     '                                                          ''''####''''         
             ,#######,   #######,   ,#######,      ##                                
            ,#'     '#,  ##    ##  ,#'     '#,    #''#        ######   ,####,        
            ##       ##  ##   ,#'  ##            #'  '#       #        #'  '#        
            ##       ##  #######   ##           ,######,      #####,   #    #        
            '#,     ,#'  ##    ##  '#,     ,#' ,#      #,         ##   #,  ,#        
             '#######'   ##     ##  '#######'  #'      '#     #####' # '####'        



                  #######################################################
                  #                        -***-                        #
                  #          Department of theory and spectroscopy      #
                  #    Directorship and core code : Frank Neese         #
                  #        Max Planck Institute fuer Kohlenforschung    #
                  #                Kaiser Wilhelm Platz 1               #
                  #                 D-45470 Muelheim/Ruhr               #
                  #                      Germany                        #
                  #                                                     #
                  #                  All rights reserved                #
                  #                        -***-                        #
                  #######################################################


                         Program Version 5.0.4 -  RELEASE  -


 With contributions from (in alphabetic order):
   Daniel Aravena         : Magnetic Suceptibility
   Michael Atanasov       : Ab Initio Ligand Field Theory (pilot matlab implementation)
   Alexander A. Auer      : GIAO ZORA, VPT2 properties, NMR spectrum
   Ute Becker             : Parallelization
   Giovanni Bistoni       : ED, misc. LED, open-shell LED, HFLD
   Martin Brehm           : Molecular dynamics
   Dmytro Bykov           : SCF Hessian
   Vijay G. Chilkuri      : MRCI spin determinant printing, contributions to CSF-ICE
   Dipayan Datta          : RHF DLPNO-CCSD density
   Achintya Kumar Dutta   : EOM-CC, STEOM-CC
   Dmitry Ganyushin       : Spin-Orbit,Spin-Spin,Magnetic field MRCI
   Miquel Garcia          : C-PCM and meta-GGA Hessian, CC/C-PCM, Gaussian charge scheme
   Yang Guo               : DLPNO-NEVPT2, F12-NEVPT2, CIM, IAO-localization
   Andreas Hansen         : Spin unrestricted coupled pair/coupled cluster methods
   Benjamin Helmich-Paris : MC-RPA, TRAH-SCF, COSX integrals
   Lee Huntington         : MR-EOM, pCC
   Robert Izsak           : Overlap fitted RIJCOSX, COSX-SCS-MP3, EOM
   Marcus Kettner         : VPT2
   Christian Kollmar      : KDIIS, OOCD, Brueckner-CCSD(T), CCSD density, CASPT2, CASPT2-K
   Simone Kossmann        : Meta GGA functionals, TD-DFT gradient, OOMP2, MP2 Hessian
   Martin Krupicka        : Initial AUTO-CI
   Lucas Lang             : DCDCAS
   Marvin Lechner         : AUTO-CI (C++ implementation), FIC-MRCC
   Dagmar Lenk            : GEPOL surface, SMD
   Dimitrios Liakos       : Extrapolation schemes; Compound Job, initial MDCI parallelization
   Dimitrios Manganas     : Further ROCIS development; embedding schemes
   Dimitrios Pantazis     : SARC Basis sets
   Anastasios Papadopoulos: AUTO-CI, single reference methods and gradients
   Taras Petrenko         : DFT Hessian,TD-DFT gradient, ASA, ECA, R-Raman, ABS, FL, XAS/XES, NRVS
   Peter Pinski           : DLPNO-MP2, DLPNO-MP2 Gradient
   Christoph Reimann      : Effective Core Potentials
   Marius Retegan         : Local ZFS, SOC
   Christoph Riplinger    : Optimizer, TS searches, QM/MM, DLPNO-CCSD(T), (RO)-DLPNO pert. Triples
   Tobias Risthaus        : Range-separated hybrids, TD-DFT gradient, RPA, STAB
   Michael Roemelt        : Original ROCIS implementation
   Masaaki Saitow         : Open-shell DLPNO-CCSD energy and density
   Barbara Sandhoefer     : DKH picture change effects
   Avijit Sen             : IP-ROCIS
   Kantharuban Sivalingam : CASSCF convergence, NEVPT2, FIC-MRCI
   Bernardo de Souza      : ESD, SOC TD-DFT
   Georgi Stoychev        : AutoAux, RI-MP2 NMR, DLPNO-MP2 response
   Willem Van den Heuvel  : Paramagnetic NMR
   Boris Wezisla          : Elementary symmetry handling
   Frank Wennmohs         : Technical directorship


 We gratefully acknowledge several colleagues who have allowed us to
 interface, adapt or use parts of their codes:
   Stefan Grimme, W. Hujo, H. Kruse, P. Pracht,  : VdW corrections, initial TS optimization,
                  C. Bannwarth, S. Ehlert          DFT functionals, gCP, sTDA/sTD-DF
   Ed Valeev, F. Pavosevic, A. Kumar             : LibInt (2-el integral package), F12 methods
   Garnet Chan, S. Sharma, J. Yang, R. Olivares  : DMRG
   Ulf Ekstrom                                   : XCFun DFT Library
   Mihaly Kallay                                 : mrcc  (arbitrary order and MRCC methods)
   Jiri Pittner, Ondrej Demel                    : Mk-CCSD
   Frank Weinhold                                : gennbo (NPA and NBO analysis)
   Christopher J. Cramer and Donald G. Truhlar   : smd solvation model
   Lars Goerigk                                  : TD-DFT with DH, B97 family of functionals
   V. Asgeirsson, H. Jonsson                     : NEB implementation
   FAccTs GmbH                                   : IRC, NEB, NEB-TS, DLPNO-Multilevel, CI-OPT
                                                   MM, QMMM, 2- and 3-layer-ONIOM, Crystal-QMMM,
                                                   LR-CPCM, SF, NACMEs, symmetry and pop. for TD-DFT,
                                                   nearIR, NL-DFT gradient (VV10), updates on ESD,
                                                   ML-optimized integration grids
   S Lehtola, MJT Oliveira, MAL Marques          : LibXC Library
   Liviu Ungur et al                             : ANISO software


 Your calculation uses the libint2 library for the computation of 2-el integrals
 For citations please refer to: http://libint.valeyev.net

 Your ORCA version has been built with support for libXC version: 5.1.0
 For citations please refer to: https://tddft.org/programs/libxc/

 This ORCA versions uses:
   CBLAS   interface :  Fast vector & matrix operations
   LAPACKE interface :  Fast linear algebra routines
   SCALAPACK package :  Parallel linear algebra routines
   Shared memory     :  Shared parallel matrices
   BLAS/LAPACK       :  OpenBLAS 0.3.15  USE64BITINT DYNAMIC_ARCH NO_AFFINITY SkylakeX SINGLE_THREADED
        Core in use  :  SkylakeX
   Copyright (c) 2011-2014, The OpenBLAS Project




***************************************
The coordinates will be read from file: /users/fjb15167/WWenergy/structures/Nw.xyz
***************************************


Your calculation utilizes the atom-pairwise dispersion correction
based on tight binding partial charges (D4)
Cite in your paper:
E.Caldeweyher, C.Bannwarth, S.Grimme, J.Chem.Phys., (2017), 147, 034112.
E.Caldeweyher, S.Ehlert, A.Hansen, H.Neugebauer, S.Grimme, J.Chem.Phys., (2018), in progress.
   

================================================================================

----- Orbital basis set information -----
Your calculation utilizes the basis: 6-31G(d)
   H-He, Li-Ne : W. J. Hehre, R. Ditchfield and J.A. Pople, J. Chem. Phys. 56, 2257 (1972).
                 Note: He and Ne are unpublished basis sets taken from the Gaussian program.
                 Note: Li and B from J. D. Dill and J. A. Pople, J. Chem. Phys. 62, 2921 (1975).
   Na - Ar     : M. M. Francl, W. J. Pietro, W. J. Hehre, J. S. Binkley, M. S. Gordon, 
                 D. J. DeFrees and J. A. Pople, J. Chem. Phys. 77, 3654 (1982).
   K - Zn      : V. A. Rassolov, J. A. Pople, M. A. Ratner, and T. L. Windus, J. Chem. Phys. 109, 1223 (1998).

----- AuxJ basis set information -----
Your calculation utilizes the AutoAux generation procedure.
  G. L. Stoychev, A. A. Auer, F. Neese, J. Chem. Theory Comput. 13, 554 (2017)

----- AuxC basis set information -----
Your calculation utilizes the AutoAux generation procedure.
  G. L. Stoychev, A. A. Auer, F. Neese, J. Chem. Theory Comput. 13, 554 (2017)

----- AuxJK basis set information -----
Your calculation utilizes the AutoAux generation procedure.
  G. L. Stoychev, A. A. Auer, F. Neese, J. Chem. Theory Comput. 13, 554 (2017)

================================================================================
                                        WARNINGS
                       Please study these warnings very carefully!
================================================================================


WARNING: Geometry Optimization
  ===> : Switching off AutoStart
         For restart on a previous wavefunction, please use MOREAD

INFO   : the flag for use of the SHARK integral package has been found!

================================================================================
                                       INPUT FILE
================================================================================
NAME = Nw_octanol.inp
|  1> ! OPT FREQ B3LYP 6-31G(d) D4 AUTOAUX
|  2> ! CPCM
|  3> 
|  4> %cpcm
|  5> epsilon 9.8629 
|  6> refrac  1.4295 
|  7> end
|  8> 
|  9> %PAL NPROCS 4 END
| 10> 
| 11> %maxcore 3375
| 12> 
| 13> *xyzfile 0 1 /users/fjb15167/WWenergy/structures/Nw.xyz
| 14> 
| 15>                          ****END OF INPUT****
================================================================================

                       *****************************
                       * Geometry Optimization Run *
                       *****************************

Geometry optimization settings:
Update method            Update   .... BFGS
Choice of coordinates    CoordSys .... Z-matrix Internals
Initial Hessian          InHess   .... Almoef's Model

Convergence Tolerances:
Energy Change            TolE     ....  5.0000e-06 Eh
Max. Gradient            TolMAXG  ....  3.0000e-04 Eh/bohr
RMS Gradient             TolRMSG  ....  1.0000e-04 Eh/bohr
Max. Displacement        TolMAXD  ....  4.0000e-03 bohr
RMS Displacement         TolRMSD  ....  2.0000e-03 bohr
Strict Convergence                ....  False
------------------------------------------------------------------------------
                        ORCA OPTIMIZATION COORDINATE SETUP
------------------------------------------------------------------------------

The optimization will be done in new redundant internal coordinates
Making redundant internal coordinates   ...  (new redundants) done
Evaluating the initial hessian          ...  (Almloef) done
Evaluating the coordinates              ...  done
Calculating the B-matrix                .... done
Calculating the G-matrix                .... done
Diagonalizing the G-matrix              .... done
Small eigenvalue found = 2.717e-03
Small eigenvalue found = 9.632e-03
Small eigenvalue found = 1.079e-02
Small eigenvalue found = 1.465e-02
Small eigenvalue found = 2.332e-02
Small eigenvalue found = 2.969e-02
The first mode is                       ....   89
The number of degrees of freedom        ....  111

    -----------------------------------------------------------------
                    Redundant Internal Coordinates


    -----------------------------------------------------------------
         Definition                    Initial Value    Approx d2E/dq
    -----------------------------------------------------------------
      1. B(O   4,C   0)                  1.2382         0.977244   
      2. B(C   5,C   0)                  1.5171         0.391642   
      3. B(C   5,H   3)                  1.0894         0.360933   
      4. B(C   5,H   1)                  1.0934         0.355677   
      5. B(C   5,H   2)                  1.0945         0.354244   
      6. B(N   6,C   0)                  1.3780         0.584786   
      7. B(C   7,N   6)                  1.4624         0.428876   
      8. B(H   8,C   7)                  1.0961         0.352125   
      9. B(H   9,C   7)                  1.0936         0.355400   
     10. B(C  10,N   6)                  1.4703         0.416593   
     11. B(H  11,C  10)                  1.1013         0.345455   
     12. B(H  12,C  10)                  1.0907         0.359147   
     13. B(C  13,C  10)                  1.4900         0.432639   
     14. B(C  14,C  13)                  1.3769         0.655496   
     15. B(H  15,C  14)                  1.0828         0.369765   
     16. B(N  16,C  14)                  1.3737         0.594195   
     17. B(H  17,N  16)                  1.0104         0.432131   
     18. B(C  18,N  16)                  1.3808         0.578910   
     19. B(C  19,C  18)                  1.4229         0.553645   
     20. B(C  19,C  13)                  1.4324         0.534632   
     21. B(C  20,C  19)                  1.4086         0.583518   
     22. B(H  21,C  20)                  1.0880         0.362708   
     23. B(C  22,C  20)                  1.3895         0.625862   
     24. B(H  23,C  22)                  1.0879         0.362945   
     25. B(C  24,C  18)                  1.4002         0.601896   
     26. B(H  25,C  24)                  1.0883         0.362312   
     27. B(C  26,C  24)                  1.3896         0.625698   
     28. B(C  26,C  22)                  1.4121         0.576073   
     29. B(H  27,C  26)                  1.0873         0.363684   
     30. B(C  28,C   7)                  1.5319         0.370930   
     31. B(O  29,C  28)                  1.2406         0.968807   
     32. B(N  30,C  28)                  1.3608         0.622989   
     33. B(C  31,N  30)                  1.4526         0.444583   
     34. B(H  32,C  31)                  1.0962         0.351927   
     35. B(H  33,C  31)                  1.0959         0.352345   
     36. B(H  34,C  31)                  1.0874         0.363572   
     37. B(C  35,N  30)                  1.4535         0.443197   
     38. B(H  36,C  26)                  3.0559         0.000263   
     39. B(H  36,C  35)                  1.0952         0.353263   
     40. B(H  37,C  35)                  1.0884         0.362200   
     41. B(H  38,C  35)                  1.0963         0.351911   
     42. A(C   5,C   0,N   6)          118.0110         0.393376   
     43. A(O   4,C   0,C   5)          120.2192         0.430889   
     44. A(O   4,C   0,N   6)          121.7427         0.460282   
     45. A(H   2,C   5,H   3)          109.1369         0.290197   
     46. A(C   0,C   5,H   3)          106.6231         0.326972   
     47. A(H   1,C   5,H   3)          109.0560         0.290381   
     48. A(C   0,C   5,H   2)          111.9522         0.325967   
     49. A(C   0,C   5,H   1)          111.8029         0.326183   
     50. A(H   1,C   5,H   2)          108.2081         0.289530   
     51. A(C   0,N   6,C  10)          123.3831         0.395121   
     52. A(C   7,N   6,C  10)          115.3295         0.374374   
     53. A(C   0,N   6,C   7)          118.1128         0.397141   
     54. A(N   6,C   7,H   8)          109.5414         0.328572   
     55. A(H   8,C   7,H   9)          108.4523         0.289223   
     56. A(N   6,C   7,C  28)          116.0395         0.369279   
     57. A(H   9,C   7,C  28)          110.8000         0.323243   
     58. A(N   6,C   7,H   9)          107.1134         0.329075   
     59. A(H   8,C   7,C  28)          104.7007         0.322753   
     60. A(H  12,C  10,C  13)          110.3344         0.332122   
     61. A(H  11,C  10,C  13)          109.4853         0.329993   
     62. A(N   6,C  10,C  13)          111.6497         0.377311   
     63. A(H  11,C  10,H  12)          107.3208         0.288832   
     64. A(N   6,C  10,H  12)          108.7017         0.328068   
     65. A(N   6,C  10,H  11)          109.2427         0.325974   
     66. A(C  10,C  13,C  19)          126.9971         0.396589   
     67. A(C  14,C  13,C  19)          106.7009         0.426919   
     68. A(C  10,C  13,C  14)          126.1242         0.411111   
     69. A(H  15,C  14,N  16)          120.5659         0.349790   
     70. A(C  13,C  14,N  16)          109.7770         0.432248   
     71. A(C  13,C  14,H  15)          129.6116         0.357862   
     72. A(H  17,N  16,C  18)          125.1016         0.354435   
     73. A(C  14,N  16,C  18)          109.3142         0.419983   
     74. A(C  14,N  16,H  17)          124.7872         0.356006   
     75. A(N  16,C  18,C  19)          107.0717         0.417433   
     76. A(C  19,C  18,C  24)          122.5214         0.423089   
     77. A(N  16,C  18,C  24)          130.3731         0.423704   
     78. A(C  18,C  19,C  20)          118.8010         0.420753   
     79. A(C  13,C  19,C  20)          134.1014         0.418139   
     80. A(C  13,C  19,C  18)          107.0964         0.414247   
     81. A(H  21,C  20,C  22)          120.4342         0.353904   
     82. A(C  19,C  20,C  22)          118.8568         0.430088   
     83. A(C  19,C  20,H  21)          120.7043         0.349737   
     84. A(H  23,C  22,C  26)          119.1456         0.349019   
     85. A(C  20,C  22,C  26)          121.2504         0.429098   
     86. A(C  20,C  22,H  23)          119.6040         0.353943   
     87. A(H  25,C  24,C  26)          121.1649         0.353823   
     88. A(C  18,C  24,C  26)          117.2651         0.432470   
     89. A(C  18,C  24,H  25)          121.5643         0.351508   
     90. A(C  24,C  26,H  27)          119.4036         0.354049   
     91. A(C  22,C  26,H  27)          119.2940         0.349138   
     92. A(C  22,C  26,C  24)          121.2924         0.429078   
     93. A(O  29,C  28,N  30)          122.9174         0.464900   
     94. A(C   7,C  28,N  30)          118.0532         0.393994   
     95. A(C   7,C  28,O  29)          119.0103         0.426049   
     96. A(C  28,N  30,C  35)          118.9026         0.403919   
     97. A(C  31,N  30,C  35)          115.4060         0.380766   
     98. A(C  28,N  30,C  31)          125.6319         0.404142   
     99. A(H  33,C  31,H  34)          108.1635         0.290284   
    100. A(H  32,C  31,H  34)          109.5990         0.290230   
    101. A(N  30,C  31,H  34)          111.5690         0.332286   
    102. A(H  32,C  31,H  33)          108.4745         0.288806   
    103. A(N  30,C  31,H  33)          108.2441         0.330565   
    104. A(N  30,C  31,H  32)          110.6959         0.330500   
    105. A(H  37,C  35,H  38)          109.5066         0.290056   
    106. A(H  36,C  35,H  38)          109.2039         0.288922   
    107. A(N  30,C  35,H  38)          110.2190         0.330327   
    108. A(H  36,C  35,H  37)          109.9974         0.290230   
    109. A(N  30,C  35,H  37)          108.2149         0.331906   
    110. A(N  30,C  35,H  36)          109.6868         0.330536   
    111. D(H   1,C   5,C   0,N   6)    -65.2372         0.011406   
    112. D(H   2,C   5,C   0,N   6)     56.3696         0.011406   
    113. D(H   1,C   5,C   0,O   4)    116.6220         0.011406   
    114. D(H   2,C   5,C   0,O   4)   -121.7712         0.011406   
    115. D(H   3,C   5,C   0,N   6)    175.6577         0.011406   
    116. D(H   3,C   5,C   0,O   4)     -2.4831         0.011406   
    117. D(C   7,N   6,C   0,O   4)    -10.8439         0.027458   
    118. D(C  10,N   6,C   0,C   5)     12.1492         0.027458   
    119. D(C  10,N   6,C   0,O   4)   -169.7399         0.027458   
    120. D(C   7,N   6,C   0,C   5)    171.0452         0.027458   
    121. D(C  28,C   7,N   6,C   0)    125.6817         0.015682   
    122. D(H   9,C   7,N   6,C   0)      1.3510         0.015682   
    123. D(H   9,C   7,N   6,C  10)    161.9222         0.015682   
    124. D(H   8,C   7,N   6,C   0)   -116.0815         0.015682   
    125. D(C  28,C   7,N   6,C  10)    -73.7470         0.015682   
    126. D(H   8,C   7,N   6,C  10)     44.4898         0.015682   
    127. D(C  13,C  10,N   6,C   7)     60.7083         0.014800   
    128. D(C  13,C  10,N   6,C   0)   -139.8623         0.014800   
    129. D(H  12,C  10,N   6,C   7)   -177.3484         0.014800   
    130. D(H  12,C  10,N   6,C   0)    -17.9190         0.014800   
    131. D(H  11,C  10,N   6,C   0)     98.8942         0.014800   
    132. D(H  11,C  10,N   6,C   7)    -60.5352         0.014800   
    133. D(C  19,C  13,C  10,H  12)    -52.0104         0.013820   
    134. D(C  19,C  13,C  10,H  11)   -169.9101         0.013820   
    135. D(C  19,C  13,C  10,N   6)     68.9873         0.013820   
    136. D(C  14,C  13,C  10,H  12)    133.4923         0.013820   
    137. D(C  14,C  13,C  10,H  11)     15.5926         0.013820   
    138. D(C  14,C  13,C  10,N   6)   -105.5100         0.013820   
    139. D(N  16,C  14,C  13,C  10)    176.5587         0.029953   
    140. D(H  15,C  14,C  13,C  19)   -176.3690         0.029953   
    141. D(H  15,C  14,C  13,C  10)     -0.9552         0.029953   
    142. D(N  16,C  14,C  13,C  19)      1.1449         0.029953   
    143. D(C  18,N  16,C  14,H  15)    175.7845         0.028410   
    144. D(C  18,N  16,C  14,C  13)     -1.9913         0.028410   
    145. D(H  17,N  16,C  14,H  15)      5.5910         0.028410   
    146. D(H  17,N  16,C  14,C  13)   -172.1847         0.028410   
    147. D(C  24,C  18,N  16,H  17)     -9.9706         0.026873   
    148. D(C  24,C  18,N  16,C  14)    179.8741         0.026873   
    149. D(C  19,C  18,N  16,H  17)    172.1445         0.026873   
    150. D(C  19,C  18,N  16,C  14)      1.9892         0.026873   
    151. D(C  20,C  19,C  18,C  24)      0.3185         0.020979   
    152. D(C  13,C  19,C  18,C  24)   -179.3500         0.020979   
    153. D(C  13,C  19,C  18,N  16)     -1.2610         0.020979   
    154. D(C  20,C  19,C  13,C  14)   -179.5091         0.019519   
    155. D(C  20,C  19,C  13,C  10)      5.1293         0.019519   
    156. D(C  20,C  19,C  18,N  16)    178.4075         0.020979   
    157. D(C  18,C  19,C  13,C  14)      0.0864         0.019519   
    158. D(C  18,C  19,C  13,C  10)   -175.2752         0.019519   
    159. D(C  22,C  20,C  19,C  18)      0.2026         0.023406   
    160. D(C  22,C  20,C  19,C  13)    179.7614         0.023406   
    161. D(H  21,C  20,C  19,C  18)   -179.0108         0.023406   
    162. D(H  21,C  20,C  19,C  13)      0.5480         0.023406   
    163. D(C  26,C  22,C  20,H  21)    179.3024         0.027136   
    164. D(C  26,C  22,C  20,C  19)      0.0868         0.027136   
    165. D(H  23,C  22,C  20,H  21)     -0.7763         0.027136   
    166. D(H  23,C  22,C  20,C  19)   -179.9919         0.027136   
    167. D(C  26,C  24,C  18,C  19)     -1.0993         0.024983   
    168. D(C  26,C  24,C  18,N  16)   -178.7012         0.024983   
    169. D(H  25,C  24,C  18,C  19)    179.7589         0.024983   
    170. D(H  25,C  24,C  18,N  16)      2.1570         0.024983   
    171. D(H  27,C  26,C  22,C  20)   -179.7627         0.024741   
    172. D(C  24,C  26,C  22,H  23)    179.1610         0.024741   
    173. D(C  24,C  26,C  22,C  20)     -0.9174         0.024741   
    174. D(H  27,C  26,C  24,H  25)     -0.6275         0.029474   
    175. D(H  27,C  26,C  24,C  18)   -179.7729         0.029474   
    176. D(C  22,C  26,C  24,H  25)   -179.4716         0.029474   
    177. D(C  22,C  26,C  24,C  18)      1.3830         0.029474   
    178. D(H  27,C  26,C  22,H  23)      0.3157         0.024741   
    179. D(N  30,C  28,C   7,H   9)     65.6435         0.010300   
    180. D(N  30,C  28,C   7,H   8)   -177.6320         0.010300   
    181. D(N  30,C  28,C   7,N   6)    -56.7641         0.010300   
    182. D(O  29,C  28,C   7,H   9)   -112.8138         0.010300   
    183. D(O  29,C  28,C   7,H   8)      3.9107         0.010300   
    184. D(O  29,C  28,C   7,N   6)    124.7786         0.010300   
    185. D(C  35,N  30,C  28,O  29)     -9.7597         0.031451   
    186. D(C  35,N  30,C  28,C   7)    171.8475         0.031451   
    187. D(C  31,N  30,C  28,O  29)    173.1818         0.031451   
    188. D(C  31,N  30,C  28,C   7)     -5.2110         0.031451   
    189. D(H  34,C  31,N  30,C  35)    165.6520         0.016857   
    190. D(H  34,C  31,N  30,C  28)    -17.1988         0.016857   
    191. D(H  33,C  31,N  30,C  35)     46.7541         0.016857   
    192. D(H  33,C  31,N  30,C  28)   -136.0967         0.016857   
    193. D(H  32,C  31,N  30,C  35)    -72.0100         0.016857   
    194. D(H  32,C  31,N  30,C  28)    105.1392         0.016857   
    195. D(H  38,C  35,N  30,C  31)    -62.3580         0.016751   
    196. D(H  38,C  35,N  30,C  28)    120.2885         0.016751   
    197. D(H  37,C  35,N  30,C  31)    177.9186         0.016751   
    198. D(H  37,C  35,N  30,C  28)      0.5651         0.016751   
    199. D(H  36,C  35,N  30,C  31)     57.9115         0.016751   
    200. D(H  36,C  35,N  30,C  28)   -119.4419         0.016751   
    -----------------------------------------------------------------

Number of atoms                         .... 39
Number of degrees of freedom            .... 200

         *************************************************************
         *                GEOMETRY OPTIMIZATION CYCLE   1            *
         *************************************************************
---------------------------------
CARTESIAN COORDINATES (ANGSTROEM)
---------------------------------
  C      3.318000    0.024000   -0.235000
  H      3.980000    0.956000   -2.085000
  H      3.118000    2.055000   -0.994000
  H      4.764000    1.513000   -0.590000
  O      4.002000   -0.436000    0.689000
  C      3.816000    1.213000   -1.035000
  N      2.078000   -0.491000   -0.545000
  C      1.679000   -1.751000    0.081000
  H      1.554000   -2.520000   -0.690000
  H      2.495000   -2.054000    0.743000
  C      1.331000   -0.127000   -1.758000
  H      1.475000   -0.908000   -2.521000
  H      1.745000    0.799000   -2.159000
  C     -0.124000    0.034000   -1.480000
  C     -1.120000   -0.850000   -1.830000
  H     -1.053000   -1.789000   -2.365000
  N     -2.326000   -0.408000   -1.343000
  H     -3.187000   -0.936000   -1.370000
  C     -2.130000    0.755000   -0.625000
  C     -0.745000    1.070000   -0.710000
  C     -0.276000    2.242000   -0.085000
  H      0.774000    2.521000   -0.144000
  C     -1.181000    3.047000    0.596000
  H     -0.832000    3.955000    1.083000
  C     -3.047000    1.569000    0.051000
  H     -4.104000    1.315000    0.103000
  C     -2.550000    2.709000    0.671000
  H     -3.231000    3.364000    1.209000
  C      0.345000   -1.735000    0.834000
  O     -0.528000   -2.562000    0.529000
  N      0.186000   -0.827000    1.835000
  C      1.213000    0.071000    2.334000
  H      1.038000    1.094000    1.981000
  H      1.168000    0.069000    3.429000
  H      2.207000   -0.253000    2.035000
  C     -1.126000   -0.672000    2.441000
  H     -1.479000    0.355000    2.299000
  H     -1.808000   -1.370000    1.959000
  H     -1.076000   -0.891000    3.514000

----------------------------
CARTESIAN COORDINATES (A.U.)
----------------------------
  NO LB      ZA    FRAG     MASS         X           Y           Z
   0 C     6.0000    0    12.011    6.270111    0.045353   -0.444086
   1 H     1.0000    0     1.008    7.521110    1.806578   -3.940079
   2 H     1.0000    0     1.008    5.892166    3.883387   -1.878388
   3 H     1.0000    0     1.008    9.002655    2.859156   -1.114938
   4 O     8.0000    0    15.999    7.562684   -0.823921    1.302021
   5 C     6.0000    0    12.011    7.211195    2.292238   -1.955867
   6 N     7.0000    0    14.007    3.926851   -0.927856   -1.029901
   7 C     6.0000    0    12.011    3.172850   -3.308910    0.153068
   8 H     1.0000    0     1.008    2.936634   -4.762110   -1.303911
   9 H     1.0000    0     1.008    4.714867   -3.881497    1.404067
  10 C     6.0000    0    12.011    2.515225   -0.239995   -3.322139
  11 H     1.0000    0     1.008    2.787346   -1.715871   -4.764000
  12 H     1.0000    0     1.008    3.297572    1.509891   -4.079919
  13 C     6.0000    0    12.011   -0.234326    0.064251   -2.796795
  14 C     6.0000    0    12.011   -2.116493   -1.606267   -3.458199
  15 H     1.0000    0     1.008   -1.989882   -3.380720   -4.469202
  16 N     7.0000    0    14.007   -4.395503   -0.771008   -2.537902
  17 H     1.0000    0     1.008   -6.022557   -1.768784   -2.588925
  18 C     6.0000    0    12.011   -4.025117    1.426743   -1.181079
  19 C     6.0000    0    12.011   -1.407846    2.022007   -1.341706
  20 C     6.0000    0    12.011   -0.521564    4.236766   -0.160627
  21 H     1.0000    0     1.008    1.462648    4.764000   -0.272121
  22 C     6.0000    0    12.011   -2.231767    5.757996    1.126277
  23 H     1.0000    0     1.008   -1.572252    7.473867    2.046573
  24 C     6.0000    0    12.011   -5.757996    2.964980    0.096376
  25 H     1.0000    0     1.008   -7.755436    2.484990    0.194642
  26 C     6.0000    0    12.011   -4.818802    5.119268    1.268006
  27 H     1.0000    0     1.008   -6.105705    6.357039    2.284679
  28 C     6.0000    0    12.011    0.651956   -3.278675    1.576032
  29 O     8.0000    0    15.999   -0.997775   -4.841478    0.999665
  30 N     7.0000    0    14.007    0.351489   -1.562804    3.467647
  31 C     6.0000    0    12.011    2.292238    0.134171    4.410621
  32 H     1.0000    0     1.008    1.961536    2.067360    3.743547
  33 H     1.0000    0     1.008    2.207200    0.130391    6.479871
  34 H     1.0000    0     1.008    4.170626   -0.478101    3.845593
  35 C     6.0000    0    12.011   -2.127832   -1.269896    4.612821
  36 H     1.0000    0     1.008   -2.794905    0.670853    4.344480
  37 H     1.0000    0     1.008   -3.416625   -2.588925    3.701973
  38 H     1.0000    0     1.008   -2.033345   -1.683746    6.640498

--------------------------------
INTERNAL COORDINATES (ANGSTROEM)
--------------------------------
 C      0   0   0     0.000000000000     0.00000000     0.00000000
 H      1   0   0     2.174711015285     0.00000000     0.00000000
 H      2   1   0     1.772322205469    66.04806609     0.00000000
 H      2   1   3     1.777619194316    63.45522798    67.25625916
 O      1   2   3     1.238237457033   128.74508568   245.66165388
 C      4   2   1     1.089370919384    35.54668729   320.10883170
 N      1   2   3     1.378014876552   104.04674954    92.01055946
 C      7   1   2     1.462421621831   118.11284795   145.13627104
 H      8   7   1     1.096096254897   109.54140020   243.91853752
 H      8   7   1     1.093576243341   107.11342935     1.35095514
 C      7   1   2     1.470331255194   123.38306088   346.24026642
 H     11   7   1     1.101301956777   109.24272790    98.89423151
 H     11   7   1     1.090721320962   108.70169754   342.08102903
 C     11   7   1     1.490043623522   111.64969521   220.13771112
 C     14  11   7     1.376942990832   126.12415632   254.49003157
 H     15  14  11     1.082790376758   129.61160595   359.04484520
 N     15  14  11     1.373669902124   109.77704755   176.55866857
 H     17  15  14     1.010363300996   124.78715160   187.81530014
 C     17  15  14     1.380763918996   109.31423648   358.00871789
 C     19  17  15     1.422910749134   107.07171350     1.98918190
 C     20  19  17     1.408605693585   118.80102392   178.40751944
 H     21  20  19     1.088035844998   120.70426259   180.98916555
 C     21  20  19     1.389536253575   118.85678180     0.20258828
 H     23  21  20     1.087857527436   119.60396020   180.00810737
 C     19  17  15     1.400164633177   130.37314781   179.87405699
 H     25  19  17     1.088333129148   121.56431145     2.15702402
 C     25  19  17     1.389607498541   117.26507946   181.29876780
 H     27  25  19     1.087304005327   119.40364994   180.22706735
 C      8   7   1     1.531933745304   116.03946266   125.68169654
 O     29   8   7     1.240597839753   119.01026123   124.77864212
 N     29   8   7     1.360788741870   118.05320068   303.23594299
 C     31  29   8     1.452630028603   125.63188885   354.78902196
 H     32  31  29     1.096249515393   110.69587549   105.13924386
 H     32  31  29     1.095926092399   108.24412620   223.90331220
 H     32  31  29     1.087388155168   111.56900827   342.80119653
 C     31  29   8     1.453480306024   118.90263443   171.84749903
 H     36  31  29     1.095217786561   109.68679769   240.55806123
 H     36  31  29     1.088417199423   108.21488289     0.56514748
 H     36  31  29     1.096261830039   110.21902771   120.28850892

---------------------------
INTERNAL COORDINATES (A.U.)
---------------------------
 C      0   0   0     0.000000000000     0.00000000     0.00000000
 H      1   0   0     4.109608239310     0.00000000     0.00000000
 H      2   1   0     3.349203589405    66.04806609     0.00000000
 H      2   1   3     3.359213447659    63.45522798    67.25625916
 O      1   2   3     2.339929682556   128.74508568   245.66165388
 C      4   2   1     2.058612695894    35.54668729   320.10883170
 N      1   2   3     2.604070725154   104.04674954    92.01055946
 C      7   1   2     2.763576357586   118.11284795   145.13627104
 H      8   7   1     2.071321738173   109.54140020   243.91853752
 H      8   7   1     2.066559606477   107.11342935     1.35095514
 C      7   1   2     2.778523398461   123.38306088   346.24026642
 H     11   7   1     2.081159089059   109.24272790    98.89423151
 H     11   7   1     2.061164585046   108.70169754   342.08102903
 C     11   7   1     2.815774376053   111.64969521   220.13771112
 C     14  11   7     2.602045154694   126.12415632   254.49003157
 H     15  14  11     2.046177272518   129.61160595   359.04484520
 N     15  14  11     2.595859913424   109.77704755   176.55866857
 H     17  15  14     1.909309934648   124.78715160   187.81530014
 C     17  15  14     2.609265662501   109.31423648   358.00871789
 C     19  17  15     2.688911628875   107.07171350     1.98918190
 C     20  19  17     2.661878991558   118.80102392   178.40751944
 H     21  20  19     2.056089770935   120.70426259   180.98916555
 C     21  20  19     2.625842972412   118.85678180     0.20258828
 H     23  21  20     2.055752799579   119.60396020   180.00810737
 C     19  17  15     2.645927699107   130.37314781   179.87405699
 H     25  19  17     2.056651556562   121.56431145     2.15702402
 C     25  19  17     2.625977605885   117.26507946   181.29876780
 H     27  25  19     2.054706794384   119.40364994   180.22706735
 C      8   7   1     2.894935233936   116.03946266   125.68169654
 O     29   8   7     2.344390159468   119.01026123   124.77864212
 N     29   8   7     2.571518048257   118.05320068   303.23594299
 C     31  29   8     2.745072927970   125.63188885   354.78902196
 H     32  31  29     2.071611358537   110.69587549   105.13924386
 H     32  31  29     2.071000177652   108.24412620   223.90331220
 H     32  31  29     2.054865814538   111.56900827   342.80119653
 C     31  29   8     2.746679719434   118.90263443   171.84749903
 H     36  31  29     2.069661673600   109.68679769   240.55806123
 H     36  31  29     2.056810426359   108.21488289     0.56514748
 H     36  31  29     2.071634629845   110.21902771   120.28850892

---------------------
BASIS SET INFORMATION
---------------------
There are 4 groups of distinct atoms

 Group   1 Type C   : 10s4p1d contracted to 3s2p1d pattern {631/31/1}
 Group   2 Type H   : 4s contracted to 2s pattern {31}
 Group   3 Type O   : 10s4p1d contracted to 3s2p1d pattern {631/31/1}
 Group   4 Type N   : 10s4p1d contracted to 3s2p1d pattern {631/31/1}

Atom   0C    basis set group =>   1
Atom   1H    basis set group =>   2
Atom   2H    basis set group =>   2
Atom   3H    basis set group =>   2
Atom   4O    basis set group =>   3
Atom   5C    basis set group =>   1
Atom   6N    basis set group =>   4
Atom   7C    basis set group =>   1
Atom   8H    basis set group =>   2
Atom   9H    basis set group =>   2
Atom  10C    basis set group =>   1
Atom  11H    basis set group =>   2
Atom  12H    basis set group =>   2
Atom  13C    basis set group =>   1
Atom  14C    basis set group =>   1
Atom  15H    basis set group =>   2
Atom  16N    basis set group =>   4
Atom  17H    basis set group =>   2
Atom  18C    basis set group =>   1
Atom  19C    basis set group =>   1
Atom  20C    basis set group =>   1
Atom  21H    basis set group =>   2
Atom  22C    basis set group =>   1
Atom  23H    basis set group =>   2
Atom  24C    basis set group =>   1
Atom  25H    basis set group =>   2
Atom  26C    basis set group =>   1
Atom  27H    basis set group =>   2
Atom  28C    basis set group =>   1
Atom  29O    basis set group =>   3
Atom  30N    basis set group =>   4
Atom  31C    basis set group =>   1
Atom  32H    basis set group =>   2
Atom  33H    basis set group =>   2
Atom  34H    basis set group =>   2
Atom  35C    basis set group =>   1
Atom  36H    basis set group =>   2
Atom  37H    basis set group =>   2
Atom  38H    basis set group =>   2
---------------------------------
AUXILIARY/J BASIS SET INFORMATION
---------------------------------
There are 4 groups of distinct atoms

 Group   1 Type C   : 13s11p10d2f contracted to 13s11p10d2f pattern {1111111111111/11111111111/1111111111/11}
 Group   2 Type H   : 9s2p contracted to 9s2p pattern {111111111/11}
 Group   3 Type O   : 14s11p10d2f contracted to 14s11p10d2f pattern {11111111111111/11111111111/1111111111/11}
 Group   4 Type N   : 14s11p10d2f contracted to 14s11p10d2f pattern {11111111111111/11111111111/1111111111/11}

Atom   0C    basis set group =>   1
Atom   1H    basis set group =>   2
Atom   2H    basis set group =>   2
Atom   3H    basis set group =>   2
Atom   4O    basis set group =>   3
Atom   5C    basis set group =>   1
Atom   6N    basis set group =>   4
Atom   7C    basis set group =>   1
Atom   8H    basis set group =>   2
Atom   9H    basis set group =>   2
Atom  10C    basis set group =>   1
Atom  11H    basis set group =>   2
Atom  12H    basis set group =>   2
Atom  13C    basis set group =>   1
Atom  14C    basis set group =>   1
Atom  15H    basis set group =>   2
Atom  16N    basis set group =>   4
Atom  17H    basis set group =>   2
Atom  18C    basis set group =>   1
Atom  19C    basis set group =>   1
Atom  20C    basis set group =>   1
Atom  21H    basis set group =>   2
Atom  22C    basis set group =>   1
Atom  23H    basis set group =>   2
Atom  24C    basis set group =>   1
Atom  25H    basis set group =>   2
Atom  26C    basis set group =>   1
Atom  27H    basis set group =>   2
Atom  28C    basis set group =>   1
Atom  29O    basis set group =>   3
Atom  30N    basis set group =>   4
Atom  31C    basis set group =>   1
Atom  32H    basis set group =>   2
Atom  33H    basis set group =>   2
Atom  34H    basis set group =>   2
Atom  35C    basis set group =>   1
Atom  36H    basis set group =>   2
Atom  37H    basis set group =>   2
Atom  38H    basis set group =>   2
---------------------------------
AUXILIARY/C BASIS SET INFORMATION
---------------------------------
There are 4 groups of distinct atoms

 Group   1 Type C   : 13s11p10d2f contracted to 13s11p10d2f pattern {1111111111111/11111111111/1111111111/11}
 Group   2 Type H   : 9s2p contracted to 9s2p pattern {111111111/11}
 Group   3 Type O   : 14s11p10d2f contracted to 14s11p10d2f pattern {11111111111111/11111111111/1111111111/11}
 Group   4 Type N   : 14s11p10d2f contracted to 14s11p10d2f pattern {11111111111111/11111111111/1111111111/11}

Atom   0C    basis set group =>   1
Atom   1H    basis set group =>   2
Atom   2H    basis set group =>   2
Atom   3H    basis set group =>   2
Atom   4O    basis set group =>   3
Atom   5C    basis set group =>   1
Atom   6N    basis set group =>   4
Atom   7C    basis set group =>   1
Atom   8H    basis set group =>   2
Atom   9H    basis set group =>   2
Atom  10C    basis set group =>   1
Atom  11H    basis set group =>   2
Atom  12H    basis set group =>   2
Atom  13C    basis set group =>   1
Atom  14C    basis set group =>   1
Atom  15H    basis set group =>   2
Atom  16N    basis set group =>   4
Atom  17H    basis set group =>   2
Atom  18C    basis set group =>   1
Atom  19C    basis set group =>   1
Atom  20C    basis set group =>   1
Atom  21H    basis set group =>   2
Atom  22C    basis set group =>   1
Atom  23H    basis set group =>   2
Atom  24C    basis set group =>   1
Atom  25H    basis set group =>   2
Atom  26C    basis set group =>   1
Atom  27H    basis set group =>   2
Atom  28C    basis set group =>   1
Atom  29O    basis set group =>   3
Atom  30N    basis set group =>   4
Atom  31C    basis set group =>   1
Atom  32H    basis set group =>   2
Atom  33H    basis set group =>   2
Atom  34H    basis set group =>   2
Atom  35C    basis set group =>   1
Atom  36H    basis set group =>   2
Atom  37H    basis set group =>   2
Atom  38H    basis set group =>   2
----------------------------------
AUXILIARY/JK BASIS SET INFORMATION
----------------------------------
There are 4 groups of distinct atoms

 Group   1 Type C   : 13s11p10d2f contracted to 13s11p10d2f pattern {1111111111111/11111111111/1111111111/11}
 Group   2 Type H   : 9s2p contracted to 9s2p pattern {111111111/11}
 Group   3 Type O   : 14s11p10d2f contracted to 14s11p10d2f pattern {11111111111111/11111111111/1111111111/11}
 Group   4 Type N   : 14s11p10d2f contracted to 14s11p10d2f pattern {11111111111111/11111111111/1111111111/11}

Atom   0C    basis set group =>   1
Atom   1H    basis set group =>   2
Atom   2H    basis set group =>   2
Atom   3H    basis set group =>   2
Atom   4O    basis set group =>   3
Atom   5C    basis set group =>   1
Atom   6N    basis set group =>   4
Atom   7C    basis set group =>   1
Atom   8H    basis set group =>   2
Atom   9H    basis set group =>   2
Atom  10C    basis set group =>   1
Atom  11H    basis set group =>   2
Atom  12H    basis set group =>   2
Atom  13C    basis set group =>   1
Atom  14C    basis set group =>   1
Atom  15H    basis set group =>   2
Atom  16N    basis set group =>   4
Atom  17H    basis set group =>   2
Atom  18C    basis set group =>   1
Atom  19C    basis set group =>   1
Atom  20C    basis set group =>   1
Atom  21H    basis set group =>   2
Atom  22C    basis set group =>   1
Atom  23H    basis set group =>   2
Atom  24C    basis set group =>   1
Atom  25H    basis set group =>   2
Atom  26C    basis set group =>   1
Atom  27H    basis set group =>   2
Atom  28C    basis set group =>   1
Atom  29O    basis set group =>   3
Atom  30N    basis set group =>   4
Atom  31C    basis set group =>   1
Atom  32H    basis set group =>   2
Atom  33H    basis set group =>   2
Atom  34H    basis set group =>   2
Atom  35C    basis set group =>   1
Atom  36H    basis set group =>   2
Atom  37H    basis set group =>   2
Atom  38H    basis set group =>   2


           ************************************************************
           *        Program running with 4 parallel MPI-processes     *
           *              working on a common directory               *
           ************************************************************
------------------------------------------------------------------------------
                           ORCA GTO INTEGRAL CALCULATION
                           -- RI-GTO INTEGRALS CHOSEN --
------------------------------------------------------------------------------
------------------------------------------------------------------------------
                   ___                                                        
                  /   \      - P O W E R E D   B Y -                         
                 /     \                                                     
                 |  |  |   _    _      __       _____    __    __             
                 |  |  |  | |  | |    /  \     |  _  \  |  |  /  |          
                  \  \/   | |  | |   /    \    | | | |  |  | /  /          
                 / \  \   | |__| |  /  /\  \   | |_| |  |  |/  /          
                |  |  |   |  __  | /  /__\  \  |    /   |      \           
                |  |  |   | |  | | |   __   |  |    \   |  |\   \          
                \     /   | |  | | |  |  |  |  | |\  \  |  | \   \       
                 \___/    |_|  |_| |__|  |__|  |_| \__\ |__|  \__/        
                                                                              
                      - O R C A' S   B I G   F R I E N D -                    
                                      &                                       
                       - I N T E G R A L  F E E D E R -                       
                                                                              
 v1 FN, 2020, v2 2021                                                         
------------------------------------------------------------------------------


Reading SHARK input file Nw_octanol.SHARKINP.tmp ... ok
----------------------
SHARK INTEGRAL PACKAGE
----------------------

Number of atoms                             ...     39
Number of basis functions                   ...    318
Number of shells                            ...    158
Maximum angular momentum                    ...      2
Integral batch strategy                     ... SHARK/LIBINT Hybrid
RI-J (if used) integral strategy            ... SPLIT-RIJ (Revised 2003 algorithm where possible)
Printlevel                                  ...      1
Contraction scheme used                     ... SEGMENTED contraction
Coulomb Range Separation                    ... NOT USED
Exchange Range Separation                   ... NOT USED
Finite Nucleus Model                        ... NOT USED
Auxiliary Coulomb fitting basis             ... AVAILABLE
   # of basis functions in Aux-J            ...   2490
   # of shells in Aux-J                     ...    934
   Maximum angular momentum in Aux-J        ...      3
Auxiliary J/K fitting basis                 ... AVAILABLE
   # of basis functions in Aux-JK           ...   2490
   # of shells in Aux-JK                    ...    934
   Maximum angular momentum in Aux-JK       ...      3
Auxiliary Correlation fitting basis         ... AVAILABLE
   # of basis functions in Aux-C            ...   2490
   # of shells in Aux-C                     ...    934
   Maximum angular momentum in Aux-C        ...      3
Auxiliary 'external' fitting basis          ... NOT available
Integral threshold                          ...     2.500000e-11
Primitive cut-off                           ...     2.500000e-12
Primitive pair pre-selection threshold      ...     2.500000e-12

Calculating pre-screening integrals         ... done (  0.1 sec) Dimension = 158
Organizing shell pair data                  ... done (  0.5 sec)
Shell pair information
Total number of shell pairs                 ...     12561
Shell pairs after pre-screening             ...     10599
Total number of primitive shell pairs       ...     71353
Primitive shell pairs kept                  ...     33710
          la=0 lb=0:   3893 shell pairs
          la=1 lb=0:   3510 shell pairs
          la=1 lb=1:    788 shell pairs
          la=2 lb=0:   1516 shell pairs
          la=2 lb=1:    726 shell pairs
          la=2 lb=2:    166 shell pairs

Calculating one electron integrals          ... done (  0.0 sec)
Calculating RI/J V-Matrix + Cholesky decomp.... done (  0.4 sec)
Calculating RI/JK V-Matrix + Cholesky decomp... done (  0.4 sec)
Calculating RI/C V-Matrix + Cholesky decomp.... done (  0.4 sec)
Calculating Nuclear repulsion               ... done (  0.0 sec) ENN=   1670.265646637863 Eh

SHARK setup successfully completed in   2.0 seconds

Maximum memory used throughout the entire GTOINT-calculation: 52.1 MB


           ************************************************************
           *        Program running with 4 parallel MPI-processes     *
           *              working on a common directory               *
           ************************************************************
-------------------------------------------------------------------------------
                                 ORCA SCF
-------------------------------------------------------------------------------

------------
SCF SETTINGS
------------
Hamiltonian:
 Density Functional     Method          .... DFT(GTOs)
 Exchange Functional    Exchange        .... B88
   X-Alpha parameter    XAlpha          ....  0.666667
   Becke's b parameter  XBeta           ....  0.004200
 Correlation Functional Correlation     .... LYP
 LDA part of GGA corr.  LDAOpt          .... VWN-5
 Gradients option       PostSCFGGA      .... off
 Hybrid DFT is turned on
   Fraction HF Exchange ScalHFX         ....  0.200000
   Scaling of DF-GGA-X  ScalDFX         ....  0.720000
   Scaling of DF-GGA-C  ScalDFC         ....  0.810000
   Scaling of DF-LDA-C  ScalLDAC        ....  1.000000
   Perturbative correction              ....  0.000000
   Density functional embedding theory  .... OFF
   NL short-range parameter             ....  4.800000
 RI-approximation to the Coulomb term is turned on
   Number of AuxJ basis functions       .... 2490
   RIJ-COSX (HFX calculated with COS-X)).... on


General Settings:
 Integral files         IntName         .... Nw_octanol
 Hartree-Fock type      HFTyp           .... RHF
 Total Charge           Charge          ....    0
 Multiplicity           Mult            ....    1
 Number of Electrons    NEL             ....  146
 Basis Dimension        Dim             ....  318
 Nuclear Repulsion      ENuc            ....   1670.2656466379 Eh

Convergence Acceleration:
 DIIS                   CNVDIIS         .... on
   Start iteration      DIISMaxIt       ....    12
   Startup error        DIISStart       ....  0.200000
   # of expansion vecs  DIISMaxEq       ....     5
   Bias factor          DIISBfac        ....   1.050
   Max. coefficient     DIISMaxC        ....  10.000
 Trust-Rad. Augm. Hess. CNVTRAH         .... auto
   Auto Start mean grad. ratio tolernc. ....  1.125000
   Auto Start start iteration           ....    20
   Auto Start num. interpolation iter.  ....    10
   Max. Number of Micro iterations      ....    16
   Max. Number of Macro iterations      .... Maxiter - #DIIS iter
   Number of Davidson start vectors     ....     2
   Converg. threshold I  (grad. norm)   ....   1.000e-05
   Converg. threshold II (energy diff.) ....   1.000e-08
   Grad. Scal. Fac. for Micro threshold ....   0.100
   Minimum threshold for Micro iter.    ....   0.010
   NR start threshold (gradient norm)   ....   0.001
   Initial trust radius                 ....   0.400
   Minimum AH scaling param. (alpha)    ....   1.000
   Maximum AH scaling param. (alpha)    .... 1000.000
   Orbital update algorithm             .... Taylor
   White noise on init. David. guess    .... on
   Maximum white noise                  ....   0.010
   Quad. conv. algorithm                .... NR
 SOSCF                  CNVSOSCF        .... on
   Start iteration      SOSCFMaxIt      ....   150
   Startup grad/error   SOSCFStart      ....  0.003300
 Level Shifting         CNVShift        .... on
   Level shift para.    LevelShift      ....    0.2500
   Turn off err/grad.   ShiftErr        ....    0.0010
 Zerner damping         CNVZerner       .... off
 Static damping         CNVDamp         .... on
   Fraction old density DampFac         ....    0.7000
   Max. Damping (<1)    DampMax         ....    0.9800
   Min. Damping (>=0)   DampMin         ....    0.0000
   Turn off err/grad.   DampErr         ....    0.1000
 Fernandez-Rico         CNVRico         .... off

SCF Procedure:
 Maximum # iterations   MaxIter         ....   125
 SCF integral mode      SCFMode         .... Direct
   Integral package                     .... SHARK and LIBINT hybrid scheme
 Reset frequency        DirectResetFreq ....    20
 Integral Threshold     Thresh          ....  2.500e-11 Eh
 Primitive CutOff       TCut            ....  2.500e-12 Eh

Convergence Tolerance:
 Convergence Check Mode ConvCheckMode   .... Total+1el-Energy
 Convergence forced     ConvForced      .... 0
 Energy Change          TolE            ....  1.000e-08 Eh
 1-El. energy change                    ....  1.000e-05 Eh
 Orbital Gradient       TolG            ....  1.000e-05
 Orbital Rotation angle TolX            ....  1.000e-05
 DIIS Error             TolErr          ....  5.000e-07


Diagonalization of the overlap matrix:
Smallest eigenvalue                        ... 3.707e-04
Time for diagonalization                   ...    0.017 sec
Threshold for overlap eigenvalues          ... 1.000e-08
Number of eigenvalues below threshold      ... 0
Time for construction of square roots      ...    0.008 sec
Total time needed                          ...    0.026 sec

Time for model grid setup =    1.098 sec

------------------------------
INITIAL GUESS: MODEL POTENTIAL
------------------------------
Loading Hartree-Fock densities                     ... done
Calculating cut-offs                               ... done
Initializing the effective Hamiltonian             ... done
Setting up the integral package (SHARK)            ... done
Starting the Coulomb interaction                   ... done (   0.4 sec)
Reading the grid                                   ... done
Mapping shells                                     ... done
Starting the XC term evaluation                    ... done (   0.3 sec)
  promolecular density results
     # of electrons  =    145.988407222
     EX              =   -118.959538329
     EC              =     -4.962804572
     EX+EC           =   -123.922342902
Transforming the Hamiltonian                       ... done (   0.0 sec)
Diagonalizing the Hamiltonian                      ... done (   0.0 sec)
Back transforming the eigenvectors                 ... done (   0.0 sec)
Now organizing SCF variables                       ... done
                      ------------------
                      INITIAL GUESS DONE (   1.8 sec)
                      ------------------
-------------------
DFT GRID GENERATION
-------------------

General Integration Accuracy     IntAcc      ... 4.388
Radial Grid Type                 RadialGrid  ... OptM3 with GC (2021)
Angular Grid (max. ang.)         AngularGrid ... 4 (Lebedev-302)
Angular grid pruning method      GridPruning ... 4 (adaptive)
Weight generation scheme         WeightScheme... Becke
Basis function cutoff            BFCut       ... 1.0000e-11
Integration weight cutoff        WCut        ... 1.0000e-14
Angular grids for H and He will be reduced by one unit
Partially contracted basis set               ... off
Rotationally invariant grid construction     ... off

Total number of grid points                  ...   179164
Total number of batches                      ...     2817
Average number of points per batch           ...       63
Average number of grid points per atom       ...     4594
Time for grid setup =    2.679 sec

--------------------
COSX GRID GENERATION
--------------------

GRIDX 1
-------
General Integration Accuracy     IntAcc      ... 3.816
Radial Grid Type                 RadialGrid  ... OptM3 with GC (2021)
Angular Grid (max. ang.)         AngularGrid ... 1 (Lebedev-50)
Angular grid pruning method      GridPruning ... 4 (adaptive)
Weight generation scheme         WeightScheme... Becke
Basis function cutoff            BFCut       ... 1.0000e-11
Integration weight cutoff        WCut        ... 1.0000e-14
Angular grids for H and He will be reduced by one unit
Partially contracted basis set               ... on
Rotationally invariant grid construction     ... off

Total number of grid points                  ...    22747
Total number of batches                      ...      377
Average number of points per batch           ...       60
Average number of grid points per atom       ...      583
UseSFitting                                  ... on

GRIDX 2
-------
General Integration Accuracy     IntAcc      ... 4.020
Radial Grid Type                 RadialGrid  ... OptM3 with GC (2021)
Angular Grid (max. ang.)         AngularGrid ... 2 (Lebedev-110)
Angular grid pruning method      GridPruning ... 4 (adaptive)
Weight generation scheme         WeightScheme... Becke
Basis function cutoff            BFCut       ... 1.0000e-11
Integration weight cutoff        WCut        ... 1.0000e-14
Angular grids for H and He will be reduced by one unit
Partially contracted basis set               ... on
Rotationally invariant grid construction     ... off

Total number of grid points                  ...    48598
Total number of batches                      ...      779
Average number of points per batch           ...       62
Average number of grid points per atom       ...     1246
UseSFitting                                  ... on

GRIDX 3
-------
General Integration Accuracy     IntAcc      ... 4.338
Radial Grid Type                 RadialGrid  ... OptM3 with GC (2021)
Angular Grid (max. ang.)         AngularGrid ... 3 (Lebedev-194)
Angular grid pruning method      GridPruning ... 4 (adaptive)
Weight generation scheme         WeightScheme... Becke
Basis function cutoff            BFCut       ... 1.0000e-11
Integration weight cutoff        WCut        ... 1.0000e-14
Angular grids for H and He will be reduced by one unit
Partially contracted basis set               ... on
Rotationally invariant grid construction     ... off

Total number of grid points                  ...   106001
Total number of batches                      ...     1675
Average number of points per batch           ...       63
Average number of grid points per atom       ...     2718
UseSFitting                                  ... on

Time for X-Grid setup             =    3.847 sec


--------------------
CPCM SOLVATION MODEL
--------------------
CPCM parameters:
  Epsilon                                         ...       9.8629
  Refrac                                          ...       1.4295
  Rsolv                                           ...       1.3000
  Surface type                                    ... GAUSSIAN VDW
  Epsilon function type                           ...         CPCM
Radii:
 Radius for C  used is    3.8550 Bohr (=   2.0400 Ang.)
 Radius for H  used is    2.4944 Bohr (=   1.3200 Ang.)
 Radius for O  used is    3.4469 Bohr (=   1.8240 Ang.)
 Radius for N  used is    3.5149 Bohr (=   1.8600 Ang.)
Calculating surface                               ...        done! (  0.0s)
GEPOL surface points                              ...         1990
GEPOL Volume                                      ...    2205.6917
GEPOL Surface-area                                ...    1060.1391
Calculating surface distance matrix               ...        done! (  0.0s)
Performing Cholesky decomposition & store         ...        done! (  0.1s)
Overall time for CPCM initialization              ...                 0.2s
--------------
SCF ITERATIONS
--------------
ITER       Energy         Delta-E        Max-DP      RMS-DP      [F,P]     Damp
               ***  Starting incremental Fock matrix formation  ***
  0   -896.7152673408   0.000000000000 0.09168637  0.00177278  0.2747881 0.7000
  1   -896.9484951759  -0.233227835101 0.05035573  0.00120437  0.1096761 0.7000
                               ***Turning on DIIS***
  2   -897.0427926679  -0.094297491987 0.06160573  0.00196491  0.0365143 0.0000
  3   -897.1912048635  -0.148412195644 0.03624995  0.00083580  0.0563899 0.0000
  4   -897.2216792129  -0.030474349367 0.00974019  0.00026744  0.0106555 0.0000
  5   -897.2236576772  -0.001978464327 0.00402094  0.00008596  0.0064540 0.0000
                      *** Initiating the SOSCF procedure ***
                           *** Shutting down DIIS ***
                      *** Re-Reading the Fockian *** 
                      *** Removing any level shift *** 
ITER      Energy       Delta-E        Grad      Rot      Max-DP    RMS-DP
  6   -897.22381664  -0.0001589616  0.000255  0.000255  0.001385  0.000039
               *** Restarting incremental Fock matrix formation ***
  7   -897.22387325  -0.0000566091  0.000226  0.001183  0.001769  0.000029
  8   -897.22386116   0.0000120905  0.000476  0.000790  0.001096  0.000020
  9   -897.22387842  -0.0000172608  0.000074  0.000189  0.000404  0.000006
 10   -897.22387781   0.0000006094  0.000136  0.000122  0.000271  0.000004
 11   -897.22387865  -0.0000008414  0.000006  0.000030  0.000032  0.000001
 12   -897.22387862   0.0000000261  0.000011  0.000022  0.000024  0.000000
                  ***Gradient check signals convergence***
              ***Rediagonalizing the Fockian in SOSCF/NRSCF***

               *****************************************************
               *                     SUCCESS                       *
               *           SCF CONVERGED AFTER  13 CYCLES          *
               *****************************************************

Old exchange energy                            =    -24.198600546 Eh
New exchange energy                            =    -24.198597551 Eh
Exchange energy change after final integration =      0.000002995 Eh
Total energy after final integration           =   -897.223875645 Eh
Final COS-X integration done in                =    19.073 sec

----------------
TOTAL SCF ENERGY
----------------

Total Energy       :         -897.22387564 Eh          -24414.70288 eV

Components:
Nuclear Repulsion  :         1670.26564664 Eh           45450.23889 eV
Electronic Energy  :        -2567.48952228 Eh          -69864.94177 eV
One Electron Energy:        -4539.21954018 Eh         -123518.44324 eV
Two Electron Energy:         1971.73001790 Eh           53653.50148 eV
Max COSX asymmetry :            0.00000268 Eh               0.00007 eV
CPCM Dielectric    :           -0.02266957 Eh              -0.61687 eV

Virial components:
Potential Energy   :        -1789.21229909 Eh          -48686.94185 eV
Kinetic Energy     :          891.98842345 Eh           24272.23898 eV
Virial Ratio       :            2.00586942


DFT components:
N(Alpha)           :       73.000008353324 electrons
N(Beta)            :       73.000008353324 electrons
N(Total)           :      146.000016706648 electrons
E(X)               :      -96.100142408697 Eh       
E(C)               :       -5.841715095729 Eh       
E(XC)              :     -101.941857504427 Eh       
DFET-embed. en.    :        0.000000000000 Eh       
CPCM Solvation Model Properties:
Surface-charge          :           -0.02156197
Charge-correction       :           -0.00009436 Eh              -0.00257 eV
Free-energy (cav+disp)  :  This term is not implemented in the current solvation scheme

---------------
SCF CONVERGENCE
---------------

  Last Energy change         ...   -1.5503e-08  Tolerance :   1.0000e-08
  Last MAX-Density change    ...    3.9968e-15  Tolerance :   1.0000e-07
  Last RMS-Density change    ...    4.1217e-17  Tolerance :   5.0000e-09
  Last Orbital Gradient      ...    9.8452e-07  Tolerance :   1.0000e-05
  Last Orbital Rotation      ...    2.8574e-06  Tolerance :   1.0000e-05

             **** THE GBW FILE WAS UPDATED (Nw_octanol.gbw) ****
             **** DENSITY Nw_octanol.scfp WAS UPDATED ****
             **** ENERGY FILE WAS UPDATED (Nw_octanol.en.tmp) ****
             **** THE GBW FILE WAS UPDATED (Nw_octanol.gbw) ****
             **** DENSITY Nw_octanol.scfp WAS UPDATED ****
----------------
ORBITAL ENERGIES
----------------

  NO   OCC          E(Eh)            E(eV) 
   0   2.0000     -19.111025      -520.0374 
   1   2.0000     -19.097483      -519.6689 
   2   2.0000     -14.363312      -390.8456 
   3   2.0000     -14.358042      -390.7022 
   4   2.0000     -14.349793      -390.4777 
   5   2.0000     -10.283640      -279.8321 
   6   2.0000     -10.272541      -279.5300 
   7   2.0000     -10.213650      -277.9276 
   8   2.0000     -10.207142      -277.7504 
   9   2.0000     -10.206386      -277.7299 
  10   2.0000     -10.206001      -277.7194 
  11   2.0000     -10.191221      -277.3172 
  12   2.0000     -10.188140      -277.2334 
  13   2.0000     -10.177150      -276.9343 
  14   2.0000     -10.174055      -276.8501 
  15   2.0000     -10.173433      -276.8332 
  16   2.0000     -10.172469      -276.8070 
  17   2.0000     -10.172417      -276.8055 
  18   2.0000     -10.169691      -276.7314 
  19   2.0000     -10.166083      -276.6332 
  20   2.0000      -1.030654       -28.0455 
  21   2.0000      -1.017093       -27.6765 
  22   2.0000      -0.971484       -26.4354 
  23   2.0000      -0.931260       -25.3409 
  24   2.0000      -0.919608       -25.0238 
  25   2.0000      -0.831967       -22.6390 
  26   2.0000      -0.788728       -21.4624 
  27   2.0000      -0.755681       -20.5631 
  28   2.0000      -0.731216       -19.8974 
  29   2.0000      -0.724953       -19.7270 
  30   2.0000      -0.712907       -19.3992 
  31   2.0000      -0.703081       -19.1318 
  32   2.0000      -0.685470       -18.6526 
  33   2.0000      -0.663288       -18.0490 
  34   2.0000      -0.614356       -16.7175 
  35   2.0000      -0.585051       -15.9201 
  36   2.0000      -0.564113       -15.3503 
  37   2.0000      -0.548046       -14.9131 
  38   2.0000      -0.533160       -14.5080 
  39   2.0000      -0.528753       -14.3881 
  40   2.0000      -0.506778       -13.7901 
  41   2.0000      -0.486211       -13.2305 
  42   2.0000      -0.475656       -12.9433 
  43   2.0000      -0.467382       -12.7181 
  44   2.0000      -0.462864       -12.5952 
  45   2.0000      -0.458515       -12.4768 
  46   2.0000      -0.452222       -12.3056 
  47   2.0000      -0.441684       -12.0188 
  48   2.0000      -0.429753       -11.6942 
  49   2.0000      -0.422994       -11.5102 
  50   2.0000      -0.414665       -11.2836 
  51   2.0000      -0.411149       -11.1879 
  52   2.0000      -0.405949       -11.0464 
  53   2.0000      -0.396527       -10.7900 
  54   2.0000      -0.393871       -10.7178 
  55   2.0000      -0.389658       -10.6031 
  56   2.0000      -0.386696       -10.5225 
  57   2.0000      -0.385116       -10.4795 
  58   2.0000      -0.382519       -10.4089 
  59   2.0000      -0.373419       -10.1613 
  60   2.0000      -0.368829       -10.0364 
  61   2.0000      -0.352570        -9.5939 
  62   2.0000      -0.347125        -9.4458 
  63   2.0000      -0.342832        -9.3289 
  64   2.0000      -0.328989        -8.9522 
  65   2.0000      -0.324404        -8.8275 
  66   2.0000      -0.269814        -7.3420 
  67   2.0000      -0.255533        -6.9534 
  68   2.0000      -0.251960        -6.8562 
  69   2.0000      -0.234056        -6.3690 
  70   2.0000      -0.231575        -6.3015 
  71   2.0000      -0.213330        -5.8050 
  72   2.0000      -0.197528        -5.3750 
  73   0.0000      -0.006022        -0.1639 
  74   0.0000       0.020869         0.5679 
  75   0.0000       0.025716         0.6998 
  76   0.0000       0.032180         0.8756 
  77   0.0000       0.071178         1.9369 
  78   0.0000       0.089307         2.4302 
  79   0.0000       0.107370         2.9217 
  80   0.0000       0.117902         3.2083 
  81   0.0000       0.120883         3.2894 
  82   0.0000       0.124067         3.3760 
  83   0.0000       0.143433         3.9030 
  84   0.0000       0.151626         4.1259 
  85   0.0000       0.156063         4.2467 
  86   0.0000       0.159232         4.3329 
  87   0.0000       0.166785         4.5384 
  88   0.0000       0.169667         4.6169 
  89   0.0000       0.172761         4.7011 
  90   0.0000       0.177088         4.8188 
  91   0.0000       0.179815         4.8930 
  92   0.0000       0.185685         5.0527 
  93   0.0000       0.189501         5.1566 
  94   0.0000       0.193558         5.2670 
  95   0.0000       0.193763         5.2726 
  96   0.0000       0.201095         5.4721 
  97   0.0000       0.214534         5.8378 
  98   0.0000       0.225706         6.1418 
  99   0.0000       0.235254         6.4016 
 100   0.0000       0.241165         6.5624 
 101   0.0000       0.249347         6.7851 
 102   0.0000       0.253597         6.9007 
 103   0.0000       0.264895         7.2082 
 104   0.0000       0.268789         7.3141 
 105   0.0000       0.276519         7.5245 
 106   0.0000       0.283660         7.7188 
 107   0.0000       0.294296         8.0082 
 108   0.0000       0.328057         8.9269 
 109   0.0000       0.331915         9.0319 
 110   0.0000       0.348546         9.4844 
 111   0.0000       0.351858         9.5745 
 112   0.0000       0.360954         9.8221 
 113   0.0000       0.387557        10.5460 
 114   0.0000       0.401813        10.9339 
 115   0.0000       0.424148        11.5417 
 116   0.0000       0.444561        12.0971 
 117   0.0000       0.468521        12.7491 
 118   0.0000       0.479930        13.0596 
 119   0.0000       0.495109        13.4726 
 120   0.0000       0.499823        13.6009 
 121   0.0000       0.513371        13.9695 
 122   0.0000       0.519245        14.1294 
 123   0.0000       0.531139        14.4530 
 124   0.0000       0.540335        14.7033 
 125   0.0000       0.547292        14.8926 
 126   0.0000       0.549183        14.9440 
 127   0.0000       0.568434        15.4679 
 128   0.0000       0.571917        15.5626 
 129   0.0000       0.576841        15.6966 
 130   0.0000       0.588671        16.0185 
 131   0.0000       0.601233        16.3604 
 132   0.0000       0.606493        16.5035 
 133   0.0000       0.618493        16.8301 
 134   0.0000       0.618617        16.8334 
 135   0.0000       0.625385        17.0176 
 136   0.0000       0.629438        17.1279 
 137   0.0000       0.632172        17.2023 
 138   0.0000       0.634371        17.2621 
 139   0.0000       0.643069        17.4988 
 140   0.0000       0.657777        17.8990 
 141   0.0000       0.660548        17.9744 
 142   0.0000       0.671193        18.2641 
 143   0.0000       0.675763        18.3884 
 144   0.0000       0.680282        18.5114 
 145   0.0000       0.694325        18.8935 
 146   0.0000       0.711834        19.3700 
 147   0.0000       0.716068        19.4852 
 148   0.0000       0.734487        19.9864 
 149   0.0000       0.754523        20.5316 
 150   0.0000       0.757785        20.6204 
 151   0.0000       0.768872        20.9221 
 152   0.0000       0.780336        21.2340 
 153   0.0000       0.803651        21.8685 
 154   0.0000       0.809354        22.0236 
 155   0.0000       0.820583        22.3292 
 156   0.0000       0.827695        22.5227 
 157   0.0000       0.837410        22.7871 
 158   0.0000       0.845382        23.0040 
 159   0.0000       0.848165        23.0797 
 160   0.0000       0.853179        23.2162 
 161   0.0000       0.857158        23.3245 
 162   0.0000       0.865274        23.5453 
 163   0.0000       0.870312        23.6824 
 164   0.0000       0.880817        23.9682 
 165   0.0000       0.885943        24.1077 
 166   0.0000       0.888314        24.1723 
 167   0.0000       0.896065        24.3832 
 168   0.0000       0.899967        24.4893 
 169   0.0000       0.909359        24.7449 
 170   0.0000       0.916070        24.9275 
 171   0.0000       0.921199        25.0671 
 172   0.0000       0.928694        25.2711 
 173   0.0000       0.934331        25.4244 
 174   0.0000       0.944171        25.6922 
 175   0.0000       0.947141        25.7730 
 176   0.0000       0.958554        26.0836 
 177   0.0000       0.969896        26.3922 
 178   0.0000       0.983900        26.7733 
 179   0.0000       0.988152        26.8890 
 180   0.0000       0.999324        27.1930 
 181   0.0000       1.007173        27.4066 
 182   0.0000       1.017492        27.6874 
 183   0.0000       1.027046        27.9474 
 184   0.0000       1.043472        28.3943 
 185   0.0000       1.064432        28.9647 
 186   0.0000       1.069159        29.0933 
 187   0.0000       1.084258        29.5042 
 188   0.0000       1.099007        29.9055 
 189   0.0000       1.113640        30.3037 
 190   0.0000       1.121568        30.5194 
 191   0.0000       1.133678        30.8489 
 192   0.0000       1.150505        31.3068 
 193   0.0000       1.169483        31.8233 
 194   0.0000       1.174583        31.9620 
 195   0.0000       1.200861        32.6771 
 196   0.0000       1.216794        33.1107 
 197   0.0000       1.239044        33.7161 
 198   0.0000       1.244654        33.8688 
 199   0.0000       1.258519        34.2461 
 200   0.0000       1.270091        34.5609 
 201   0.0000       1.278379        34.7865 
 202   0.0000       1.312696        35.7203 
 203   0.0000       1.321756        35.9668 
 204   0.0000       1.341168        36.4950 
 205   0.0000       1.347215        36.6596 
 206   0.0000       1.362801        37.0837 
 207   0.0000       1.382241        37.6127 
 208   0.0000       1.390973        37.8503 
 209   0.0000       1.409931        38.3662 
 210   0.0000       1.426126        38.8069 
 211   0.0000       1.434746        39.0414 
 212   0.0000       1.443264        39.2732 
 213   0.0000       1.454582        39.5812 
 214   0.0000       1.462498        39.7966 
 215   0.0000       1.484285        40.3895 
 216   0.0000       1.486913        40.4609 
 217   0.0000       1.491557        40.5873 
 218   0.0000       1.504106        40.9288 
 219   0.0000       1.514996        41.2251 
 220   0.0000       1.527374        41.5620 
 221   0.0000       1.577847        42.9354 
 222   0.0000       1.586189        43.1624 
 223   0.0000       1.612351        43.8743 
 224   0.0000       1.622359        44.1466 
 225   0.0000       1.642451        44.6934 
 226   0.0000       1.664951        45.3056 
 227   0.0000       1.668515        45.4026 
 228   0.0000       1.740128        47.3513 
 229   0.0000       1.753994        47.7286 
 230   0.0000       1.771884        48.2154 
 231   0.0000       1.787844        48.6497 
 232   0.0000       1.800429        48.9922 
 233   0.0000       1.815532        49.4031 
 234   0.0000       1.819105        49.5004 
 235   0.0000       1.826963        49.7142 
 236   0.0000       1.844243        50.1844 
 237   0.0000       1.854646        50.4675 
 238   0.0000       1.872172        50.9444 
 239   0.0000       1.881177        51.1894 
 240   0.0000       1.889515        51.4163 
 241   0.0000       1.898165        51.6517 
 242   0.0000       1.918749        52.2118 
 243   0.0000       1.929036        52.4917 
 244   0.0000       1.936191        52.6864 
 245   0.0000       1.940914        52.8150 
 246   0.0000       1.957040        53.2538 
 247   0.0000       1.969886        53.6033 
 248   0.0000       1.973277        53.6956 
 249   0.0000       1.985937        54.0401 
 250   0.0000       1.999055        54.3970 
 251   0.0000       2.010456        54.7073 
 252   0.0000       2.023375        55.0588 
 253   0.0000       2.032706        55.3127 
 254   0.0000       2.039619        55.5008 
 255   0.0000       2.053177        55.8698 
 256   0.0000       2.062423        56.1214 
 257   0.0000       2.080531        56.6141 
 258   0.0000       2.087188        56.7953 
 259   0.0000       2.096450        57.0473 
 260   0.0000       2.108937        57.3871 
 261   0.0000       2.121356        57.7250 
 262   0.0000       2.134593        58.0852 
 263   0.0000       2.150992        58.5315 
 264   0.0000       2.166886        58.9640 
 265   0.0000       2.178439        59.2783 
 266   0.0000       2.192843        59.6703 
 267   0.0000       2.223707        60.5102 
 268   0.0000       2.238350        60.9086 
 269   0.0000       2.244071        61.0643 
 270   0.0000       2.258196        61.4486 
 271   0.0000       2.267374        61.6984 
 272   0.0000       2.271425        61.8086 
 273   0.0000       2.273903        61.8760 
 274   0.0000       2.288293        62.2676 
 275   0.0000       2.294202        62.4284 
 276   0.0000       2.311740        62.9057 
 277   0.0000       2.335601        63.5549 
 278   0.0000       2.345695        63.8296 
 279   0.0000       2.373086        64.5750 
 280   0.0000       2.395807        65.1932 
 281   0.0000       2.407193        65.5030 
 282   0.0000       2.412947        65.6596 
 283   0.0000       2.446425        66.5706 
 284   0.0000       2.457227        66.8645 
 285   0.0000       2.479696        67.4760 
 286   0.0000       2.503853        68.1333 
 287   0.0000       2.510269        68.3079 
 288   0.0000       2.528622        68.8073 
 289   0.0000       2.553525        69.4849 
 290   0.0000       2.569730        69.9259 
 291   0.0000       2.584910        70.3390 
 292   0.0000       2.589171        70.4549 
 293   0.0000       2.622838        71.3711 
 294   0.0000       2.637058        71.7580 
 295   0.0000       2.645252        71.9810 
 296   0.0000       2.665450        72.5306 
 297   0.0000       2.681500        72.9673 
 298   0.0000       2.690354        73.2083 
 299   0.0000       2.700854        73.4940 
 300   0.0000       2.727783        74.2267 
 301   0.0000       2.754111        74.9432 
 302   0.0000       2.759458        75.0887 
 303   0.0000       2.776446        75.5509 
 304   0.0000       2.824583        76.8608 
 305   0.0000       2.850797        77.5741 
 306   0.0000       2.874231        78.2118 
 307   0.0000       2.943839        80.1059 
 308   0.0000       2.945741        80.1577 
 309   0.0000       2.974357        80.9364 
 310   0.0000       2.992484        81.4296 
 311   0.0000       3.014695        82.0340 
 312   0.0000       3.031433        82.4895 
 313   0.0000       3.134975        85.3070 
 314   0.0000       3.171690        86.3061 
 315   0.0000       3.196842        86.9905 
 316   0.0000       3.282484        89.3209 
 317   0.0000       3.449997        93.8792 

                    ********************************
                    * MULLIKEN POPULATION ANALYSIS *
                    ********************************

-----------------------
MULLIKEN ATOMIC CHARGES
-----------------------
   0 C :    0.540489
   1 H :    0.195024
   2 H :    0.201578
[...]
    112       0.000700   0.000169   0.000059
    113       0.000422   0.000078   0.000006
    114       0.000130   0.000013  -0.000010
    115      -0.000438   0.000009  -0.000048
    116       0.001294  -0.000005   0.000224


-----------
IR SPECTRUM
-----------

 Mode   freq       eps      Int      T**2         TX        TY        TZ
       cm**-1   L/(mol*cm) km/mol    a.u.
----------------------------------------------------------------------------
  6:     22.63   0.000298    1.51  0.004116  (-0.054678 -0.018447  0.028030)
  7:     45.51   0.000335    1.69  0.002296  ( 0.000700  0.043855  0.019295)
  8:     63.23   0.000121    0.61  0.000599  ( 0.012864 -0.020821 -0.000597)
  9:     76.64   0.000454    2.29  0.001849  ( 0.028132 -0.029665  0.013311)
 10:     91.84   0.000093    0.47  0.000316  (-0.009939  0.009028 -0.011661)
 11:    114.57   0.001834    9.27  0.004997  ( 0.033444 -0.057409  0.024131)
 12:    114.95   0.000896    4.53  0.002432  ( 0.013767  0.030377 -0.036324)
 13:    130.53   0.002388   12.07  0.005709  ( 0.038557 -0.009065 -0.064348)
 14:    169.08   0.000982    4.96  0.001813  (-0.004676 -0.033231  0.026205)
 15:    171.34   0.000159    0.80  0.000290  ( 0.001838 -0.002617  0.016723)
 16:    188.01   0.000280    1.41  0.000464  (-0.004368 -0.019029 -0.009124)
 17:    202.87   0.000287    1.45  0.000441  ( 0.013188  0.006767 -0.014885)
 18:    215.80   0.000380    1.92  0.000549  (-0.019244  0.010554 -0.008195)
 19:    233.28   0.003324   16.80  0.004447  ( 0.010002 -0.038314  0.053652)
 20:    251.76   0.001012    5.11  0.001254  (-0.010071  0.025907 -0.021942)
 21:    288.04   0.000999    5.05  0.001082  (-0.001086  0.016089 -0.028673)
 22:    312.82   0.001426    7.20  0.001422  ( 0.031383  0.016442 -0.012924)
 23:    330.45   0.001174    5.93  0.001109  (-0.016908  0.025815  0.012510)
 24:    368.54   0.002216   11.20  0.001877  (-0.030041  0.022328 -0.021812)
 25:    379.18   0.003658   18.49  0.003011  ( 0.016154 -0.023706 -0.046776)
 26:    410.63   0.002156   10.89  0.001638  (-0.033298  0.015361 -0.017129)
 27:    430.55   0.021230  107.29  0.015388  ( 0.023393 -0.067549  0.101379)
 28:    439.99   0.001657    8.37  0.001175  ( 0.033455  0.000793  0.007441)
 29:    446.93   0.006183   31.25  0.004318  (-0.010189  0.037237 -0.053171)
 30:    462.72   0.001777    8.98  0.001199  ( 0.031540  0.000842 -0.014254)
 31:    503.29   0.007632   38.57  0.004732  ( 0.015557  0.045255 -0.049420)
 32:    548.36   0.000666    3.37  0.000379  (-0.018232  0.006816 -0.000403)
 33:    575.86   0.005155   26.05  0.002793  ( 0.049479 -0.003817 -0.018183)
 34:    589.17   0.001540    7.78  0.000815  (-0.008245  0.022237 -0.015905)
 35:    598.09   0.004054   20.49  0.002115  ( 0.045438 -0.002467  0.006677)
 36:    602.07   0.001097    5.54  0.000568  ( 0.014105 -0.007985  0.017482)
 37:    616.84   0.002824   14.27  0.001429  ( 0.002642  0.025478  0.027800)
 38:    655.52   0.002367   11.96  0.001127  (-0.001968  0.028164  0.018161)
 39:    688.39   0.001019    5.15  0.000462  (-0.007890 -0.002994 -0.019763)
 40:    747.55   0.001674    8.46  0.000699  ( 0.000804 -0.008942  0.024864)
 41:    754.62   0.005245   26.51  0.002169  (-0.036560  0.028808  0.001552)
 42:    757.91   0.016349   82.62  0.006731  (-0.000198  0.037173 -0.073140)
 43:    774.77   0.001151    5.82  0.000464  ( 0.006734 -0.020453  0.000343)
 44:    783.96   0.000606    3.06  0.000241  (-0.010696  0.004539  0.010308)
 45:    814.29   0.007426   37.53  0.002846  (-0.012210 -0.007857 -0.051331)
 46:    842.73   0.002575   13.01  0.000953  (-0.016086  0.020747  0.016254)
 47:    863.53   0.000341    1.72  0.000123  (-0.003774  0.001458  0.010338)
 48:    890.79   0.000491    2.48  0.000172  (-0.010936  0.005401  0.004821)
 49:    928.29   0.000575    2.91  0.000193  ( 0.001041  0.006775 -0.012095)
 50:    945.70   0.003697   18.69  0.001220  (-0.029413  0.000965 -0.018816)
 51:    969.14   0.000033    0.17  0.000011  (-0.002859 -0.000565  0.001514)
 52:    969.91   0.004442   22.45  0.001429  (-0.031187 -0.021192  0.002715)
 53:   1002.16   0.010089   50.99  0.003142  ( 0.048866 -0.022733 -0.015394)
 54:   1011.36   0.007575   38.28  0.002337  (-0.036376 -0.013105 -0.029021)
 55:   1041.06   0.002784   14.07  0.000834  (-0.009813  0.021632  0.016438)
 56:   1061.83   0.001508    7.62  0.000443  ( 0.013729 -0.010270 -0.012212)
 57:   1090.38   0.005533   27.96  0.001584  (-0.028085 -0.025226 -0.012587)
 58:   1092.94   0.001456    7.36  0.000416  (-0.018383 -0.008091 -0.003531)
 59:   1103.77   0.002123   10.73  0.000600  (-0.003510  0.020288  0.013276)
 60:   1118.10   0.011508   58.16  0.003212  (-0.041653 -0.032782 -0.020058)
 61:   1139.69   0.000216    1.09  0.000059  ( 0.000430 -0.006922  0.003312)
 62:   1153.86   0.000921    4.65  0.000249  ( 0.002815  0.004626  0.014824)
 63:   1175.67   0.009280   46.90  0.002463  ( 0.003957  0.022735  0.043938)
 64:   1180.86   0.003659   18.49  0.000967  (-0.001593 -0.016564 -0.026270)
 65:   1185.66   0.000028    0.14  0.000007  (-0.002181 -0.001607  0.000373)
 66:   1222.32   0.007907   39.96  0.002019  (-0.024994  0.036392  0.008347)
 67:   1255.33   0.006627   33.49  0.001647  ( 0.038489  0.009760  0.008413)
 68:   1272.79   0.002067   10.45  0.000507  ( 0.004145  0.018651  0.011909)
 69:   1290.62   0.019247   97.27  0.004654  (-0.062009 -0.002273  0.028345)
 70:   1292.49   0.037860  191.33  0.009141  (-0.077779 -0.055560 -0.002141)
 71:   1300.33   0.007552   38.16  0.001812  (-0.009663 -0.036390  0.019867)
 72:   1342.45   0.001023    5.17  0.000238  (-0.001772 -0.014520 -0.004885)
 73:   1373.37   0.002364   11.95  0.000537  ( 0.019033  0.010069  0.008571)
 74:   1387.35   0.010167   51.38  0.002287  ( 0.033625 -0.026281 -0.021577)
 75:   1393.98   0.009616   48.60  0.002153  ( 0.033908  0.027512  0.015690)
 76:   1410.19   0.005102   25.78  0.001129  ( 0.011952 -0.027893  0.014429)
 77:   1416.67   0.007015   35.45  0.001545  (-0.035314  0.015742 -0.007098)
 78:   1442.08   0.011068   55.93  0.002395  ( 0.014131 -0.027354 -0.038042)
 79:   1459.59   0.021445  108.37  0.004585  (-0.055784  0.013192  0.036042)
 80:   1467.00   0.012297   62.14  0.002616  (-0.017430  0.039356  0.027625)
 81:   1468.91   0.048677  245.99  0.010341  (-0.095449 -0.032998 -0.011912)
 82:   1486.54   0.003743   18.92  0.000786  ( 0.011041  0.023511 -0.010539)
 83:   1488.37   0.003874   19.58  0.000812  (-0.003877 -0.000472 -0.028233)
 84:   1497.96   0.007342   37.11  0.001530  ( 0.024040  0.027315  0.014338)
 85:   1500.06   0.003658   18.49  0.000761  ( 0.008525 -0.022164 -0.014041)
 86:   1501.25   0.006122   30.94  0.001273  ( 0.007899  0.034722  0.002133)
 87:   1508.90   0.003210   16.22  0.000664  ( 0.001562 -0.024540  0.007701)
 88:   1515.53   0.000659    3.33  0.000136  ( 0.008652  0.002846  0.007260)
 89:   1524.13   0.000991    5.01  0.000203  ( 0.006791  0.004378 -0.011729)
 90:   1528.80   0.005356   27.07  0.001093  (-0.009797  0.012477 -0.029011)
 91:   1537.05   0.000821    4.15  0.000167  ( 0.000774  0.012712  0.002116)
 92:   1559.50   0.014150   71.51  0.002831  (-0.029897  0.018248  0.040057)
 93:   1606.35   0.007666   38.74  0.001489  ( 0.037269 -0.003637  0.009330)
 94:   1631.80   0.000739    3.73  0.000141  (-0.003926 -0.005199 -0.009940)
 95:   1677.24   0.005186   26.21  0.000965  ( 0.020892  0.012505  0.019291)
 96:   1703.87   0.096488  487.61  0.017672  (-0.097804  0.011771 -0.089261)
 97:   1713.99   0.106256  536.98  0.019346  (-0.052896 -0.112010 -0.063259)
 98:   3038.45   0.014457   73.06  0.001485  ( 0.006554 -0.018148 -0.033355)
 99:   3039.26   0.005913   29.88  0.000607  (-0.019870 -0.006661  0.012959)
100:   3045.97   0.020992  106.09  0.002151  ( 0.000918 -0.020679 -0.041499)
101:   3065.07   0.000803    4.06  0.000082  (-0.000013 -0.005982  0.006783)
102:   3079.12   0.007145   36.11  0.000724  (-0.005489 -0.025184 -0.007728)
103:   3096.08   0.012413   62.73  0.001251  (-0.005807  0.025278 -0.024051)
104:   3099.28   0.000771    3.90  0.000078  ( 0.005769 -0.005848  0.003194)
105:   3129.20   0.001646    8.32  0.000164  ( 0.005905 -0.009162 -0.006729)
106:   3146.31   0.001908    9.64  0.000189  (-0.010235 -0.000195  0.009190)
107:   3158.18   0.003990   20.16  0.000394  ( 0.013590  0.012652 -0.007034)
108:   3169.96   0.002611   13.20  0.000257  (-0.013424 -0.000964 -0.008714)
109:   3184.38   0.000195    0.99  0.000019  ( 0.002808  0.003229  0.000909)
110:   3190.33   0.000968    4.89  0.000095  (-0.008775 -0.004153 -0.000685)
111:   3193.75   0.000718    3.63  0.000070  (-0.000123 -0.005475  0.006340)
112:   3194.52   0.003273   16.54  0.000320  (-0.001914 -0.014743 -0.009935)
113:   3205.31   0.009937   50.22  0.000967  (-0.030672  0.001701  0.004881)
114:   3212.50   0.005222   26.39  0.000507  (-0.005602 -0.019664 -0.009444)
115:   3277.89   0.000072    0.36  0.000007  (-0.001819  0.001002  0.001592)
116:   3649.93   0.033107  167.31  0.002831  ( 0.044147  0.026962  0.012439)

* The epsilon (eps) is given for a Dirac delta lineshape.
** The dipole moment derivative (T) already includes vibrational overlap.

The first frequency considered to be a vibration is 6
The total number of vibrations considered is 111


--------------------------
THERMOCHEMISTRY AT 298.15K
--------------------------

Temperature         ... 298.15 K
Pressure            ... 1.00 atm
Total Mass          ... 273.34 AMU

Throughout the following assumptions are being made:
  (1) The electronic state is orbitally nondegenerate
  (2) There are no thermally accessible electronically excited states
  (3) Hindered rotations indicated by low frequency modes are not
      treated as such but are treated as vibrations and this may
      cause some error
  (4) All equations used are the standard statistical mechanics
      equations for an ideal gas
  (5) All vibrations are strictly harmonic

freq.      22.63  E(vib)   ...       0.56 
freq.      45.51  E(vib)   ...       0.53 
freq.      63.23  E(vib)   ...       0.51 
freq.      76.64  E(vib)   ...       0.49 
freq.      91.84  E(vib)   ...       0.47 
freq.     114.57  E(vib)   ...       0.44 
freq.     114.95  E(vib)   ...       0.44 
freq.     130.53  E(vib)   ...       0.43 
freq.     169.08  E(vib)   ...       0.38 
freq.     171.34  E(vib)   ...       0.38 
freq.     188.01  E(vib)   ...       0.36 
freq.     202.87  E(vib)   ...       0.35 
freq.     215.80  E(vib)   ...       0.34 
freq.     233.28  E(vib)   ...       0.32 
freq.     251.76  E(vib)   ...       0.30 
freq.     288.04  E(vib)   ...       0.27 
freq.     312.82  E(vib)   ...       0.25 
freq.     330.45  E(vib)   ...       0.24 
freq.     368.54  E(vib)   ...       0.21 
freq.     379.18  E(vib)   ...       0.21 
freq.     410.63  E(vib)   ...       0.19 
freq.     430.55  E(vib)   ...       0.18 
freq.     439.99  E(vib)   ...       0.17 
freq.     446.93  E(vib)   ...       0.17 
freq.     462.72  E(vib)   ...       0.16 
freq.     503.29  E(vib)   ...       0.14 
freq.     548.36  E(vib)   ...       0.12 
freq.     575.86  E(vib)   ...       0.11 
freq.     589.17  E(vib)   ...       0.10 
freq.     598.09  E(vib)   ...       0.10 
freq.     602.07  E(vib)   ...       0.10 
freq.     616.84  E(vib)   ...       0.09 
freq.     655.52  E(vib)   ...       0.08 
freq.     688.39  E(vib)   ...       0.07 
freq.     747.55  E(vib)   ...       0.06 
freq.     754.62  E(vib)   ...       0.06 
freq.     757.91  E(vib)   ...       0.06 
freq.     774.77  E(vib)   ...       0.05 
freq.     783.96  E(vib)   ...       0.05 
freq.     814.29  E(vib)   ...       0.05 
freq.     842.73  E(vib)   ...       0.04 
freq.     863.53  E(vib)   ...       0.04 
freq.     890.79  E(vib)   ...       0.04 
freq.     928.29  E(vib)   ...       0.03 
freq.     945.70  E(vib)   ...       0.03 
freq.     969.14  E(vib)   ...       0.03 
freq.     969.91  E(vib)   ...       0.03 
freq.    1002.16  E(vib)   ...       0.02 
freq.    1011.36  E(vib)   ...       0.02 
freq.    1041.06  E(vib)   ...       0.02 
freq.    1061.83  E(vib)   ...       0.02 
freq.    1090.38  E(vib)   ...       0.02 
freq.    1092.94  E(vib)   ...       0.02 
freq.    1103.77  E(vib)   ...       0.02 
freq.    1118.10  E(vib)   ...       0.01 
freq.    1139.69  E(vib)   ...       0.01 
freq.    1153.86  E(vib)   ...       0.01 
freq.    1175.67  E(vib)   ...       0.01 
freq.    1180.86  E(vib)   ...       0.01 
freq.    1185.66  E(vib)   ...       0.01 
freq.    1222.32  E(vib)   ...       0.01 
freq.    1255.33  E(vib)   ...       0.01 
freq.    1272.79  E(vib)   ...       0.01 
freq.    1290.62  E(vib)   ...       0.01 
freq.    1292.49  E(vib)   ...       0.01 
freq.    1300.33  E(vib)   ...       0.01 
freq.    1342.45  E(vib)   ...       0.01 
freq.    1373.37  E(vib)   ...       0.01 
freq.    1387.35  E(vib)   ...       0.00 
freq.    1393.98  E(vib)   ...       0.00 
freq.    1410.19  E(vib)   ...       0.00 
freq.    1416.67  E(vib)   ...       0.00 
freq.    1442.08  E(vib)   ...       0.00 
freq.    1459.59  E(vib)   ...       0.00 
freq.    1467.00  E(vib)   ...       0.00 
freq.    1468.91  E(vib)   ...       0.00 
freq.    1486.54  E(vib)   ...       0.00 
freq.    1488.37  E(vib)   ...       0.00 
freq.    1497.96  E(vib)   ...       0.00 
freq.    1500.06  E(vib)   ...       0.00 
freq.    1501.25  E(vib)   ...       0.00 
freq.    1508.90  E(vib)   ...       0.00 
freq.    1515.53  E(vib)   ...       0.00 
freq.    1524.13  E(vib)   ...       0.00 
freq.    1528.80  E(vib)   ...       0.00 
freq.    1537.05  E(vib)   ...       0.00 
freq.    1559.50  E(vib)   ...       0.00 
freq.    1606.35  E(vib)   ...       0.00 
freq.    1631.80  E(vib)   ...       0.00 
freq.    1677.24  E(vib)   ...       0.00 
freq.    1703.87  E(vib)   ...       0.00 
freq.    1713.99  E(vib)   ...       0.00 
freq.    3038.45  E(vib)   ...       0.00 
freq.    3039.26  E(vib)   ...       0.00 
freq.    3045.97  E(vib)   ...       0.00 
freq.    3065.07  E(vib)   ...       0.00 
freq.    3079.12  E(vib)   ...       0.00 
freq.    3096.08  E(vib)   ...       0.00 
freq.    3099.28  E(vib)   ...       0.00 
freq.    3129.20  E(vib)   ...       0.00 
freq.    3146.31  E(vib)   ...       0.00 
freq.    3158.18  E(vib)   ...       0.00 
freq.    3169.96  E(vib)   ...       0.00 
freq.    3184.38  E(vib)   ...       0.00 
freq.    3190.33  E(vib)   ...       0.00 
freq.    3193.75  E(vib)   ...       0.00 
freq.    3194.52  E(vib)   ...       0.00 
freq.    3205.31  E(vib)   ...       0.00 
freq.    3212.50  E(vib)   ...       0.00 
freq.    3277.89  E(vib)   ...       0.00 
freq.    3649.93  E(vib)   ...       0.00 

------------
INNER ENERGY
------------

The inner energy is: U= E(el) + E(ZPE) + E(vib) + E(rot) + E(trans)
    E(el)   - is the total energy from the electronic structure calculation
              = E(kin-el) + E(nuc-el) + E(el-el) + E(nuc-nuc)
    E(ZPE)  - the the zero temperature vibrational energy from the frequency calculation
    E(vib)  - the the finite temperature correction to E(ZPE) due to population
              of excited vibrational states
    E(rot)  - is the rotational thermal energy
    E(trans)- is the translational thermal energy

Summary of contributions to the inner energy U:
Electronic energy                ...   -897.31313938 Eh
Zero point energy                ...      0.32735520 Eh     205.42 kcal/mol
Thermal vibrational correction   ...      0.01621266 Eh      10.17 kcal/mol
Thermal rotational correction    ...      0.00141627 Eh       0.89 kcal/mol
Thermal translational correction ...      0.00141627 Eh       0.89 kcal/mol
-----------------------------------------------------------------------
Total thermal energy                   -896.96673897 Eh


Summary of corrections to the electronic energy:
(perhaps to be used in another calculation)
Total thermal correction                  0.01904520 Eh      11.95 kcal/mol
Non-thermal (ZPE) correction              0.32735520 Eh     205.42 kcal/mol
-----------------------------------------------------------------------
Total correction                          0.34640041 Eh     217.37 kcal/mol


--------
ENTHALPY
--------

The enthalpy is H = U + kB*T
                kB is Boltzmann's constant
Total free energy                 ...   -896.96673897 Eh 
Thermal Enthalpy correction       ...      0.00094421 Eh       0.59 kcal/mol
-----------------------------------------------------------------------
Total Enthalpy                    ...   -896.96579477 Eh


Note: Only C1 symmetry has been detected, increase convergence thresholds 
      if your molecule has a higher symmetry. Symmetry factor of 1.0 is   
      used for the rotational entropy correction. 
 

Note: Rotational entropy computed according to Herzberg 
Infrared and Raman Spectra, Chapter V,1, Van Nostrand Reinhold, 1945 
Point Group:  C1, Symmetry Number:   1  
Rotational constants in cm-1:     0.016725     0.010159     0.009309 

Vibrational entropy computed according to the QRRHO of S. Grimme
Chem.Eur.J. 2012 18 9955


-------
ENTROPY
-------

The entropy contributions are T*S = T*(S(el)+S(vib)+S(rot)+S(trans))
     S(el)   - electronic entropy
     S(vib)  - vibrational entropy
     S(rot)  - rotational entropy
     S(trans)- translational entropy
The entropies will be listed as multiplied by the temperature to get
units of energy

Electronic entropy                ...      0.00000000 Eh      0.00 kcal/mol
Vibrational entropy               ...      0.02848222 Eh     17.87 kcal/mol
Rotational entropy                ...      0.01581657 Eh      9.93 kcal/mol
Translational entropy             ...      0.02029535 Eh     12.74 kcal/mol
-----------------------------------------------------------------------
Final entropy term                ...      0.06459414 Eh     40.53 kcal/mol

In case the symmetry of your molecule has not been determined correctly
or in case you have a reason to use a different symmetry number we print 
out the resulting rotational entropy values for sn=1,12 :
 --------------------------------------------------------
|  sn= 1 | S(rot)=       0.01581657 Eh      9.93 kcal/mol|
|  sn= 2 | S(rot)=       0.01516211 Eh      9.51 kcal/mol|
|  sn= 3 | S(rot)=       0.01477928 Eh      9.27 kcal/mol|
|  sn= 4 | S(rot)=       0.01450766 Eh      9.10 kcal/mol|
|  sn= 5 | S(rot)=       0.01429697 Eh      8.97 kcal/mol|
|  sn= 6 | S(rot)=       0.01412482 Eh      8.86 kcal/mol|
|  sn= 7 | S(rot)=       0.01397928 Eh      8.77 kcal/mol|
|  sn= 8 | S(rot)=       0.01385320 Eh      8.69 kcal/mol|
|  sn= 9 | S(rot)=       0.01374199 Eh      8.62 kcal/mol|
|  sn=10 | S(rot)=       0.01364251 Eh      8.56 kcal/mol|
|  sn=11 | S(rot)=       0.01355252 Eh      8.50 kcal/mol|
|  sn=12 | S(rot)=       0.01347037 Eh      8.45 kcal/mol|
 --------------------------------------------------------


-------------------
GIBBS FREE ENERGY
-------------------

The Gibbs free energy is G = H - T*S

Total enthalpy                    ...   -896.96579477 Eh 
Total entropy correction          ...     -0.06459414 Eh    -40.53 kcal/mol
-----------------------------------------------------------------------
Final Gibbs free energy         ...   -897.03038890 Eh

For completeness - the Gibbs free energy minus the electronic energy
G-E(el)                           ...      0.28275048 Eh    177.43 kcal/mol


Timings for individual modules:

Sum of individual times         ...     3319.084 sec (=  55.318 min)
GTO integral calculation        ...       27.004 sec (=   0.450 min)   0.8 %
SCF iterations                  ...     1541.214 sec (=  25.687 min)  46.4 %
SCF Gradient evaluation         ...      446.110 sec (=   7.435 min)  13.4 %
Geometry relaxation             ...        1.576 sec (=   0.026 min)   0.0 %
Analytical frequency calculation...     1303.179 sec (=  21.720 min)  39.3 %
                             ****ORCA TERMINATED NORMALLY****
TOTAL RUN TIME: 0 days 0 hours 55 minutes 25 seconds 473 msec
