
                                 *****************
                                 * O   R   C   A *
                                 *****************

                                            #,                                       
                                            ###                                      
                                            ####                                     
                                            #####                                    
                                            ######                                   
                                           ########,                                 
                                     ,,################,,,,,                         
                               ,,#################################,,                 
                          ,,##########################################,,             
                       ,#########################################, ''#####,          
                    ,#############################################,,   '####,        
                  ,##################################################,,,,####,       
                ,###########''''           ''''###############################       
              ,#####''   ,,,,##########,,,,          '''####'''          '####       
            ,##' ,,,,###########################,,,                        '##       
           ' ,,###''''                  '''############,,,                           
         ,,##''                                '''############,,,,        ,,,,,,###''
      ,#''                                            '''#######################'''  
     '                                                          ''''####''''         
             ,#######,   #######,   ,#######,      ##                                
            ,#'     '#,  ##    ##  ,#'     '#,    #''#        ######   ,####,        
            ##       ##  ##   ,#'  ##            #'  '#       #        #'  '#        
            ##       ##  #######   ##           ,######,      #####,   #    #        
            '#,     ,#'  ##    ##  '#,     ,#' ,#      #,         ##   #,  ,#        
             '#######'   ##     ##  '#######'  #'      '#     #####' # '####'        



                  #######################################################
                  #                        -***-                        #
                  #          Department of theory and spectroscopy      #
                  #    Directorship and core code : Frank Neese         #
                  #        Max Planck Institute fuer Kohlenforschung    #
                  #                Kaiser Wilhelm Platz 1               #
                  #                 D-45470 Muelheim/Ruhr               #
                  #                      Germany                        #
                  #                                                     #
                  #                  All rights reserved                #
                  #                        -***-                        #
                  #######################################################


                         Program Version 5.0.4 -  RELEASE  -


 With contributions from (in alphabetic order):
   Daniel Aravena         : Magnetic Suceptibility
   Michael Atanasov       : Ab Initio Ligand Field Theory (pilot matlab implementation)
   Alexander A. Auer      : GIAO ZORA, VPT2 properties, NMR spectrum
   Ute Becker             : Parallelization
   Giovanni Bistoni       : ED, misc. LED, open-shell LED, HFLD
   Martin Brehm           : Molecular dynamics
   Dmytro Bykov           : SCF Hessian
   Vijay G. Chilkuri      : MRCI spin determinant printing, contributions to CSF-ICE
   Dipayan Datta          : RHF DLPNO-CCSD density
   Achintya Kumar Dutta   : EOM-CC, STEOM-CC
   Dmitry Ganyushin       : Spin-Orbit,Spin-Spin,Magnetic field MRCI
   Miquel Garcia          : C-PCM and meta-GGA Hessian, CC/C-PCM, Gaussian charge scheme
   Yang Guo               : DLPNO-NEVPT2, F12-NEVPT2, CIM, IAO-localization
   Andreas Hansen         : Spin unrestricted coupled pair/coupled cluster methods
   Benjamin Helmich-Paris : MC-RPA, TRAH-SCF, COSX integrals
   Lee Huntington         : MR-EOM, pCC
   Robert Izsak           : Overlap fitted RIJCOSX, COSX-SCS-MP3, EOM
   Marcus Kettner         : VPT2
   Christian Kollmar      : KDIIS, OOCD, Brueckner-CCSD(T), CCSD density, CASPT2, CASPT2-K
   Simone Kossmann        : Meta GGA functionals, TD-DFT gradient, OOMP2, MP2 Hessian
   Martin Krupicka        : Initial AUTO-CI
   Lucas Lang             : DCDCAS
   Marvin Lechner         : AUTO-CI (C++ implementation), FIC-MRCC
   Dagmar Lenk            : GEPOL surface, SMD
   Dimitrios Liakos       : Extrapolation schemes; Compound Job, initial MDCI parallelization
   Dimitrios Manganas     : Further ROCIS development; embedding schemes
   Dimitrios Pantazis     : SARC Basis sets
   Anastasios Papadopoulos: AUTO-CI, single reference methods and gradients
   Taras Petrenko         : DFT Hessian,TD-DFT gradient, ASA, ECA, R-Raman, ABS, FL, XAS/XES, NRVS
   Peter Pinski           : DLPNO-MP2, DLPNO-MP2 Gradient
   Christoph Reimann      : Effective Core Potentials
   Marius Retegan         : Local ZFS, SOC
   Christoph Riplinger    : Optimizer, TS searches, QM/MM, DLPNO-CCSD(T), (RO)-DLPNO pert. Triples
   Tobias Risthaus        : Range-separated hybrids, TD-DFT gradient, RPA, STAB
   Michael Roemelt        : Original ROCIS implementation
   Masaaki Saitow         : Open-shell DLPNO-CCSD energy and density
   Barbara Sandhoefer     : DKH picture change effects
   Avijit Sen             : IP-ROCIS
   Kantharuban Sivalingam : CASSCF convergence, NEVPT2, FIC-MRCI
   Bernardo de Souza      : ESD, SOC TD-DFT
   Georgi Stoychev        : AutoAux, RI-MP2 NMR, DLPNO-MP2 response
   Willem Van den Heuvel  : Paramagnetic NMR
   Boris Wezisla          : Elementary symmetry handling
   Frank Wennmohs         : Technical directorship


 We gratefully acknowledge several colleagues who have allowed us to
 interface, adapt or use parts of their codes:
   Stefan Grimme, W. Hujo, H. Kruse, P. Pracht,  : VdW corrections, initial TS optimization,
                  C. Bannwarth, S. Ehlert          DFT functionals, gCP, sTDA/sTD-DF
   Ed Valeev, F. Pavosevic, A. Kumar             : LibInt (2-el integral package), F12 methods
   Garnet Chan, S. Sharma, J. Yang, R. Olivares  : DMRG
   Ulf Ekstrom                                   : XCFun DFT Library
   Mihaly Kallay                                 : mrcc  (arbitrary order and MRCC methods)
   Jiri Pittner, Ondrej Demel                    : Mk-CCSD
   Frank Weinhold                                : gennbo (NPA and NBO analysis)
   Christopher J. Cramer and Donald G. Truhlar   : smd solvation model
   Lars Goerigk                                  : TD-DFT with DH, B97 family of functionals
   V. Asgeirsson, H. Jonsson                     : NEB implementation
   FAccTs GmbH                                   : IRC, NEB, NEB-TS, DLPNO-Multilevel, CI-OPT
                                                   MM, QMMM, 2- and 3-layer-ONIOM, Crystal-QMMM,
                                                   LR-CPCM, SF, NACMEs, symmetry and pop. for TD-DFT,
                                                   nearIR, NL-DFT gradient (VV10), updates on ESD,
                                                   ML-optimized integration grids
   S Lehtola, MJT Oliveira, MAL Marques          : LibXC Library
   Liviu Ungur et al                             : ANISO software


 Your calculation uses the libint2 library for the computation of 2-el integrals
 For citations please refer to: http://libint.valeyev.net

 Your ORCA version has been built with support for libXC version: 5.1.0
 For citations please refer to: https://tddft.org/programs/libxc/

 This ORCA versions uses:
   CBLAS   interface :  Fast vector & matrix operations
   LAPACKE interface :  Fast linear algebra routines
   SCALAPACK package :  Parallel linear algebra routines
   Shared memory     :  Shared parallel matrices
   BLAS/LAPACK       :  OpenBLAS 0.3.15  USE64BITINT DYNAMIC_ARCH NO_AFFINITY SkylakeX SINGLE_THREADED
        Core in use  :  SkylakeX
   Copyright (c) 2011-2014, The OpenBLAS Project




***************************************
The coordinates will be read from file: /users/fjb15167/WWenergy/structures/NfeBr.xyz
***************************************


Your calculation utilizes the atom-pairwise dispersion correction
based on tight binding partial charges (D4)
Cite in your paper:
E.Caldeweyher, C.Bannwarth, S.Grimme, J.Chem.Phys., (2017), 147, 034112.
E.Caldeweyher, S.Ehlert, A.Hansen, H.Neugebauer, S.Grimme, J.Chem.Phys., (2018), in progress.
   

================================================================================

----- Orbital basis set information -----
Your calculation utilizes the basis: 6-311G(d)
   H, Li - Ne  : R. Krishnan, J. S. Binkley, R. Seeger and J. A. Pople, J. Chem. Phys. 72, 650 (1980).
   Na - Ar     : A. D. McLean and G. S. Chandler J. Chem. Phys. 72, 5639, (1980).
   K  - Ca     : J.-P. Blaudeau, M. P. McGrath, L. A. Curtiss and L. Radom, J. Chem. Phys. 107, 5016 (1997).
   Ga - Kr     : L. A. Curtiss, M. P. McGrath, J.-P. Blandeau, N. E. Davis, R. C. Binning and L. Radom, J. Chem. Phys. 103, 6104 (1995).
   Pol./Diff.
   H, Li - Cl  : T. Clark, J. Chandrasekhar and P. v. R. Schleyer, J. Comp. Chem. 4, 294 (1983).
   H - Ne      : M. J. Frisch, J. A. Pople and J. S. Binkley, J. Chem. Phys. 80, 3265 (1984).

----- AuxJ basis set information -----
Your calculation utilizes the AutoAux generation procedure.
  G. L. Stoychev, A. A. Auer, F. Neese, J. Chem. Theory Comput. 13, 554 (2017)

----- AuxC basis set information -----
Your calculation utilizes the AutoAux generation procedure.
  G. L. Stoychev, A. A. Auer, F. Neese, J. Chem. Theory Comput. 13, 554 (2017)

----- AuxJK basis set information -----
Your calculation utilizes the AutoAux generation procedure.
  G. L. Stoychev, A. A. Auer, F. Neese, J. Chem. Theory Comput. 13, 554 (2017)

================================================================================
                                        WARNINGS
                       Please study these warnings very carefully!
================================================================================


WARNING: Geometry Optimization
  ===> : Switching off AutoStart
         For restart on a previous wavefunction, please use MOREAD

INFO   : the flag for use of the SHARK integral package has been found!

================================================================================
                                       INPUT FILE
================================================================================
NAME = NfeBr_octanol.inp
|  1> ! OPT FREQ B3LYP 6-311G(d) D4 AUTOAUX
|  2> ! CPCM
|  3> 
|  4> %cpcm
|  5> epsilon 9.8629 
|  6> refrac  1.4295 
|  7> end
|  8> 
|  9> %PAL NPROCS 4 END
| 10> 
| 11> %maxcore 3375
| 12> 
| 13> *xyzfile 0 1 /users/fjb15167/WWenergy/structures/NfeBr.xyz
| 14> 
| 15>                          ****END OF INPUT****
================================================================================

                       *****************************
                       * Geometry Optimization Run *
                       *****************************

Geometry optimization settings:
Update method            Update   .... BFGS
Choice of coordinates    CoordSys .... Z-matrix Internals
Initial Hessian          InHess   .... Almoef's Model

Convergence Tolerances:
Energy Change            TolE     ....  5.0000e-06 Eh
Max. Gradient            TolMAXG  ....  3.0000e-04 Eh/bohr
RMS Gradient             TolRMSG  ....  1.0000e-04 Eh/bohr
Max. Displacement        TolMAXD  ....  4.0000e-03 bohr
RMS Displacement         TolRMSD  ....  2.0000e-03 bohr
Strict Convergence                ....  False
------------------------------------------------------------------------------
                        ORCA OPTIMIZATION COORDINATE SETUP
------------------------------------------------------------------------------

The optimization will be done in new redundant internal coordinates
Making redundant internal coordinates   ...  (new redundants) done
Evaluating the initial hessian          ...  (Almloef) done
Evaluating the coordinates              ...  done
Calculating the B-matrix                .... done
Calculating the G-matrix                .... done
Diagonalizing the G-matrix              .... done
Small eigenvalue found = 2.691e-03
Small eigenvalue found = 4.821e-03
Small eigenvalue found = 6.932e-03
Small eigenvalue found = 1.141e-02
Small eigenvalue found = 2.007e-02
Small eigenvalue found = 2.168e-02
Small eigenvalue found = 2.800e-02
The first mode is                       ....   79
The number of degrees of freedom        ....  108

    -----------------------------------------------------------------
                    Redundant Internal Coordinates


    -----------------------------------------------------------------
         Definition                    Initial Value    Approx d2E/dq
    -----------------------------------------------------------------
      1. B(H   1,C   0)                  1.0929         0.356236   
      2. B(H   2,C   0)                  1.0943         0.354463   
      3. B(H   3,C   0)                  1.0894         0.360887   
      4. B(C   4,C   0)                  1.5158         0.393545   
      5. B(O   5,C   4)                  1.2388         0.975396   
      6. B(N   6,C   4)                  1.3734         0.594794   
      7. B(C   7,N   6)                  1.4605         0.431970   
      8. B(H   8,C   7)                  1.0954         0.353079   
      9. B(H   9,C   7)                  1.0896         0.360642   
     10. B(C  10,N   6)                  1.4619         0.429661   
     11. B(H  11,C  10)                  1.0944         0.354375   
     12. B(H  12,C  10)                  1.0945         0.354192   
     13. B(C  13,C  10)                  1.5379         0.362912   
     14. B(H  14,C  13)                  1.0942         0.354553   
     15. B(H  15,C  13)                  1.0960         0.352208   
     16. B(C  16,C  13)                  1.5041         0.410878   
     17. B(C  17,C  16)                  1.4040         0.593464   
     18. B(C  18,C  16)                  1.3993         0.603914   
     19. B(C  19,C  17)                  1.3945         0.614460   
     20. B(H  20,C  17)                  1.0890         0.361457   
     21. B(C  21,C  18)                  1.3965         0.609963   
     22. B(H  22,C  18)                  1.0889         0.361585   
     23. B(C  23,C  21)                  1.3937         0.616341   
     24. B(C  23,C  19)                  1.3960         0.611180   
     25. B(H  24,C  19)                  1.0864         0.364875   
     26. B(H  25,C  21)                  1.0858         0.365748   
     27. B(C  26,C   7)                  1.5253         0.380059   
     28. B(N  27,C  26)                  1.3625         0.619140   
     29. B(O  28,C  26)                  1.2422         0.963236   
     30. B(C  29,N  27)                  1.4559         0.439208   
     31. B(H  30,C  29)                  1.0972         0.350721   
     32. B(H  31,C  29)                  1.0950         0.353496   
     33. B(H  32,C  29)                  1.0881         0.362637   
     34. B(C  33,N  27)                  1.4558         0.439480   
     35. B(H  34,C  33)                  1.0970         0.351003   
     36. B(H  35,C  33)                  1.0882         0.362485   
     37. B(H  36,C  33)                  1.0938         0.355152   
     38. B(Br 37,C  23)                  1.9079         0.313242   
     39. A(H   2,C   0,C   4)          110.8084         0.326260   
     40. A(H   1,C   0,H   3)          109.4527         0.290447   
     41. A(H   2,C   0,H   3)          108.9701         0.290219   
     42. A(H   1,C   0,H   2)          108.0242         0.289629   
     43. A(H   3,C   0,C   4)          107.1341         0.327227   
     44. A(H   1,C   0,C   4)          112.4035         0.326528   
     45. A(C   0,C   4,O   5)          121.0700         0.431118   
     46. A(C   0,C   4,N   6)          116.9358         0.394883   
     47. A(O   5,C   4,N   6)          121.9874         0.461552   
     48. A(C   7,N   6,C  10)          115.9766         0.376844   
     49. A(C   4,N   6,C  10)          124.8108         0.398455   
     50. A(C   4,N   6,C   7)          119.1338         0.398831   
     51. A(N   6,C   7,H   9)          107.9302         0.330264   
     52. A(H   8,C   7,H   9)          108.9831         0.290010   
     53. A(N   6,C   7,C  26)          111.0273         0.371284   
     54. A(H   8,C   7,C  26)          105.4203         0.324187   
     55. A(N   6,C   7,H   8)          109.5575         0.329109   
     56. A(H   9,C   7,C  26)          113.8495         0.325317   
     57. A(H  12,C  10,C  13)          108.8273         0.321908   
     58. A(H  11,C  10,C  13)          110.0092         0.321935   
     59. A(N   6,C  10,C  13)          113.5596         0.368012   
     60. A(H  11,C  10,H  12)          107.1128         0.289357   
     61. A(N   6,C  10,H  12)          106.8661         0.328989   
     62. A(N   6,C  10,H  11)          110.2095         0.329017   
     63. A(H  15,C  13,C  16)          110.4754         0.328240   
     64. A(H  14,C  13,C  16)          109.7973         0.328600   
     65. A(C  10,C  13,C  16)          110.4780         0.367494   
     66. A(H  14,C  13,H  15)          107.1137         0.289125   
     67. A(C  10,C  13,H  15)          109.9523         0.321612   
     68. A(C  10,C  13,H  14)          108.9514         0.321962   
     69. A(C  17,C  16,C  18)          118.8912         0.428640   
     70. A(C  13,C  16,C  17)          119.3554         0.400287   
     71. A(C  13,C  16,C  18)          121.6793         0.401519   
     72. A(C  16,C  17,C  19)          120.7859         0.429973   
     73. A(C  19,C  17,H  20)          119.9007         0.352598   
     74. A(C  16,C  17,H  20)          119.3124         0.350532   
     75. A(C  21,C  18,H  22)          119.1482         0.352181   
     76. A(C  16,C  18,H  22)          119.7498         0.351588   
     77. A(C  16,C  18,C  21)          121.0943         0.430754   
     78. A(C  23,C  19,H  24)          120.1891         0.352840   
     79. A(C  17,C  19,H  24)          120.7877         0.353160   
     80. A(C  17,C  19,C  23)          119.0230         0.432251   
     81. A(C  23,C  21,H  25)          120.2559         0.353486   
     82. A(C  18,C  21,H  25)          120.9547         0.352864   
     83. A(C  18,C  21,C  23)          118.7894         0.432333   
     84. A(C  19,C  23,C  21)          121.4104         0.432488   
     85. A(C  21,C  23,Br 37)          119.2406         0.409349   
     86. A(C  19,C  23,Br 37)          119.3484         0.408740   
     87. A(N  27,C  26,O  28)          122.7353         0.463884   
     88. A(C   7,C  26,O  28)          119.1178         0.427466   
     89. A(C   7,C  26,N  27)          118.1196         0.395247   
     90. A(C  29,N  27,C  33)          115.4010         0.379410   
     91. A(C  26,N  27,C  33)          118.3289         0.402879   
     92. A(C  26,N  27,C  29)          125.3210         0.402835   
     93. A(H  31,C  29,H  32)          108.9099         0.290315   
     94. A(H  30,C  29,H  32)          108.4492         0.289957   
     95. A(N  27,C  29,H  32)          111.9514         0.331476   
     96. A(H  30,C  29,H  31)          108.2290         0.288799   
     97. A(N  27,C  29,H  31)          109.1334         0.330079   
     98. A(N  27,C  29,H  30)          110.0876         0.329649   
     99. A(H  34,C  33,H  36)          108.6572         0.289046   
    100. A(N  27,C  33,H  36)          109.1897         0.330368   
    101. A(H  34,C  33,H  35)          109.3816         0.289974   
    102. A(N  27,C  33,H  35)          108.6519         0.331487   
    103. A(N  27,C  33,H  34)          110.8117         0.329726   
    104. A(H  35,C  33,H  36)          110.1436         0.290509   
    105. D(N   6,C   4,C   0,H   2)    -67.6275         0.011512   
    106. D(O   5,C   4,C   0,H   1)   -127.5771         0.011512   
    107. D(N   6,C   4,C   0,H   1)     53.3498         0.011512   
    108. D(O   5,C   4,C   0,H   2)    111.4457         0.011512   
    109. D(O   5,C   4,C   0,H   3)     -7.3097         0.011512   
    110. D(N   6,C   4,C   0,H   3)    173.6172         0.011512   
    111. D(C   7,N   6,C   4,O   5)     -5.4228         0.028472   
    112. D(C  10,N   6,C   4,C   0)     -2.9940         0.028472   
    113. D(C  10,N   6,C   4,O   5)    177.9420         0.028472   
    114. D(C   7,N   6,C   4,C   0)    173.6412         0.028472   
    115. D(C  26,C   7,N   6,C   4)    126.7246         0.015909   
    116. D(H   8,C   7,N   6,C   4)   -117.2436         0.015909   
    117. D(H   9,C   7,N   6,C  10)    178.2237         0.015909   
    118. D(H   8,C   7,N   6,C  10)     59.6835         0.015909   
    119. D(H   9,C   7,N   6,C   4)      1.2966         0.015909   
    120. D(C  26,C   7,N   6,C  10)    -56.3483         0.015909   
    121. D(C  13,C  10,N   6,C   7)     95.2003         0.015739   
    122. D(C  13,C  10,N   6,C   4)    -88.0691         0.015739   
    123. D(H  12,C  10,N   6,C   7)    -24.8055         0.015739   
    124. D(H  11,C  10,N   6,C   7)   -140.8620         0.015739   
    125. D(H  11,C  10,N   6,C   4)     35.8687         0.015739   
    126. D(H  12,C  10,N   6,C   4)    151.9252         0.015739   
    127. D(C  16,C  13,C  10,N   6)   -165.9890         0.010555   
    128. D(C  16,C  13,C  10,H  11)     69.9645         0.010555   
    129. D(H  15,C  13,C  10,H  12)   -169.2976         0.010555   
    130. D(H  15,C  13,C  10,H  11)    -52.2314         0.010555   
    131. D(H  15,C  13,C  10,N   6)     71.8151         0.010555   
    132. D(H  14,C  13,C  10,H  12)     73.5951         0.010555   
    133. D(H  14,C  13,C  10,H  11)   -169.3387         0.010555   
    134. D(C  16,C  13,C  10,H  12)    -47.1017         0.010555   
    135. D(H  14,C  13,C  10,N   6)    -45.2921         0.010555   
    136. D(C  18,C  16,C  13,H  15)     22.8222         0.012501   
    137. D(C  18,C  16,C  13,H  14)    140.7433         0.012501   
    138. D(C  18,C  16,C  13,C  10)    -99.0660         0.012501   
    139. D(C  17,C  16,C  13,H  15)   -160.3447         0.012501   
    140. D(C  17,C  16,C  13,H  14)    -42.4236         0.012501   
    141. D(C  17,C  16,C  13,C  10)     77.7671         0.012501   
    142. D(H  20,C  17,C  16,C  18)    179.5171         0.024252   
    143. D(H  20,C  17,C  16,C  13)      2.5951         0.024252   
    144. D(C  19,C  17,C  16,C  18)     -0.8418         0.024252   
    145. D(C  19,C  17,C  16,C  13)   -177.7638         0.024252   
    146. D(H  22,C  18,C  16,C  17)    179.8343         0.025160   
    147. D(H  22,C  18,C  16,C  13)     -3.3183         0.025160   
    148. D(C  21,C  18,C  16,C  17)      0.8543         0.025160   
    149. D(C  21,C  18,C  16,C  13)    177.7017         0.025160   
    150. D(H  24,C  19,C  17,H  20)      0.0364         0.026098   
    151. D(H  24,C  19,C  17,C  16)   -179.6026         0.026098   
    152. D(C  23,C  19,C  17,H  20)   -179.8249         0.026098   
    153. D(C  23,C  19,C  17,C  16)      0.5361         0.026098   
    154. D(H  25,C  21,C  18,H  22)      0.5160         0.025696   
    155. D(H  25,C  21,C  18,C  16)    179.5021         0.025696   
    156. D(C  23,C  21,C  18,H  22)   -179.5442         0.025696   
    157. D(C  23,C  21,C  18,C  16)     -0.5581         0.025696   
    158. D(Br 37,C  23,C  21,H  25)     -0.1143         0.026268   
    159. D(Br 37,C  23,C  21,C  18)    179.9455         0.026268   
    160. D(C  19,C  23,C  21,H  25)   -179.8182         0.026268   
    161. D(C  19,C  23,C  21,C  18)      0.2415         0.026268   
    162. D(Br 37,C  23,C  19,H  24)      0.2017         0.025804   
    163. D(Br 37,C  23,C  19,C  17)   -179.9362         0.025804   
    164. D(C  21,C  23,C  19,H  24)    179.9053         0.025804   
    165. D(C  21,C  23,C  19,C  17)     -0.2326         0.025804   
    166. D(N  27,C  26,C   7,H   8)    162.1720         0.010778   
    167. D(N  27,C  26,C   7,N   6)    -79.2693         0.010778   
    168. D(O  28,C  26,C   7,H   9)   -139.0723         0.010778   
    169. D(O  28,C  26,C   7,H   8)    -19.6739         0.010778   
    170. D(O  28,C  26,C   7,N   6)     98.8847         0.010778   
    171. D(N  27,C  26,C   7,H   9)     42.7737         0.010778   
    172. D(C  33,N  27,C  26,O  28)     -2.0972         0.031034   
    173. D(C  33,N  27,C  26,C   7)    175.9856         0.031034   
    174. D(C  29,N  27,C  26,O  28)   -170.4046         0.031034   
    175. D(C  29,N  27,C  26,C   7)      7.6782         0.031034   
    176. D(H  32,C  29,N  27,C  33)    178.0397         0.016449   
    177. D(H  32,C  29,N  27,C  26)    -13.3499         0.016449   
    178. D(H  31,C  29,N  27,C  33)     57.3977         0.016449   
    179. D(H  31,C  29,N  27,C  26)   -133.9919         0.016449   
    180. D(H  30,C  29,N  27,C  33)    -61.2504         0.016449   
    181. D(H  30,C  29,N  27,C  26)    107.3600         0.016449   
    182. D(H  36,C  33,N  27,C  29)    -52.1728         0.016469   
    183. D(H  36,C  33,N  27,C  26)    138.3748         0.016469   
    184. D(H  35,C  33,N  27,C  29)   -172.3268         0.016469   
    185. D(H  35,C  33,N  27,C  26)     18.2208         0.016469   
    186. D(H  34,C  33,N  27,C  29)     67.4744         0.016469   
    187. D(H  34,C  33,N  27,C  26)   -101.9781         0.016469   
    -----------------------------------------------------------------

Number of atoms                         .... 38
Number of degrees of freedom            .... 187

         *************************************************************
         *                GEOMETRY OPTIMIZATION CYCLE   1            *
         *************************************************************
---------------------------------
CARTESIAN COORDINATES (ANGSTROEM)
---------------------------------
  C      3.113000    3.180000    0.302000
  H      2.358000    2.998000    1.071000
  H      2.647000    3.762000   -0.499000
  H      3.933000    3.757000    0.728000
  C      3.706000    1.895000   -0.241000
  O      4.932000    1.721000   -0.275000
  N      2.824000    0.951000   -0.707000
  C      3.344000   -0.243000   -1.368000
  H      2.998000   -0.267000   -2.407000
  H      4.432000   -0.185000   -1.358000
  C      1.368000    1.073000   -0.658000
  H      1.070000    2.113000   -0.823000
  H      0.972000    0.488000   -1.494000
  C      0.751000    0.550000    0.650000
  H      1.206000   -0.414000    0.897000
  H      0.982000    1.236000    1.473000
  C     -0.737000    0.388000    0.502000
  C     -1.243000   -0.727000   -0.185000
  C     -1.632000    1.354000    0.975000
  C     -2.615000   -0.883000   -0.380000
  H     -0.552000   -1.479000   -0.563000
  C     -3.009000    1.214000    0.789000
  H     -1.255000    2.223000    1.512000
  C     -3.484000    0.094000    0.109000
  H     -3.007000   -1.749000   -0.906000
  H     -3.702000    1.961000    1.164000
  C      2.788000   -1.510000   -0.726000
  N      3.348000   -1.938000    0.440000
  O      1.828000   -2.088000   -1.262000
  C      4.335000   -1.204000    1.219000
  H      3.875000   -0.808000    2.133000
  H      5.142000   -1.885000    1.509000
  H      4.759000   -0.373000    0.659000
  C      2.764000   -3.095000    1.103000
  H      2.141000   -2.785000    1.951000
  H      2.152000   -3.636000    0.384000
  H      3.566000   -3.739000    1.475000
  Br    -5.363000   -0.111000   -0.151000

----------------------------
CARTESIAN COORDINATES (A.U.)
----------------------------
  NO LB      ZA    FRAG     MASS         X           Y           Z
   0 C     6.0000    0    12.011    5.882717    6.009329    0.570697
   1 H     1.0000    0     1.008    4.455974    5.665399    2.023897
   2 H     1.0000    0     1.008    5.002105    7.109150   -0.942973
   3 H     1.0000    0     1.008    7.432293    7.099701    1.375721
   4 C     6.0000    0    12.011    7.003325    3.581031   -0.455424
   5 O     8.0000    0    15.999    9.320129    3.252219   -0.519675
   6 N     7.0000    0    14.007    5.336587    1.797130   -1.336036
   7 C     6.0000    0    12.011    6.319244   -0.459203   -2.585145
   8 H     1.0000    0     1.008    5.665399   -0.504557   -4.548571
   9 H     1.0000    0     1.008    8.375266   -0.349599   -2.566248
  10 C     6.0000    0    12.011    2.585145    2.027676   -1.243440
  11 H     1.0000    0     1.008    2.022007    3.992991   -1.555245
  12 H     1.0000    0     1.008    1.836814    0.922186   -2.823251
  13 C     6.0000    0    12.011    1.419184    1.039349    1.228322
  14 H     1.0000    0     1.008    2.279010   -0.782347    1.695084
  15 H     1.0000    0     1.008    1.855711    2.335702    2.783567
  16 C     6.0000    0    12.011   -1.392728    0.733214    0.948643
  17 C     6.0000    0    12.011   -2.348930   -1.373831   -0.349599
  18 C     6.0000    0    12.011   -3.084033    2.558689    1.842483
  19 C     6.0000    0    12.011   -4.941634   -1.668628   -0.718096
  20 H     1.0000    0     1.008   -1.043129   -2.794905   -1.063916
  21 C     6.0000    0    12.011   -5.686186    2.294128    1.490994
  22 H     1.0000    0     1.008   -2.371606    4.200861    2.857266
  23 C     6.0000    0    12.011   -6.583806    0.177634    0.205980
  24 H     1.0000    0     1.008   -5.682406   -3.305131   -1.712092
  25 H     1.0000    0     1.008   -6.995766    3.705753    2.199641
  26 C     6.0000    0    12.011    5.268556   -2.853486   -1.371941
  27 N     7.0000    0    14.007    6.326803   -3.662289    0.831479
  28 O     8.0000    0    15.999    3.454419   -3.945748   -2.384834
  29 C     6.0000    0    12.011    8.191963   -2.275230    2.303576
  30 H     1.0000    0     1.008    7.322689   -1.526899    4.030786
  31 H     1.0000    0     1.008    9.716972   -3.562134    2.851597
  32 H     1.0000    0     1.008    8.993207   -0.704868    1.245330
  33 C     6.0000    0    12.011    5.223203   -5.848702    2.084368
  34 H     1.0000    0     1.008    4.045904   -5.262887    3.686856
  35 H     1.0000    0     1.008    4.066691   -6.871044    0.725655
  36 H     1.0000    0     1.008    6.738763   -7.065686    2.787346
  37 Br   35.0000    0    79.900  -10.134601   -0.209760   -0.285349

--------------------------------
INTERNAL COORDINATES (ANGSTROEM)
--------------------------------
 C      0   0   0     0.000000000000     0.00000000     0.00000000
 H      1   0   0     1.092936411691     0.00000000     0.00000000
 H      1   2   0     1.094294750056   108.02419775     0.00000000
 H      1   2   3     1.089405801343   109.45265545   118.52024246
 C      1   2   3     1.515824198250   112.40347563   237.43786826
 O      5   1   2     1.238752598383   121.07004512   232.42293999
 N      5   1   2     1.373395791460   116.93584778    53.34979849
 C      7   5   1     1.460464652089   119.13375764   173.64121198
 H      8   7   5     1.095359758253   109.55748733   242.75635820
 H      8   7   5     1.089590748859   107.93022362     1.29657983
 C      7   5   1     1.461923732621   124.81082092   357.00603334
 H     11   7   5     1.094362371429   110.20951267    35.86871493
 H     11   7   5     1.094503083595   106.86614245   151.92515781
 C     11   7   5     1.537882310192   113.55958721   271.93093446
 H     14  11   7     1.094225753672   108.95139457   314.70787119
 H     14  11   7     1.096031933841   109.95228531    71.81510137
 C     14  11   7     1.504091752520   110.47799087   194.01102817
 C     17  14  11     1.404004985746   119.35537807    77.76707876
 C     17  14  11     1.399253372338   121.67931565   260.93400469
 C     18  17  14     1.394541143172   120.78591046   182.23624462
 H     18  17  14     1.088976124623   119.31244163     2.59513766
 C     19  17  14     1.396540368196   121.09425032   177.70168845
 H     19  17  14     1.088879699508   119.74979684   356.68168596
 C     22  19  17     1.393709080117   118.78937270   359.44185367
 H     20  18  17     1.086414285620   120.78766232   180.39736638
 H     22  19  17     1.085763786466   120.95469784   179.50205367
 C      8   7   5     1.525316032827   111.02728837   126.72457197
 N     27   8   7     1.362475687856   118.11963785   280.73065820
 O     27   8   7     1.242167460530   119.11783728    98.88466875
 C     28  27   8     1.455941619709   125.32104110     7.67817802
 H     30  28  27     1.097183667396   110.08762005   107.35999687
 H     30  28  27     1.095038812098   109.13337150   226.00807317
 H     30  28  27     1.088088691238   111.95135143   346.65006211
 C     28  27   8     1.455772647085   118.32892263   175.98559846
 H     34  28  27     1.096965359526   110.81167834   258.02193576
 H     34  28  27     1.088203106042   108.65191480    18.22076762
 H     34  28  27     1.093765971312   109.18971239   138.37476357
 Br    24  22  19     1.907948112502   119.24062182   179.94548285

---------------------------
INTERNAL COORDINATES (A.U.)
---------------------------
 C      0   0   0     0.000000000000     0.00000000     0.00000000
 H      1   0   0     2.065350499887     0.00000000     0.00000000
 H      1   2   0     2.067917387394   108.02419775     0.00000000
 H      1   2   3     2.058678613243   109.45265545   118.52024246
 C      1   2   3     2.864492601863   112.40347563   237.43786826
 O      5   1   2     2.340903158627   121.07004512   232.42293999
 N      5   1   2     2.595341919339   116.93584778    53.34979849
 C      7   5   1     2.759878220720   119.13375764   173.64121198
 H      8   7   5     2.069929961216   109.55748733   242.75635820
 H      8   7   5     2.059028113398   107.93022362     1.29657983
 C      7   5   1     2.762635483333   124.81082092   357.00603334
 H     11   7   5     2.068045173270   110.20951267    35.86871493
 H     11   7   5     2.068311080728   106.86614245   151.92515781
 C     11   7   5     2.906176392464   113.55958721   271.93093446
 H     14  11   7     2.067787003124   108.95139457   314.70787119
 H     14  11   7     2.071200188992   109.95228531    71.81510137
 C     14  11   7     2.842321492553   110.47799087   194.01102817
 C     17  14  11     2.653184913720   119.35537807    77.76707876
 C     17  14  11     2.644205665685   121.67931565   260.93400469
 C     18  17  14     2.635300843081   120.78591046   182.23624462
 H     18  17  14     2.057866641917   119.31244163     2.59513766
 C     19  17  14     2.639078830855   121.09425032   177.70168845
 H     19  17  14     2.057684424856   119.74979684   356.68168596
 C     22  19  17     2.633728471780   118.78937270   359.44185367
 H     20  18  17     2.053025467802   120.78766232   180.39736638
 H     22  19  17     2.051796202549   120.95469784   179.50205367
 C      8   7   5     2.882429569723   111.02728837   126.72457197
 N     27   8   7     2.574705914175   118.11963785   280.73065820
 O     27   8   7     2.347356312870   119.11783728    98.88466875
 C     28  27   8     2.751330928227   125.32104110     7.67817802
 H     30  28  27     2.073376649989   110.08762005   107.35999687
 H     30  28  27     2.069323460879   109.13337150   226.00807317
 H     30  28  27     2.056189635857   111.95135143   346.65006211
 C     28  27   8     2.751011616244   118.32892263   175.98559846
 H     34  28  27     2.072964107903   110.81167834   258.02193576
 H     34  28  27     2.056405848502   108.65191480    18.22076762
 H     34  28  27     2.066918140382   109.18971239   138.37476357
 Br    24  22  19     3.605499410361   119.24062182   179.94548285

---------------------
BASIS SET INFORMATION
---------------------
There are 5 groups of distinct atoms

 Group   1 Type C   : 11s5p1d contracted to 4s3p1d pattern {6311/311/1}
 Group   2 Type H   : 5s contracted to 3s pattern {311}
 Group   3 Type O   : 11s5p1d contracted to 4s3p1d pattern {6311/311/1}
 Group   4 Type N   : 11s5p1d contracted to 4s3p1d pattern {6311/311/1}
 Group   5 Type Br  : 15s13p6d contracted to 8s7p3d pattern {63111111/3331111/411}

Atom   0C    basis set group =>   1
Atom   1H    basis set group =>   2
Atom   2H    basis set group =>   2
Atom   3H    basis set group =>   2
Atom   4C    basis set group =>   1
Atom   5O    basis set group =>   3
Atom   6N    basis set group =>   4
Atom   7C    basis set group =>   1
Atom   8H    basis set group =>   2
Atom   9H    basis set group =>   2
Atom  10C    basis set group =>   1
Atom  11H    basis set group =>   2
Atom  12H    basis set group =>   2
Atom  13C    basis set group =>   1
Atom  14H    basis set group =>   2
Atom  15H    basis set group =>   2
Atom  16C    basis set group =>   1
Atom  17C    basis set group =>   1
Atom  18C    basis set group =>   1
Atom  19C    basis set group =>   1
Atom  20H    basis set group =>   2
Atom  21C    basis set group =>   1
Atom  22H    basis set group =>   2
Atom  23C    basis set group =>   1
Atom  24H    basis set group =>   2
Atom  25H    basis set group =>   2
Atom  26C    basis set group =>   1
Atom  27N    basis set group =>   4
Atom  28O    basis set group =>   3
Atom  29C    basis set group =>   1
Atom  30H    basis set group =>   2
Atom  31H    basis set group =>   2
Atom  32H    basis set group =>   2
Atom  33C    basis set group =>   1
Atom  34H    basis set group =>   2
Atom  35H    basis set group =>   2
Atom  36H    basis set group =>   2
Atom  37Br   basis set group =>   5
---------------------------------
AUXILIARY/J BASIS SET INFORMATION
---------------------------------
There are 5 groups of distinct atoms

 Group   1 Type C   : 14s12p11d3f contracted to 14s12p11d3f pattern {11111111111111/111111111111/11111111111/111}
 Group   2 Type H   : 11s2p contracted to 11s2p pattern {11111111111/11}
 Group   3 Type O   : 14s12p11d3f contracted to 14s12p11d3f pattern {11111111111111/111111111111/11111111111/111}
 Group   4 Type N   : 14s12p10d3f contracted to 14s12p10d3f pattern {11111111111111/111111111111/1111111111/111}
 Group   5 Type Br  : 22s20p18d14f8g contracted to 22s20p18d14f8g pattern {1111111111111111111111/11111111111111111111/111111111111111111/11111111111111/11111111}

Atom   0C    basis set group =>   1
Atom   1H    basis set group =>   2
Atom   2H    basis set group =>   2
Atom   3H    basis set group =>   2
Atom   4C    basis set group =>   1
Atom   5O    basis set group =>   3
Atom   6N    basis set group =>   4
Atom   7C    basis set group =>   1
Atom   8H    basis set group =>   2
Atom   9H    basis set group =>   2
Atom  10C    basis set group =>   1
Atom  11H    basis set group =>   2
Atom  12H    basis set group =>   2
Atom  13C    basis set group =>   1
Atom  14H    basis set group =>   2
Atom  15H    basis set group =>   2
Atom  16C    basis set group =>   1
Atom  17C    basis set group =>   1
Atom  18C    basis set group =>   1
Atom  19C    basis set group =>   1
Atom  20H    basis set group =>   2
Atom  21C    basis set group =>   1
Atom  22H    basis set group =>   2
Atom  23C    basis set group =>   1
Atom  24H    basis set group =>   2
Atom  25H    basis set group =>   2
Atom  26C    basis set group =>   1
Atom  27N    basis set group =>   4
Atom  28O    basis set group =>   3
Atom  29C    basis set group =>   1
Atom  30H    basis set group =>   2
Atom  31H    basis set group =>   2
Atom  32H    basis set group =>   2
Atom  33C    basis set group =>   1
Atom  34H    basis set group =>   2
Atom  35H    basis set group =>   2
Atom  36H    basis set group =>   2
Atom  37Br   basis set group =>   5
---------------------------------
AUXILIARY/C BASIS SET INFORMATION
---------------------------------
There are 5 groups of distinct atoms

 Group   1 Type C   : 14s12p11d3f contracted to 14s12p11d3f pattern {11111111111111/111111111111/11111111111/111}
 Group   2 Type H   : 11s2p contracted to 11s2p pattern {11111111111/11}
 Group   3 Type O   : 14s12p11d3f contracted to 14s12p11d3f pattern {11111111111111/111111111111/11111111111/111}
 Group   4 Type N   : 14s12p10d3f contracted to 14s12p10d3f pattern {11111111111111/111111111111/1111111111/111}
 Group   5 Type Br  : 22s20p18d14f8g contracted to 22s20p18d14f8g pattern {1111111111111111111111/11111111111111111111/111111111111111111/11111111111111/11111111}

Atom   0C    basis set group =>   1
Atom   1H    basis set group =>   2
Atom   2H    basis set group =>   2
Atom   3H    basis set group =>   2
Atom   4C    basis set group =>   1
Atom   5O    basis set group =>   3
Atom   6N    basis set group =>   4
Atom   7C    basis set group =>   1
Atom   8H    basis set group =>   2
Atom   9H    basis set group =>   2
Atom  10C    basis set group =>   1
Atom  11H    basis set group =>   2
Atom  12H    basis set group =>   2
Atom  13C    basis set group =>   1
Atom  14H    basis set group =>   2
Atom  15H    basis set group =>   2
Atom  16C    basis set group =>   1
Atom  17C    basis set group =>   1
Atom  18C    basis set group =>   1
Atom  19C    basis set group =>   1
Atom  20H    basis set group =>   2
Atom  21C    basis set group =>   1
Atom  22H    basis set group =>   2
Atom  23C    basis set group =>   1
Atom  24H    basis set group =>   2
Atom  25H    basis set group =>   2
Atom  26C    basis set group =>   1
Atom  27N    basis set group =>   4
Atom  28O    basis set group =>   3
Atom  29C    basis set group =>   1
Atom  30H    basis set group =>   2
Atom  31H    basis set group =>   2
Atom  32H    basis set group =>   2
Atom  33C    basis set group =>   1
Atom  34H    basis set group =>   2
Atom  35H    basis set group =>   2
Atom  36H    basis set group =>   2
Atom  37Br   basis set group =>   5
----------------------------------
AUXILIARY/JK BASIS SET INFORMATION
----------------------------------
There are 5 groups of distinct atoms

 Group   1 Type C   : 14s12p11d3f contracted to 14s12p11d3f pattern {11111111111111/111111111111/11111111111/111}
 Group   2 Type H   : 11s2p contracted to 11s2p pattern {11111111111/11}
 Group   3 Type O   : 14s12p11d3f contracted to 14s12p11d3f pattern {11111111111111/111111111111/11111111111/111}
 Group   4 Type N   : 14s12p10d3f contracted to 14s12p10d3f pattern {11111111111111/111111111111/1111111111/111}
 Group   5 Type Br  : 22s20p18d14f8g contracted to 22s20p18d14f8g pattern {1111111111111111111111/11111111111111111111/111111111111111111/11111111111111/11111111}

Atom   0C    basis set group =>   1
Atom   1H    basis set group =>   2
Atom   2H    basis set group =>   2
Atom   3H    basis set group =>   2
Atom   4C    basis set group =>   1
Atom   5O    basis set group =>   3
Atom   6N    basis set group =>   4
Atom   7C    basis set group =>   1
Atom   8H    basis set group =>   2
Atom   9H    basis set group =>   2
Atom  10C    basis set group =>   1
Atom  11H    basis set group =>   2
Atom  12H    basis set group =>   2
Atom  13C    basis set group =>   1
Atom  14H    basis set group =>   2
Atom  15H    basis set group =>   2
Atom  16C    basis set group =>   1
Atom  17C    basis set group =>   1
Atom  18C    basis set group =>   1
Atom  19C    basis set group =>   1
Atom  20H    basis set group =>   2
Atom  21C    basis set group =>   1
Atom  22H    basis set group =>   2
Atom  23C    basis set group =>   1
Atom  24H    basis set group =>   2
Atom  25H    basis set group =>   2
Atom  26C    basis set group =>   1
Atom  27N    basis set group =>   4
Atom  28O    basis set group =>   3
Atom  29C    basis set group =>   1
Atom  30H    basis set group =>   2
Atom  31H    basis set group =>   2
Atom  32H    basis set group =>   2
Atom  33C    basis set group =>   1
Atom  34H    basis set group =>   2
Atom  35H    basis set group =>   2
Atom  36H    basis set group =>   2
Atom  37Br   basis set group =>   5


           ************************************************************
           *        Program running with 4 parallel MPI-processes     *
           *              working on a common directory               *
           ************************************************************
------------------------------------------------------------------------------
                           ORCA GTO INTEGRAL CALCULATION
                           -- RI-GTO INTEGRALS CHOSEN --
------------------------------------------------------------------------------
------------------------------------------------------------------------------
                   ___                                                        
                  /   \      - P O W E R E D   B Y -                         
                 /     \                                                     
                 |  |  |   _    _      __       _____    __    __             
                 |  |  |  | |  | |    /  \     |  _  \  |  |  /  |          
                  \  \/   | |  | |   /    \    | | | |  |  | /  /          
                 / \  \   | |__| |  /  /\  \   | |_| |  |  |/  /          
                |  |  |   |  __  | /  /__\  \  |    /   |      \           
                |  |  |   | |  | | |   __   |  |    \   |  |\   \          
                \     /   | |  | | |  |  |  |  | |\  \  |  | \   \       
                 \___/    |_|  |_| |__|  |__|  |_| \__\ |__|  \__/        
                                                                              
                      - O R C A' S   B I G   F R I E N D -                    
                                      &                                       
                       - I N T E G R A L  F E E D E R -                       
                                                                              
 v1 FN, 2020, v2 2021                                                         
------------------------------------------------------------------------------


Reading SHARK input file NfeBr_octanol.SHARKINP.tmp ... ok
----------------------
SHARK INTEGRAL PACKAGE
----------------------

Number of atoms                             ...     38
Number of basis functions                   ...    425
Number of shells                            ...    219
Maximum angular momentum                    ...      2
Integral batch strategy                     ... SHARK/LIBINT Hybrid
RI-J (if used) integral strategy            ... SPLIT-RIJ (Revised 2003 algorithm where possible)
Printlevel                                  ...      1
Contraction scheme used                     ... SEGMENTED contraction
Coulomb Range Separation                    ... NOT USED
Exchange Range Separation                   ... NOT USED
Finite Nucleus Model                        ... NOT USED
Auxiliary Coulomb fitting basis             ... AVAILABLE
   # of basis functions in Aux-J            ...   2923
   # of shells in Aux-J                     ...   1047
   Maximum angular momentum in Aux-J        ...      4
Auxiliary J/K fitting basis                 ... AVAILABLE
   # of basis functions in Aux-JK           ...   2923
   # of shells in Aux-JK                    ...   1047
   Maximum angular momentum in Aux-JK       ...      4
Auxiliary Correlation fitting basis         ... AVAILABLE
   # of basis functions in Aux-C            ...   2923
   # of shells in Aux-C                     ...   1047
   Maximum angular momentum in Aux-C        ...      4
Auxiliary 'external' fitting basis          ... NOT available
Integral threshold                          ...     2.500000e-11
Primitive cut-off                           ...     2.500000e-12
Primitive pair pre-selection threshold      ...     2.500000e-12

Calculating pre-screening integrals         ... done (  0.1 sec) Dimension = 219
Organizing shell pair data                  ... done (  0.1 sec)
Shell pair information
Total number of shell pairs                 ...     24090
Shell pairs after pre-screening             ...     16562
Total number of primitive shell pairs       ...     95298
Primitive shell pairs kept                  ...     40160
          la=0 lb=0:   6450 shell pairs
          la=1 lb=0:   5895 shell pairs
          la=1 lb=1:   1380 shell pairs
          la=2 lb=0:   1834 shell pairs
          la=2 lb=1:    858 shell pairs
          la=2 lb=2:    145 shell pairs

Calculating one electron integrals          ... done (  0.0 sec)
Calculating RI/J V-Matrix + Cholesky decomp.... done (  0.6 sec)
Calculating RI/JK V-Matrix + Cholesky decomp... done (  0.6 sec)
Calculating RI/C V-Matrix + Cholesky decomp.... done (  0.6 sec)
Calculating Nuclear repulsion               ... done (  0.0 sec) ENN=   1778.670967352738 Eh

SHARK setup successfully completed in   2.2 seconds

Maximum memory used throughout the entire GTOINT-calculation: 72.7 MB


           ************************************************************
           *        Program running with 4 parallel MPI-processes     *
           *              working on a common directory               *
           ************************************************************
-------------------------------------------------------------------------------
                                 ORCA SCF
-------------------------------------------------------------------------------

------------
SCF SETTINGS
------------
Hamiltonian:
 Density Functional     Method          .... DFT(GTOs)
 Exchange Functional    Exchange        .... B88
   X-Alpha parameter    XAlpha          ....  0.666667
   Becke's b parameter  XBeta           ....  0.004200
 Correlation Functional Correlation     .... LYP
 LDA part of GGA corr.  LDAOpt          .... VWN-5
 Gradients option       PostSCFGGA      .... off
 Hybrid DFT is turned on
   Fraction HF Exchange ScalHFX         ....  0.200000
   Scaling of DF-GGA-X  ScalDFX         ....  0.720000
   Scaling of DF-GGA-C  ScalDFC         ....  0.810000
   Scaling of DF-LDA-C  ScalLDAC        ....  1.000000
   Perturbative correction              ....  0.000000
   Density functional embedding theory  .... OFF
   NL short-range parameter             ....  4.800000
 RI-approximation to the Coulomb term is turned on
   Number of AuxJ basis functions       .... 2923
   RIJ-COSX (HFX calculated with COS-X)).... on


General Settings:
 Integral files         IntName         .... NfeBr_octanol
 Hartree-Fock type      HFTyp           .... RHF
 Total Charge           Charge          ....    0
 Multiplicity           Mult            ....    1
 Number of Electrons    NEL             ....  168
 Basis Dimension        Dim             ....  425
 Nuclear Repulsion      ENuc            ....   1778.6709673527 Eh

Convergence Acceleration:
 DIIS                   CNVDIIS         .... on
   Start iteration      DIISMaxIt       ....    12
   Startup error        DIISStart       ....  0.200000
   # of expansion vecs  DIISMaxEq       ....     5
   Bias factor          DIISBfac        ....   1.050
   Max. coefficient     DIISMaxC        ....  10.000
 Trust-Rad. Augm. Hess. CNVTRAH         .... auto
   Auto Start mean grad. ratio tolernc. ....  1.125000
   Auto Start start iteration           ....    20
   Auto Start num. interpolation iter.  ....    10
   Max. Number of Micro iterations      ....    16
   Max. Number of Macro iterations      .... Maxiter - #DIIS iter
   Number of Davidson start vectors     ....     2
   Converg. threshold I  (grad. norm)   ....   1.000e-05
   Converg. threshold II (energy diff.) ....   1.000e-08
   Grad. Scal. Fac. for Micro threshold ....   0.100
   Minimum threshold for Micro iter.    ....   0.010
   NR start threshold (gradient norm)   ....   0.001
   Initial trust radius                 ....   0.400
   Minimum AH scaling param. (alpha)    ....   1.000
   Maximum AH scaling param. (alpha)    .... 1000.000
   Orbital update algorithm             .... Taylor
   White noise on init. David. guess    .... on
   Maximum white noise                  ....   0.010
   Quad. conv. algorithm                .... NR
 SOSCF                  CNVSOSCF        .... on
   Start iteration      SOSCFMaxIt      ....   150
   Startup grad/error   SOSCFStart      ....  0.003300
 Level Shifting         CNVShift        .... on
   Level shift para.    LevelShift      ....    0.2500
   Turn off err/grad.   ShiftErr        ....    0.0010
 Zerner damping         CNVZerner       .... off
 Static damping         CNVDamp         .... on
   Fraction old density DampFac         ....    0.7000
   Max. Damping (<1)    DampMax         ....    0.9800
   Min. Damping (>=0)   DampMin         ....    0.0000
   Turn off err/grad.   DampErr         ....    0.1000
 Fernandez-Rico         CNVRico         .... off

SCF Procedure:
 Maximum # iterations   MaxIter         ....   125
 SCF integral mode      SCFMode         .... Direct
   Integral package                     .... SHARK and LIBINT hybrid scheme
 Reset frequency        DirectResetFreq ....    20
 Integral Threshold     Thresh          ....  2.500e-11 Eh
 Primitive CutOff       TCut            ....  2.500e-12 Eh

Convergence Tolerance:
 Convergence Check Mode ConvCheckMode   .... Total+1el-Energy
 Convergence forced     ConvForced      .... 0
 Energy Change          TolE            ....  1.000e-08 Eh
 1-El. energy change                    ....  1.000e-05 Eh
 Orbital Gradient       TolG            ....  1.000e-05
 Orbital Rotation angle TolX            ....  1.000e-05
 DIIS Error             TolErr          ....  5.000e-07


Diagonalization of the overlap matrix:
Smallest eigenvalue                        ... 1.710e-04
Time for diagonalization                   ...    0.031 sec
Threshold for overlap eigenvalues          ... 1.000e-08
Number of eigenvalues below threshold      ... 0
Time for construction of square roots      ...    0.015 sec
Total time needed                          ...    0.048 sec

Time for model grid setup =    0.453 sec

------------------------------
INITIAL GUESS: MODEL POTENTIAL
------------------------------
Loading Hartree-Fock densities                     ... done
Calculating cut-offs                               ... done
Initializing the effective Hamiltonian             ... done
Setting up the integral package (SHARK)            ... done
Starting the Coulomb interaction                   ... done (   0.5 sec)
Reading the grid                                   ... done
Mapping shells                                     ... done
Starting the XC term evaluation                    ... done (   0.3 sec)
  promolecular density results
     # of electrons  =    167.993790996
     EX              =   -196.907908832
     EC              =     -6.196876384
     EX+EC           =   -203.104785216
Transforming the Hamiltonian                       ... done (   0.0 sec)
Diagonalizing the Hamiltonian                      ... done (   0.0 sec)
Back transforming the eigenvectors                 ... done (   0.0 sec)
Now organizing SCF variables                       ... done
                      ------------------
                      INITIAL GUESS DONE (   1.3 sec)
                      ------------------
-------------------
DFT GRID GENERATION
-------------------

General Integration Accuracy     IntAcc      ... 4.388
Radial Grid Type                 RadialGrid  ... OptM3 with GC (2021)
Angular Grid (max. ang.)         AngularGrid ... 4 (Lebedev-302)
Angular grid pruning method      GridPruning ... 4 (adaptive)
Weight generation scheme         WeightScheme... Becke
Basis function cutoff            BFCut       ... 1.0000e-11
Integration weight cutoff        WCut        ... 1.0000e-14
Angular grids for H and He will be reduced by one unit
Partially contracted basis set               ... off
Rotationally invariant grid construction     ... off

Total number of grid points                  ...   178947
Total number of batches                      ...     2815
Average number of points per batch           ...       63
Average number of grid points per atom       ...     4709
Time for grid setup =    1.874 sec

--------------------
COSX GRID GENERATION
--------------------

GRIDX 1
-------
General Integration Accuracy     IntAcc      ... 3.816
Radial Grid Type                 RadialGrid  ... OptM3 with GC (2021)
Angular Grid (max. ang.)         AngularGrid ... 1 (Lebedev-50)
Angular grid pruning method      GridPruning ... 4 (adaptive)
Weight generation scheme         WeightScheme... Becke
Basis function cutoff            BFCut       ... 1.0000e-11
Integration weight cutoff        WCut        ... 1.0000e-14
Angular grids for H and He will be reduced by one unit
Partially contracted basis set               ... on
Rotationally invariant grid construction     ... off

Total number of grid points                  ...    22541
Total number of batches                      ...      373
Average number of points per batch           ...       60
Average number of grid points per atom       ...      593
UseSFitting                                  ... on

GRIDX 2
-------
General Integration Accuracy     IntAcc      ... 4.020
Radial Grid Type                 RadialGrid  ... OptM3 with GC (2021)
Angular Grid (max. ang.)         AngularGrid ... 2 (Lebedev-110)
Angular grid pruning method      GridPruning ... 4 (adaptive)
Weight generation scheme         WeightScheme... Becke
Basis function cutoff            BFCut       ... 1.0000e-11
Integration weight cutoff        WCut        ... 1.0000e-14
Angular grids for H and He will be reduced by one unit
Partially contracted basis set               ... on
Rotationally invariant grid construction     ... off

Total number of grid points                  ...    48104
Total number of batches                      ...      769
Average number of points per batch           ...       62
Average number of grid points per atom       ...     1266
UseSFitting                                  ... on

GRIDX 3
-------
General Integration Accuracy     IntAcc      ... 4.338
Radial Grid Type                 RadialGrid  ... OptM3 with GC (2021)
Angular Grid (max. ang.)         AngularGrid ... 3 (Lebedev-194)
Angular grid pruning method      GridPruning ... 4 (adaptive)
Weight generation scheme         WeightScheme... Becke
Basis function cutoff            BFCut       ... 1.0000e-11
Integration weight cutoff        WCut        ... 1.0000e-14
Angular grids for H and He will be reduced by one unit
Partially contracted basis set               ... on
Rotationally invariant grid construction     ... off

Total number of grid points                  ...   105141
Total number of batches                      ...     1663
Average number of points per batch           ...       63
Average number of grid points per atom       ...     2767
UseSFitting                                  ... on

Time for X-Grid setup             =    2.248 sec


--------------------
CPCM SOLVATION MODEL
--------------------
CPCM parameters:
  Epsilon                                         ...       9.8629
  Refrac                                          ...       1.4295
  Rsolv                                           ...       1.3000
  Surface type                                    ... GAUSSIAN VDW
  Epsilon function type                           ...         CPCM
Radii:
 Radius for C  used is    3.8550 Bohr (=   2.0400 Ang.)
 Radius for H  used is    2.4944 Bohr (=   1.3200 Ang.)
 Radius for O  used is    3.4469 Bohr (=   1.8240 Ang.)
 Radius for N  used is    3.5149 Bohr (=   1.8600 Ang.)
 Radius for Br used is    4.1952 Bohr (=   2.2200 Ang.)
Calculating surface                               ...        done! (  0.0s)
GEPOL surface points                              ...         2006
GEPOL Volume                                      ...    2327.2022
GEPOL Surface-area                                ...    1183.1436
Calculating surface distance matrix               ...        done! (  0.0s)
Performing Cholesky decomposition & store         ...        done! (  0.2s)
Overall time for CPCM initialization              ...                 0.2s
--------------
SCF ITERATIONS
--------------
ITER       Energy         Delta-E        Max-DP      RMS-DP      [F,P]     Damp
               ***  Starting incremental Fock matrix formation  ***
  0  -3378.0875951513   0.000000000000 0.08089856  0.00120890  0.3416942 0.7000
  1  -3378.3385469388  -0.250951787439 0.04966869  0.00079719  0.1323623 0.7000
                               ***Turning on DIIS***
  2  -3378.4358684061  -0.097321467336 0.06261119  0.00120211  0.0534649 0.0000
  3  -3378.5900738037  -0.154205397555 0.03422018  0.00057975  0.0637368 0.0000
  4  -3378.6234576442  -0.033383840522 0.01006800  0.00017156  0.0164302 0.0000
  5  -3378.6255020948  -0.002044450614 0.00354979  0.00005776  0.0086692 0.0000
                      *** Initiating the SOSCF procedure ***
                           *** Shutting down DIIS ***
                      *** Re-Reading the Fockian *** 
                      *** Removing any level shift *** 
ITER      Energy       Delta-E        Grad      Rot      Max-DP    RMS-DP
  6  -3378.62569429  -0.0001921935  0.000291  0.000291  0.001050  0.000026
               *** Restarting incremental Fock matrix formation ***
  7  -3378.62572882  -0.0000345271  0.000307  0.001228  0.001426  0.000015
  8  -3378.62572019   0.0000086223  0.000586  0.000863  0.000911  0.000009
  9  -3378.62573378  -0.0000135886  0.000066  0.000188  0.000215  0.000003
 10  -3378.62573330   0.0000004792  0.000140  0.000125  0.000143  0.000002
 11  -3378.62573389  -0.0000005879  0.000012  0.000008  0.000037  0.000000
 12  -3378.62573388   0.0000000059  0.000013  0.000004  0.000021  0.000000
                  ***Gradient check signals convergence***
              ***Rediagonalizing the Fockian in SOSCF/NRSCF***

               *****************************************************
               *                     SUCCESS                       *
               *           SCF CONVERGED AFTER  13 CYCLES          *
               *****************************************************

Old exchange energy                            =    -39.737146193 Eh
New exchange energy                            =    -39.737149586 Eh
Exchange energy change after final integration =     -0.000003392 Eh
Total energy after final integration           =  -3378.625737275 Eh
Final COS-X integration done in                =    22.876 sec

----------------
TOTAL SCF ENERGY
----------------

Total Energy       :        -3378.62573728 Eh          -91937.08030 eV

Components:
Nuclear Repulsion  :         1778.67096735 Eh           48400.09764 eV
Electronic Energy  :        -5157.29670463 Eh         -140337.17794 eV
One Electron Energy:        -8212.46273732 Eh         -223472.47220 eV
Two Electron Energy:         3055.16603269 Eh           83135.29427 eV
Max COSX asymmetry :            0.00000282 Eh               0.00008 eV
CPCM Dielectric    :           -0.02067173 Eh              -0.56251 eV

Virial components:
Potential Energy   :        -6751.61389844 Eh         -183720.75436 eV
Kinetic Energy     :         3372.98816117 Eh           91783.67406 eV
Virial Ratio       :            2.00167139


DFT components:
N(Alpha)           :       83.999835586277 electrons
N(Beta)            :       83.999835586277 electrons
N(Total)           :      167.999671172555 electrons
E(X)               :     -158.038785803277 Eh       
E(C)               :       -7.279312327912 Eh       
E(XC)              :     -165.318098131189 Eh       
DFET-embed. en.    :        0.000000000000 Eh       
CPCM Solvation Model Properties:
Surface-charge          :           -0.03088440
Charge-correction       :           -0.00006941 Eh              -0.00189 eV
Free-energy (cav+disp)  :  This term is not implemented in the current solvation scheme

---------------
SCF CONVERGENCE
---------------

  Last Energy change         ...    1.9154e-09  Tolerance :   1.0000e-08
  Last MAX-Density change    ...    3.1086e-15  Tolerance :   1.0000e-07
  Last RMS-Density change    ...    2.9387e-17  Tolerance :   5.0000e-09
  Last Orbital Gradient      ...    7.7265e-07  Tolerance :   1.0000e-05
  Last Orbital Rotation      ...    1.7959e-06  Tolerance :   1.0000e-05

             **** THE GBW FILE WAS UPDATED (NfeBr_octanol.gbw) ****
             **** DENSITY NfeBr_octanol.scfp WAS UPDATED ****
             **** ENERGY FILE WAS UPDATED (NfeBr_octanol.en.tmp) ****
             **** THE GBW FILE WAS UPDATED (NfeBr_octanol.gbw) ****
             **** DENSITY NfeBr_octanol.scfp WAS UPDATED ****
----------------
ORBITAL ENERGIES
----------------

  NO   OCC          E(Eh)            E(eV) 
   0   2.0000    -482.829495    -13138.4585 
   1   2.0000     -62.482621     -1700.2385 
   2   2.0000     -56.302834     -1532.0780 
   3   2.0000     -56.299135     -1531.9773 
   4   2.0000     -56.298997     -1531.9736 
   5   2.0000     -19.086761      -519.3772 
   6   2.0000     -19.085659      -519.3472 
   7   2.0000     -14.347517      -390.4158 
   8   2.0000     -14.346585      -390.3904 
   9   2.0000     -10.276365      -279.6341 
  10   2.0000     -10.272392      -279.5260 
  11   2.0000     -10.229377      -278.3555 
  12   2.0000     -10.207487      -277.7598 
  13   2.0000     -10.206867      -277.7430 
  14   2.0000     -10.193228      -277.3718 
  15   2.0000     -10.189532      -277.2713 
  16   2.0000     -10.186713      -277.1945 
  17   2.0000     -10.184983      -277.1475 
  18   2.0000     -10.184611      -277.1374 
  19   2.0000     -10.180332      -277.0209 
  20   2.0000     -10.177855      -276.9535 
  21   2.0000     -10.173361      -276.8312 
  22   2.0000     -10.168251      -276.6922 
  23   2.0000      -8.692429      -236.5330 
  24   2.0000      -6.523562      -177.5152 
  25   2.0000      -6.511149      -177.1774 
  26   2.0000      -6.510827      -177.1686 
  27   2.0000      -2.634604       -71.6912 
  28   2.0000      -2.631045       -71.5944 
  29   2.0000      -2.630820       -71.5882 
  30   2.0000      -2.620949       -71.3196 
  31   2.0000      -2.620941       -71.3194 
  32   2.0000      -1.041730       -28.3469 
  33   2.0000      -1.034622       -28.1535 
  34   2.0000      -0.943121       -25.6636 
  35   2.0000      -0.935887       -25.4668 
  36   2.0000      -0.878077       -23.8937 
  37   2.0000      -0.820431       -22.3251 
  38   2.0000      -0.778011       -21.1707 
  39   2.0000      -0.763991       -20.7893 
  40   2.0000      -0.757557       -20.6142 
  41   2.0000      -0.728368       -19.8199 
  42   2.0000      -0.717755       -19.5311 
  43   2.0000      -0.709694       -19.3118 
  44   2.0000      -0.676839       -18.4177 
  45   2.0000      -0.648079       -17.6351 
  46   2.0000      -0.621091       -16.9008 
  47   2.0000      -0.584264       -15.8986 
  48   2.0000      -0.558678       -15.2024 
  49   2.0000      -0.545086       -14.8326 
  50   2.0000      -0.521613       -14.1938 
  51   2.0000      -0.507308       -13.8045 
  52   2.0000      -0.494031       -13.4433 
  53   2.0000      -0.487304       -13.2602 
  54   2.0000      -0.476452       -12.9649 
  55   2.0000      -0.471737       -12.8366 
  56   2.0000      -0.466901       -12.7050 
  57   2.0000      -0.459682       -12.5086 
  58   2.0000      -0.452720       -12.3191 
  59   2.0000      -0.435059       -11.8385 
  60   2.0000      -0.424226       -11.5438 
  61   2.0000      -0.422383       -11.4936 
  62   2.0000      -0.414409       -11.2767 
  63   2.0000      -0.410889       -11.1809 
  64   2.0000      -0.402769       -10.9599 
  65   2.0000      -0.401755       -10.9323 
  66   2.0000      -0.400753       -10.9050 
  67   2.0000      -0.398304       -10.8384 
  68   2.0000      -0.389455       -10.5976 
  69   2.0000      -0.382342       -10.4041 
  70   2.0000      -0.378356       -10.2956 
  71   2.0000      -0.373208       -10.1555 
  72   2.0000      -0.365066        -9.9339 
  73   2.0000      -0.356672        -9.7055 
  74   2.0000      -0.348309        -9.4780 
  75   2.0000      -0.341109        -9.2821 
  76   2.0000      -0.313944        -8.5428 
  77   2.0000      -0.294437        -8.0120 
  78   2.0000      -0.270011        -7.3474 
  79   2.0000      -0.265232        -7.2173 
  80   2.0000      -0.263211        -7.1623 
  81   2.0000      -0.250638        -6.8202 
  82   2.0000      -0.247138        -6.7250 
  83   2.0000      -0.237546        -6.4639 
  84   0.0000      -0.021034        -0.5724 
  85   0.0000      -0.018032        -0.4907 
  86   0.0000      -0.004035        -0.1098 
  87   0.0000       0.002457         0.0669 
  88   0.0000       0.016272         0.4428 
  89   0.0000       0.044510         1.2112 
  90   0.0000       0.055288         1.5045 
  91   0.0000       0.072424         1.9708 
  92   0.0000       0.076497         2.0816 
  93   0.0000       0.089788         2.4433 
  94   0.0000       0.095371         2.5952 
  95   0.0000       0.098221         2.6727 
  96   0.0000       0.101937         2.7738 
  97   0.0000       0.110694         3.0121 
  98   0.0000       0.113325         3.0837 
  99   0.0000       0.119697         3.2571 
 100   0.0000       0.121075         3.2946 
 101   0.0000       0.133812         3.6412 
 102   0.0000       0.139674         3.8007 
 103   0.0000       0.144876         3.9423 
 104   0.0000       0.147741         4.0202 
 105   0.0000       0.154749         4.2109 
 106   0.0000       0.161335         4.3901 
 107   0.0000       0.168909         4.5963 
 108   0.0000       0.179295         4.8789 
 109   0.0000       0.180884         4.9221 
 110   0.0000       0.185975         5.0606 
 111   0.0000       0.198923         5.4130 
 112   0.0000       0.203122         5.5272 
 113   0.0000       0.210910         5.7391 
 114   0.0000       0.227923         6.2021 
 115   0.0000       0.233281         6.3479 
 116   0.0000       0.241086         6.5603 
 117   0.0000       0.244871         6.6633 
 118   0.0000       0.254922         6.9368 
 119   0.0000       0.268330         7.3016 
 120   0.0000       0.277919         7.5626 
 121   0.0000       0.283188         7.7059 
 122   0.0000       0.287303         7.8179 
 123   0.0000       0.289870         7.8878 
 124   0.0000       0.292622         7.9627 
 125   0.0000       0.303223         8.2511 
 126   0.0000       0.316865         8.6223 
 127   0.0000       0.321532         8.7493 
 128   0.0000       0.325528         8.8581 
 129   0.0000       0.338268         9.2047 
 130   0.0000       0.342086         9.3086 
 131   0.0000       0.349256         9.5037 
 132   0.0000       0.357230         9.7207 
 133   0.0000       0.367509        10.0004 
 134   0.0000       0.379357        10.3228 
 135   0.0000       0.388151        10.5621 
 136   0.0000       0.392009        10.6671 
 137   0.0000       0.396773        10.7968 
 138   0.0000       0.400663        10.9026 
 139   0.0000       0.410914        11.1815 
 140   0.0000       0.416422        11.3314 
 141   0.0000       0.425216        11.5707 
 142   0.0000       0.428323        11.6552 
 143   0.0000       0.434728        11.8296 
 144   0.0000       0.437430        11.9031 
 145   0.0000       0.442077        12.0295 
 146   0.0000       0.445905        12.1337 
 147   0.0000       0.449701        12.2370 
 148   0.0000       0.472723        12.8634 
 149   0.0000       0.479580        13.0500 
 150   0.0000       0.487028        13.2527 
 151   0.0000       0.494018        13.4429 
 152   0.0000       0.501022        13.6335 
 153   0.0000       0.506212        13.7747 
 154   0.0000       0.519472        14.1356 
 155   0.0000       0.527649        14.3581 
 156   0.0000       0.531965        14.4755 
 157   0.0000       0.540244        14.7008 
 158   0.0000       0.550665        14.9843 
 159   0.0000       0.554432        15.0868 
 160   0.0000       0.566983        15.4284 
 161   0.0000       0.567674        15.4472 
 162   0.0000       0.571639        15.5551 
 163   0.0000       0.573914        15.6170 
 164   0.0000       0.577390        15.7116 
 165   0.0000       0.583046        15.8655 
 166   0.0000       0.589579        16.0433 
 167   0.0000       0.595176        16.1956 
 168   0.0000       0.598101        16.2752 
 169   0.0000       0.603596        16.4247 
 170   0.0000       0.610294        16.6070 
 171   0.0000       0.611173        16.6309 
 172   0.0000       0.615774        16.7561 
 173   0.0000       0.618188        16.8218 
 174   0.0000       0.622424        16.9370 
 175   0.0000       0.626563        17.0496 
 176   0.0000       0.632819        17.2199 
 177   0.0000       0.640596        17.4315 
 178   0.0000       0.646121        17.5819 
 179   0.0000       0.655384        17.8339 
 180   0.0000       0.658346        17.9145 
 181   0.0000       0.668884        18.2013 
 182   0.0000       0.674045        18.3417 
 183   0.0000       0.680262        18.5109 
 184   0.0000       0.686241        18.6736 
 185   0.0000       0.688385        18.7319 
 186   0.0000       0.703462        19.1422 
 187   0.0000       0.715165        19.4606 
 188   0.0000       0.732424        19.9303 
 189   0.0000       0.740442        20.1484 
 190   0.0000       0.756785        20.5932 
 191   0.0000       0.763090        20.7647 
 192   0.0000       0.776505        21.1298 
 193   0.0000       0.778345        21.1798 
 194   0.0000       0.796831        21.6829 
 195   0.0000       0.803568        21.8662 
 196   0.0000       0.815125        22.1807 
 197   0.0000       0.824197        22.4275 
 198   0.0000       0.836759        22.7694 
 199   0.0000       0.845220        22.9996 
 200   0.0000       0.847561        23.0633 
 201   0.0000       0.872257        23.7353 
 202   0.0000       0.889601        24.2073 
 203   0.0000       0.897262        24.4157 
 204   0.0000       0.923142        25.1200 
 205   0.0000       0.935618        25.4595 
 206   0.0000       0.942792        25.6547 
 207   0.0000       0.947684        25.7878 
 208   0.0000       0.962446        26.1895 
 209   0.0000       0.973947        26.5024 
 210   0.0000       0.991928        26.9917 
 211   0.0000       0.993328        27.0298 
 212   0.0000       1.013446        27.5773 
 213   0.0000       1.017877        27.6978 
 214   0.0000       1.043634        28.3987 
 215   0.0000       1.055367        28.7180 
 216   0.0000       1.070302        29.1244 
 217   0.0000       1.078490        29.3472 
 218   0.0000       1.080304        29.3966 
 219   0.0000       1.105691        30.0874 
 220   0.0000       1.113527        30.3006 
 221   0.0000       1.136324        30.9209 
 222   0.0000       1.146921        31.2093 
 223   0.0000       1.162100        31.6223 
 224   0.0000       1.172027        31.8925 
 225   0.0000       1.193828        32.4857 
 226   0.0000       1.201812        32.7030 
 227   0.0000       1.215928        33.0871 
 228   0.0000       1.223270        33.2869 
 229   0.0000       1.241259        33.7764 
 230   0.0000       1.270798        34.5802 
 231   0.0000       1.274947        34.6931 
 232   0.0000       1.283507        34.9260 
 233   0.0000       1.289628        35.0926 
 234   0.0000       1.314905        35.7804 
 235   0.0000       1.333818        36.2950 
 236   0.0000       1.390817        37.8461 
 237   0.0000       1.418689        38.6045 
 238   0.0000       1.436171        39.0802 
 239   0.0000       1.442833        39.2615 
 240   0.0000       1.458676        39.6926 
 241   0.0000       1.471989        40.0549 
 242   0.0000       1.486160        40.4405 
 243   0.0000       1.488304        40.4988 
 244   0.0000       1.516236        41.2589 
 245   0.0000       1.519242        41.3407 
 246   0.0000       1.536866        41.8202 
 247   0.0000       1.539788        41.8998 
 248   0.0000       1.548189        42.1284 
 249   0.0000       1.557408        42.3792 
 250   0.0000       1.562261        42.5113 
 251   0.0000       1.572827        42.7988 
 252   0.0000       1.578565        42.9549 
 253   0.0000       1.589755        43.2594 
 254   0.0000       1.595342        43.4115 
 255   0.0000       1.606918        43.7265 
 256   0.0000       1.622751        44.1573 
 257   0.0000       1.633301        44.4444 
 258   0.0000       1.646768        44.8108 
 259   0.0000       1.669860        45.4392 
 260   0.0000       1.671783        45.4915 
 261   0.0000       1.684677        45.8424 
 262   0.0000       1.702632        46.3310 
 263   0.0000       1.706522        46.4368 
 264   0.0000       1.725561        46.9549 
 265   0.0000       1.729378        47.0588 
 266   0.0000       1.734084        47.1868 
 267   0.0000       1.754084        47.7311 
 268   0.0000       1.767493        48.0959 
 269   0.0000       1.774041        48.2741 
 270   0.0000       1.784624        48.5621 
 271   0.0000       1.792459        48.7753 
 272   0.0000       1.807231        49.1773 
 273   0.0000       1.819245        49.5042 
 274   0.0000       1.834207        49.9113 
 275   0.0000       1.851022        50.3689 
 276   0.0000       1.866488        50.7897 
 277   0.0000       1.895074        51.5676 
 278   0.0000       1.905820        51.8600 
 279   0.0000       1.911470        52.0138 
 280   0.0000       1.926605        52.4256 
 281   0.0000       1.933499        52.6132 
 282   0.0000       1.938669        52.7539 
 283   0.0000       1.944339        52.9081 
 284   0.0000       1.957137        53.2564 
 285   0.0000       1.976256        53.7767 
 286   0.0000       1.982242        53.9396 
 287   0.0000       2.016354        54.8678 
 288   0.0000       2.074007        56.4366 
 289   0.0000       2.094530        56.9951 
 290   0.0000       2.134103        58.0719 
 291   0.0000       2.144172        58.3459 
 292   0.0000       2.175414        59.1960 
 293   0.0000       2.202845        59.9425 
 294   0.0000       2.236546        60.8595 
 295   0.0000       2.262740        61.5723 
 296   0.0000       2.279420        62.0262 
 297   0.0000       2.280210        62.0477 
 298   0.0000       2.291115        62.3444 
 299   0.0000       2.306857        62.7728 
 300   0.0000       2.322223        63.1909 
 301   0.0000       2.326791        63.3152 
 302   0.0000       2.334564        63.5267 
 303   0.0000       2.342169        63.7337 
 304   0.0000       2.356714        64.1294 
 305   0.0000       2.374422        64.6113 
 306   0.0000       2.394738        65.1641 
 307   0.0000       2.403461        65.4015 
 308   0.0000       2.419578        65.8401 
 309   0.0000       2.427251        66.0489 
 310   0.0000       2.453089        66.7519 
 311   0.0000       2.459214        66.9186 
 312   0.0000       2.463362        67.0315 
 313   0.0000       2.494757        67.8858 
 314   0.0000       2.502553        68.0979 
 315   0.0000       2.515688        68.4554 
 316   0.0000       2.538362        69.0723 
 317   0.0000       2.543360        69.2084 
 318   0.0000       2.558607        69.6232 
 319   0.0000       2.581540        70.2473 
 320   0.0000       2.591468        70.5174 
 321   0.0000       2.629068        71.5406 
 322   0.0000       2.649570        72.0985 
 323   0.0000       2.671679        72.7001 
 324   0.0000       2.692984        73.2798 
 325   0.0000       2.721948        74.0680 
 326   0.0000       2.727921        74.2305 
 327   0.0000       2.748699        74.7959 
 328   0.0000       2.773545        75.4720 
 329   0.0000       2.794069        76.0305 
 330   0.0000       2.812090        76.5208 
 331   0.0000       2.842194        77.3400 
 332   0.0000       2.845236        77.4228 
 333   0.0000       2.856920        77.7408 
 334   0.0000       2.877275        78.2946 
[...]
    107      -0.003213  -0.008660   0.651973   0.109031  -0.000038  -0.000318
    108      -0.000801  -0.002409   0.182948   0.028019  -0.000087  -0.000011
    109       0.000564   0.001705  -0.126300  -0.018081   0.000062  -0.000007
    110      -0.000374  -0.001137   0.085257   0.012860  -0.000045   0.000006
    111       0.000001  -0.000003   0.000000  -0.000000   0.000048  -0.000085
    112      -0.000007  -0.000003   0.000000   0.000001   0.000003  -0.000002
    113      -0.000004  -0.000001  -0.000000  -0.000001   0.000006  -0.000008


-----------
IR SPECTRUM
-----------

 Mode   freq       eps      Int      T**2         TX        TY        TZ
       cm**-1   L/(mol*cm) km/mol    a.u.
----------------------------------------------------------------------------
  6:     19.13   0.000110    0.55  0.001789  ( 0.031366  0.027470  0.007121)
  7:     30.19   0.000046    0.23  0.000478  (-0.004096 -0.021018 -0.004465)
  8:     35.65   0.000325    1.64  0.002842  ( 0.048862 -0.001428  0.021280)
  9:     51.80   0.000766    3.87  0.004614  ( 0.051428  0.004599 -0.044141)
 10:     66.97   0.001162    5.87  0.005416  ( 0.033493 -0.049292 -0.043180)
 11:     76.42   0.001069    5.40  0.004365  ( 0.038541 -0.048764 -0.022392)
 12:     88.08   0.000067    0.34  0.000239  (-0.013863 -0.000062 -0.006850)
 13:    104.15   0.001587    8.02  0.004757  (-0.002822  0.037936 -0.057528)
 14:    112.74   0.001415    7.15  0.003917  ( 0.002082  0.050603 -0.036775)
 15:    125.25   0.000475    2.40  0.001184  (-0.011096  0.031376 -0.008728)
 16:    149.21   0.000594    3.00  0.001243  (-0.007883  0.032201 -0.012013)
 17:    162.38   0.000277    1.40  0.000532  (-0.006084  0.020360  0.008943)
 18:    166.68   0.000021    0.10  0.000039  ( 0.003486 -0.004624 -0.002291)
 19:    215.02   0.000215    1.09  0.000312  (-0.014872  0.005973  0.007418)
 20:    217.94   0.000018    0.09  0.000026  (-0.002288  0.003778  0.002466)
 21:    254.78   0.001396    7.05  0.001710  (-0.025454  0.029103  0.014653)
 22:    277.48   0.002652   13.40  0.002982  ( 0.042509 -0.033979  0.004522)
 23:    283.76   0.000072    0.37  0.000080  (-0.003208  0.008095  0.001941)
 24:    337.37   0.000659    3.33  0.000610  (-0.000221  0.007277 -0.023594)
 25:    357.63   0.000596    3.01  0.000520  ( 0.016258  0.015989  0.000569)
 26:    364.17   0.002270   11.47  0.001945  ( 0.026703 -0.009156  0.033889)
 27:    383.21   0.001623    8.20  0.001322  (-0.025749 -0.025481  0.003060)
 28:    392.53   0.002860   14.45  0.002274  (-0.023489 -0.026141  0.032227)
 29:    417.19   0.000022    0.11  0.000016  (-0.003653 -0.001060  0.001345)
 30:    433.01   0.000192    0.97  0.000138  (-0.003442  0.010541 -0.003883)
 31:    460.81   0.002951   14.91  0.001998  (-0.041902 -0.014077  0.006655)
 32:    499.23   0.004065   20.54  0.002541  ( 0.026310 -0.041646 -0.010694)
 33:    518.16   0.008528   43.10  0.005136  (-0.003673 -0.018177  0.069227)
 34:    579.39   0.004090   20.67  0.002203  (-0.009662 -0.040646  0.021386)
 35:    598.15   0.000760    3.84  0.000397  ( 0.009130  0.017509 -0.002612)
 36:    612.80   0.003652   18.45  0.001860  (-0.021412 -0.012880  0.035145)
 37:    645.27   0.000045    0.23  0.000022  (-0.001974 -0.002932 -0.003058)
 38:    654.34   0.005263   26.60  0.002510  (-0.041453 -0.009655 -0.026432)
 39:    699.98   0.000361    1.82  0.000161  ( 0.008701 -0.002012  0.009006)
 40:    727.72   0.001352    6.83  0.000580  ( 0.010292  0.012596 -0.017751)
 41:    761.72   0.004123   20.84  0.001689  ( 0.001084 -0.030202  0.027853)
 42:    775.85   0.002329   11.77  0.000937  ( 0.017542 -0.022756 -0.010538)
 43:    813.26   0.007911   39.98  0.003036  ( 0.046288 -0.006535  0.029162)
 44:    821.79   0.006586   33.28  0.002501  ( 0.000361  0.024650 -0.043511)
 45:    837.48   0.000106    0.53  0.000039  ( 0.000243 -0.000573  0.006242)
 46:    865.51   0.005023   25.38  0.001811  ( 0.008297  0.017127 -0.038064)
 47:    955.02   0.000569    2.88  0.000186  (-0.009514  0.003229 -0.009217)
 48:    961.96   0.000257    1.30  0.000083  ( 0.007070 -0.003140  0.004854)
 49:    972.82   0.000004    0.02  0.000001  ( 0.000943 -0.000348  0.000633)
 50:    996.95   0.005287   26.72  0.001655  (-0.021064  0.010231 -0.033265)
 51:   1004.48   0.009100   45.99  0.002827  ( 0.038810  0.029782 -0.020830)
 52:   1023.02   0.014571   73.63  0.004445  (-0.066632 -0.001028 -0.001951)
 53:   1027.10   0.009899   50.03  0.003008  ( 0.029876  0.042658  0.017188)
 54:   1030.24   0.004710   23.80  0.001427  ( 0.016248  0.006154 -0.033536)
 55:   1057.91   0.002092   10.57  0.000617  (-0.002078  0.011370 -0.021989)
 56:   1081.56   0.005710   28.86  0.001648  ( 0.040363  0.001733  0.003912)
 57:   1084.07   0.003427   17.32  0.000986  ( 0.021995  0.021459  0.006499)
 58:   1093.60   0.002483   12.55  0.000709  ( 0.011229 -0.005471  0.023508)
 59:   1131.54   0.000441    2.23  0.000122  ( 0.001208  0.010635  0.002681)
 60:   1135.24   0.002433   12.30  0.000669  (-0.009944 -0.009591 -0.021862)
 61:   1166.18   0.014735   74.47  0.003943  (-0.039509  0.025014 -0.041909)
 62:   1179.32   0.000493    2.49  0.000130  ( 0.006492 -0.000904  0.009350)
 63:   1204.10   0.000073    0.37  0.000019  (-0.003981  0.000764 -0.001611)
 64:   1212.53   0.010395   52.53  0.002675  (-0.000785 -0.021892 -0.046855)
 65:   1230.74   0.005252   26.54  0.001332  ( 0.029654  0.020172  0.006747)
 66:   1245.47   0.013388   67.66  0.003355  ( 0.036364  0.044144  0.009139)
 67:   1278.26   0.008944   45.20  0.002184  (-0.009269 -0.022554  0.039862)
 68:   1287.25   0.034611  174.91  0.008391  (-0.021694 -0.085068 -0.026141)
 69:   1321.14   0.000620    3.13  0.000146  ( 0.010024  0.006716 -0.000877)
 70:   1330.74   0.000387    1.96  0.000091  (-0.007367 -0.006028 -0.000390)
 71:   1332.19   0.001799    9.09  0.000421  ( 0.013406  0.015477 -0.001457)
 72:   1355.21   0.001210    6.12  0.000279  (-0.012254 -0.011338 -0.000165)
 73:   1368.27   0.000606    3.06  0.000138  ( 0.006327 -0.002118  0.009678)
 74:   1396.84   0.009106   46.02  0.002034  (-0.040892  0.010823  0.015652)
 75:   1403.18   0.010565   53.39  0.002350  (-0.037964 -0.028751 -0.009045)
 76:   1432.82   0.019276   97.41  0.004198  (-0.015029  0.030842 -0.054964)
 77:   1438.21   0.001973    9.97  0.000428  (-0.002516 -0.018300 -0.009324)
 78:   1446.84   0.012991   65.65  0.002802  ( 0.005297  0.048282 -0.021045)
 79:   1463.30   0.047630  240.70  0.010158  (-0.067326 -0.070519 -0.025533)
 80:   1472.95   0.004335   21.91  0.000919  ( 0.027059 -0.013530 -0.001804)
 81:   1479.96   0.001028    5.19  0.000217  ( 0.013282  0.005117 -0.003760)
 82:   1490.39   0.002750   13.90  0.000576  ( 0.009564  0.005966  0.021185)
 83:   1495.61   0.004378   22.13  0.000914  ( 0.005534 -0.021932 -0.020046)
 84:   1500.12   0.001883    9.52  0.000392  ( 0.009619  0.017138 -0.002333)
 85:   1502.25   0.002693   13.61  0.000559  (-0.000006  0.023330 -0.003885)
 86:   1511.15   0.003394   17.15  0.000701  ( 0.023099 -0.012451 -0.003494)
 87:   1520.87   0.006913   34.93  0.001418  (-0.037087  0.006014 -0.002605)
 88:   1521.44   0.021366  107.97  0.004382  ( 0.066178 -0.000807  0.001452)
 89:   1523.17   0.007884   39.84  0.001615  ( 0.003658  0.013411  0.037710)
 90:   1545.85   0.018264   92.30  0.003687  (-0.004739 -0.038196  0.046963)
 91:   1615.23   0.000158    0.80  0.000030  (-0.000767 -0.005037 -0.002119)
 92:   1632.87   0.000535    2.70  0.000102  ( 0.009948 -0.000261  0.001799)
 93:   1675.74   0.215193  1087.50  0.040074  ( 0.159715  0.052203  0.108814)
 94:   1680.79   0.049925  252.30  0.009269  (-0.075104  0.006917  0.059841)
 95:   3018.42   0.005639   28.49  0.000583  (-0.014478 -0.019255  0.001607)
 96:   3023.24   0.020576  103.98  0.002124  (-0.003419 -0.001280  0.045940)
 97:   3049.68   0.000959    4.84  0.000098  (-0.007014  0.006972 -0.000541)
 98:   3061.59   0.002466   12.46  0.000251  ( 0.008478  0.006493  0.011718)
 99:   3070.93   0.003833   19.37  0.000389  (-0.008166  0.009492  0.015255)
100:   3074.60   0.016214   81.94  0.001646  ( 0.021933 -0.001468  0.034095)
101:   3079.97   0.016859   85.20  0.001708  ( 0.033570 -0.024040  0.001808)
102:   3082.49   0.003927   19.85  0.000398  ( 0.015382 -0.012673  0.000626)
103:   3104.11   0.000293    1.48  0.000029  ( 0.001851 -0.005096  0.000286)
104:   3113.73   0.002865   14.48  0.000287  ( 0.001377  0.003783 -0.016459)
105:   3124.79   0.008903   44.99  0.000889  (-0.001668  0.028963  0.006892)
106:   3149.19   0.001974    9.98  0.000196  (-0.001863  0.012602 -0.005774)
107:   3151.41   0.003774   19.07  0.000374  (-0.017359 -0.007872 -0.003222)
108:   3169.90   0.003342   16.89  0.000329  (-0.006513 -0.014843 -0.008144)
109:   3170.70   0.001999   10.10  0.000197  ( 0.013049 -0.005109 -0.000579)
110:   3174.20   0.001270    6.42  0.000125  (-0.003965 -0.008966 -0.005362)
111:   3177.04   0.000556    2.81  0.000055  (-0.006877  0.001924  0.001893)
112:   3201.83   0.001648    8.33  0.000161  (-0.001745  0.011125  0.005817)
113:   3203.98   0.000432    2.18  0.000042  ( 0.001570  0.005785  0.002476)

* The epsilon (eps) is given for a Dirac delta lineshape.
** The dipole moment derivative (T) already includes vibrational overlap.

The first frequency considered to be a vibration is 6
The total number of vibrations considered is 108


--------------------------
THERMOCHEMISTRY AT 298.15K
--------------------------

Temperature         ... 298.15 K
Pressure            ... 1.00 atm
Total Mass          ... 327.22 AMU

Throughout the following assumptions are being made:
  (1) The electronic state is orbitally nondegenerate
  (2) There are no thermally accessible electronically excited states
  (3) Hindered rotations indicated by low frequency modes are not
      treated as such but are treated as vibrations and this may
      cause some error
  (4) All equations used are the standard statistical mechanics
      equations for an ideal gas
  (5) All vibrations are strictly harmonic

freq.      19.13  E(vib)   ...       0.57 
freq.      30.19  E(vib)   ...       0.55 
freq.      35.65  E(vib)   ...       0.54 
freq.      51.80  E(vib)   ...       0.52 
freq.      66.97  E(vib)   ...       0.50 
freq.      76.42  E(vib)   ...       0.49 
freq.      88.08  E(vib)   ...       0.48 
freq.     104.15  E(vib)   ...       0.46 
freq.     112.74  E(vib)   ...       0.45 
freq.     125.25  E(vib)   ...       0.43 
freq.     149.21  E(vib)   ...       0.40 
freq.     162.38  E(vib)   ...       0.39 
freq.     166.68  E(vib)   ...       0.39 
freq.     215.02  E(vib)   ...       0.34 
freq.     217.94  E(vib)   ...       0.33 
freq.     254.78  E(vib)   ...       0.30 
freq.     277.48  E(vib)   ...       0.28 
freq.     283.76  E(vib)   ...       0.28 
freq.     337.37  E(vib)   ...       0.24 
freq.     357.63  E(vib)   ...       0.22 
freq.     364.17  E(vib)   ...       0.22 
freq.     383.21  E(vib)   ...       0.20 
freq.     392.53  E(vib)   ...       0.20 
freq.     417.19  E(vib)   ...       0.18 
freq.     433.01  E(vib)   ...       0.17 
freq.     460.81  E(vib)   ...       0.16 
freq.     499.23  E(vib)   ...       0.14 
freq.     518.16  E(vib)   ...       0.13 
freq.     579.39  E(vib)   ...       0.11 
freq.     598.15  E(vib)   ...       0.10 
freq.     612.80  E(vib)   ...       0.10 
freq.     645.27  E(vib)   ...       0.09 
freq.     654.34  E(vib)   ...       0.08 
freq.     699.98  E(vib)   ...       0.07 
freq.     727.72  E(vib)   ...       0.06 
freq.     761.72  E(vib)   ...       0.06 
freq.     775.85  E(vib)   ...       0.05 
freq.     813.26  E(vib)   ...       0.05 
freq.     821.79  E(vib)   ...       0.05 
freq.     837.48  E(vib)   ...       0.04 
freq.     865.51  E(vib)   ...       0.04 
freq.     955.02  E(vib)   ...       0.03 
freq.     961.96  E(vib)   ...       0.03 
freq.     972.82  E(vib)   ...       0.03 
freq.     996.95  E(vib)   ...       0.02 
freq.    1004.48  E(vib)   ...       0.02 
freq.    1023.02  E(vib)   ...       0.02 
freq.    1027.10  E(vib)   ...       0.02 
freq.    1030.24  E(vib)   ...       0.02 
freq.    1057.91  E(vib)   ...       0.02 
freq.    1081.56  E(vib)   ...       0.02 
freq.    1084.07  E(vib)   ...       0.02 
freq.    1093.60  E(vib)   ...       0.02 
freq.    1131.54  E(vib)   ...       0.01 
freq.    1135.24  E(vib)   ...       0.01 
freq.    1166.18  E(vib)   ...       0.01 
freq.    1179.32  E(vib)   ...       0.01 
freq.    1204.10  E(vib)   ...       0.01 
freq.    1212.53  E(vib)   ...       0.01 
freq.    1230.74  E(vib)   ...       0.01 
freq.    1245.47  E(vib)   ...       0.01 
freq.    1278.26  E(vib)   ...       0.01 
freq.    1287.25  E(vib)   ...       0.01 
freq.    1321.14  E(vib)   ...       0.01 
freq.    1330.74  E(vib)   ...       0.01 
freq.    1332.19  E(vib)   ...       0.01 
freq.    1355.21  E(vib)   ...       0.01 
freq.    1368.27  E(vib)   ...       0.01 
freq.    1396.84  E(vib)   ...       0.00 
freq.    1403.18  E(vib)   ...       0.00 
freq.    1432.82  E(vib)   ...       0.00 
freq.    1438.21  E(vib)   ...       0.00 
freq.    1446.84  E(vib)   ...       0.00 
freq.    1463.30  E(vib)   ...       0.00 
freq.    1472.95  E(vib)   ...       0.00 
freq.    1479.96  E(vib)   ...       0.00 
freq.    1490.39  E(vib)   ...       0.00 
freq.    1495.61  E(vib)   ...       0.00 
freq.    1500.12  E(vib)   ...       0.00 
freq.    1502.25  E(vib)   ...       0.00 
freq.    1511.15  E(vib)   ...       0.00 
freq.    1520.87  E(vib)   ...       0.00 
freq.    1521.44  E(vib)   ...       0.00 
freq.    1523.17  E(vib)   ...       0.00 
freq.    1545.85  E(vib)   ...       0.00 
freq.    1615.23  E(vib)   ...       0.00 
freq.    1632.87  E(vib)   ...       0.00 
freq.    1675.74  E(vib)   ...       0.00 
freq.    1680.79  E(vib)   ...       0.00 
freq.    3018.42  E(vib)   ...       0.00 
freq.    3023.24  E(vib)   ...       0.00 
freq.    3049.68  E(vib)   ...       0.00 
freq.    3061.59  E(vib)   ...       0.00 
freq.    3070.93  E(vib)   ...       0.00 
freq.    3074.60  E(vib)   ...       0.00 
freq.    3079.97  E(vib)   ...       0.00 
freq.    3082.49  E(vib)   ...       0.00 
freq.    3104.11  E(vib)   ...       0.00 
freq.    3113.73  E(vib)   ...       0.00 
freq.    3124.79  E(vib)   ...       0.00 
freq.    3149.19  E(vib)   ...       0.00 
freq.    3151.41  E(vib)   ...       0.00 
freq.    3169.90  E(vib)   ...       0.00 
freq.    3170.70  E(vib)   ...       0.00 
freq.    3174.20  E(vib)   ...       0.00 
freq.    3177.04  E(vib)   ...       0.00 
freq.    3201.83  E(vib)   ...       0.00 
freq.    3203.98  E(vib)   ...       0.00 

------------
INNER ENERGY
------------

The inner energy is: U= E(el) + E(ZPE) + E(vib) + E(rot) + E(trans)
    E(el)   - is the total energy from the electronic structure calculation
              = E(kin-el) + E(nuc-el) + E(el-el) + E(nuc-nuc)
    E(ZPE)  - the the zero temperature vibrational energy from the frequency calculation
    E(vib)  - the the finite temperature correction to E(ZPE) due to population
              of excited vibrational states
    E(rot)  - is the rotational thermal energy
    E(trans)- is the translational thermal energy

Summary of contributions to the inner energy U:
Electronic energy                ...  -3378.70332033 Eh
Zero point energy                ...      0.31441563 Eh     197.30 kcal/mol
Thermal vibrational correction   ...      0.01738725 Eh      10.91 kcal/mol
Thermal rotational correction    ...      0.00141627 Eh       0.89 kcal/mol
Thermal translational correction ...      0.00141627 Eh       0.89 kcal/mol
-----------------------------------------------------------------------
Total thermal energy                  -3378.36868490 Eh


Summary of corrections to the electronic energy:
(perhaps to be used in another calculation)
Total thermal correction                  0.02021979 Eh      12.69 kcal/mol
Non-thermal (ZPE) correction              0.31441563 Eh     197.30 kcal/mol
-----------------------------------------------------------------------
Total correction                          0.33463542 Eh     209.99 kcal/mol


--------
ENTHALPY
--------

The enthalpy is H = U + kB*T
                kB is Boltzmann's constant
Total free energy                 ...  -3378.36868490 Eh 
Thermal Enthalpy correction       ...      0.00094421 Eh       0.59 kcal/mol
-----------------------------------------------------------------------
Total Enthalpy                    ...  -3378.36774069 Eh


Note: Only C1 symmetry has been detected, increase convergence thresholds 
      if your molecule has a higher symmetry. Symmetry factor of 1.0 is   
      used for the rotational entropy correction. 
 

Note: Rotational entropy computed according to Herzberg 
Infrared and Raman Spectra, Chapter V,1, Van Nostrand Reinhold, 1945 
Point Group:  C1, Symmetry Number:   1  
Rotational constants in cm-1:     0.019343     0.003592     0.003233 

Vibrational entropy computed according to the QRRHO of S. Grimme
Chem.Eur.J. 2012 18 9955


-------
ENTROPY
-------

The entropy contributions are T*S = T*(S(el)+S(vib)+S(rot)+S(trans))
     S(el)   - electronic entropy
     S(vib)  - vibrational entropy
     S(rot)  - rotational entropy
     S(trans)- translational entropy
The entropies will be listed as multiplied by the temperature to get
units of energy

Electronic entropy                ...      0.00000000 Eh      0.00 kcal/mol
Vibrational entropy               ...      0.03158689 Eh     19.82 kcal/mol
Rotational entropy                ...      0.01673802 Eh     10.50 kcal/mol
Translational entropy             ...      0.02055017 Eh     12.90 kcal/mol
-----------------------------------------------------------------------
Final entropy term                ...      0.06887508 Eh     43.22 kcal/mol

In case the symmetry of your molecule has not been determined correctly
or in case you have a reason to use a different symmetry number we print 
out the resulting rotational entropy values for sn=1,12 :
 --------------------------------------------------------
|  sn= 1 | S(rot)=       0.01673802 Eh     10.50 kcal/mol|
|  sn= 2 | S(rot)=       0.01608356 Eh     10.09 kcal/mol|
|  sn= 3 | S(rot)=       0.01570073 Eh      9.85 kcal/mol|
|  sn= 4 | S(rot)=       0.01542910 Eh      9.68 kcal/mol|
|  sn= 5 | S(rot)=       0.01521842 Eh      9.55 kcal/mol|
|  sn= 6 | S(rot)=       0.01504627 Eh      9.44 kcal/mol|
|  sn= 7 | S(rot)=       0.01490072 Eh      9.35 kcal/mol|
|  sn= 8 | S(rot)=       0.01477465 Eh      9.27 kcal/mol|
|  sn= 9 | S(rot)=       0.01466344 Eh      9.20 kcal/mol|
|  sn=10 | S(rot)=       0.01456396 Eh      9.14 kcal/mol|
|  sn=11 | S(rot)=       0.01447397 Eh      9.08 kcal/mol|
|  sn=12 | S(rot)=       0.01439181 Eh      9.03 kcal/mol|
 --------------------------------------------------------


-------------------
GIBBS FREE ENERGY
-------------------

The Gibbs free energy is G = H - T*S

Total enthalpy                    ...  -3378.36774069 Eh 
Total entropy correction          ...     -0.06887508 Eh    -43.22 kcal/mol
-----------------------------------------------------------------------
Final Gibbs free energy         ...  -3378.43661577 Eh

For completeness - the Gibbs free energy minus the electronic energy
G-E(el)                           ...      0.26670456 Eh    167.36 kcal/mol


Timings for individual modules:

Sum of individual times         ...     4126.393 sec (=  68.773 min)
GTO integral calculation        ...       32.904 sec (=   0.548 min)   0.8 %
SCF iterations                  ...     1858.601 sec (=  30.977 min)  45.0 %
SCF Gradient evaluation         ...      559.236 sec (=   9.321 min)  13.6 %
Geometry relaxation             ...        1.175 sec (=   0.020 min)   0.0 %
Analytical frequency calculation...     1674.476 sec (=  27.908 min)  40.6 %
                             ****ORCA TERMINATED NORMALLY****
TOTAL RUN TIME: 0 days 1 hours 8 minutes 52 seconds 285 msec
