
                                 *****************
                                 * O   R   C   A *
                                 *****************

                                            #,                                       
                                            ###                                      
                                            ####                                     
                                            #####                                    
                                            ######                                   
                                           ########,                                 
                                     ,,################,,,,,                         
                               ,,#################################,,                 
                          ,,##########################################,,             
                       ,#########################################, ''#####,          
                    ,#############################################,,   '####,        
                  ,##################################################,,,,####,       
                ,###########''''           ''''###############################       
              ,#####''   ,,,,##########,,,,          '''####'''          '####       
            ,##' ,,,,###########################,,,                        '##       
           ' ,,###''''                  '''############,,,                           
         ,,##''                                '''############,,,,        ,,,,,,###''
      ,#''                                            '''#######################'''  
     '                                                          ''''####''''         
             ,#######,   #######,   ,#######,      ##                                
            ,#'     '#,  ##    ##  ,#'     '#,    #''#        ######   ,####,        
            ##       ##  ##   ,#'  ##            #'  '#       #        #'  '#        
            ##       ##  #######   ##           ,######,      #####,   #    #        
            '#,     ,#'  ##    ##  '#,     ,#' ,#      #,         ##   #,  ,#        
             '#######'   ##     ##  '#######'  #'      '#     #####' # '####'        



                  #######################################################
                  #                        -***-                        #
                  #          Department of theory and spectroscopy      #
                  #    Directorship and core code : Frank Neese         #
                  #        Max Planck Institute fuer Kohlenforschung    #
                  #                Kaiser Wilhelm Platz 1               #
                  #                 D-45470 Muelheim/Ruhr               #
                  #                      Germany                        #
                  #                                                     #
                  #                  All rights reserved                #
                  #                        -***-                        #
                  #######################################################


                         Program Version 5.0.4 -  RELEASE  -


 With contributions from (in alphabetic order):
   Daniel Aravena         : Magnetic Suceptibility
   Michael Atanasov       : Ab Initio Ligand Field Theory (pilot matlab implementation)
   Alexander A. Auer      : GIAO ZORA, VPT2 properties, NMR spectrum
   Ute Becker             : Parallelization
   Giovanni Bistoni       : ED, misc. LED, open-shell LED, HFLD
   Martin Brehm           : Molecular dynamics
   Dmytro Bykov           : SCF Hessian
   Vijay G. Chilkuri      : MRCI spin determinant printing, contributions to CSF-ICE
   Dipayan Datta          : RHF DLPNO-CCSD density
   Achintya Kumar Dutta   : EOM-CC, STEOM-CC
   Dmitry Ganyushin       : Spin-Orbit,Spin-Spin,Magnetic field MRCI
   Miquel Garcia          : C-PCM and meta-GGA Hessian, CC/C-PCM, Gaussian charge scheme
   Yang Guo               : DLPNO-NEVPT2, F12-NEVPT2, CIM, IAO-localization
   Andreas Hansen         : Spin unrestricted coupled pair/coupled cluster methods
   Benjamin Helmich-Paris : MC-RPA, TRAH-SCF, COSX integrals
   Lee Huntington         : MR-EOM, pCC
   Robert Izsak           : Overlap fitted RIJCOSX, COSX-SCS-MP3, EOM
   Marcus Kettner         : VPT2
   Christian Kollmar      : KDIIS, OOCD, Brueckner-CCSD(T), CCSD density, CASPT2, CASPT2-K
   Simone Kossmann        : Meta GGA functionals, TD-DFT gradient, OOMP2, MP2 Hessian
   Martin Krupicka        : Initial AUTO-CI
   Lucas Lang             : DCDCAS
   Marvin Lechner         : AUTO-CI (C++ implementation), FIC-MRCC
   Dagmar Lenk            : GEPOL surface, SMD
   Dimitrios Liakos       : Extrapolation schemes; Compound Job, initial MDCI parallelization
   Dimitrios Manganas     : Further ROCIS development; embedding schemes
   Dimitrios Pantazis     : SARC Basis sets
   Anastasios Papadopoulos: AUTO-CI, single reference methods and gradients
   Taras Petrenko         : DFT Hessian,TD-DFT gradient, ASA, ECA, R-Raman, ABS, FL, XAS/XES, NRVS
   Peter Pinski           : DLPNO-MP2, DLPNO-MP2 Gradient
   Christoph Reimann      : Effective Core Potentials
   Marius Retegan         : Local ZFS, SOC
   Christoph Riplinger    : Optimizer, TS searches, QM/MM, DLPNO-CCSD(T), (RO)-DLPNO pert. Triples
   Tobias Risthaus        : Range-separated hybrids, TD-DFT gradient, RPA, STAB
   Michael Roemelt        : Original ROCIS implementation
   Masaaki Saitow         : Open-shell DLPNO-CCSD energy and density
   Barbara Sandhoefer     : DKH picture change effects
   Avijit Sen             : IP-ROCIS
   Kantharuban Sivalingam : CASSCF convergence, NEVPT2, FIC-MRCI
   Bernardo de Souza      : ESD, SOC TD-DFT
   Georgi Stoychev        : AutoAux, RI-MP2 NMR, DLPNO-MP2 response
   Willem Van den Heuvel  : Paramagnetic NMR
   Boris Wezisla          : Elementary symmetry handling
   Frank Wennmohs         : Technical directorship


 We gratefully acknowledge several colleagues who have allowed us to
 interface, adapt or use parts of their codes:
   Stefan Grimme, W. Hujo, H. Kruse, P. Pracht,  : VdW corrections, initial TS optimization,
                  C. Bannwarth, S. Ehlert          DFT functionals, gCP, sTDA/sTD-DF
   Ed Valeev, F. Pavosevic, A. Kumar             : LibInt (2-el integral package), F12 methods
   Garnet Chan, S. Sharma, J. Yang, R. Olivares  : DMRG
   Ulf Ekstrom                                   : XCFun DFT Library
   Mihaly Kallay                                 : mrcc  (arbitrary order and MRCC methods)
   Jiri Pittner, Ondrej Demel                    : Mk-CCSD
   Frank Weinhold                                : gennbo (NPA and NBO analysis)
   Christopher J. Cramer and Donald G. Truhlar   : smd solvation model
   Lars Goerigk                                  : TD-DFT with DH, B97 family of functionals
   V. Asgeirsson, H. Jonsson                     : NEB implementation
   FAccTs GmbH                                   : IRC, NEB, NEB-TS, DLPNO-Multilevel, CI-OPT
                                                   MM, QMMM, 2- and 3-layer-ONIOM, Crystal-QMMM,
                                                   LR-CPCM, SF, NACMEs, symmetry and pop. for TD-DFT,
                                                   nearIR, NL-DFT gradient (VV10), updates on ESD,
                                                   ML-optimized integration grids
   S Lehtola, MJT Oliveira, MAL Marques          : LibXC Library
   Liviu Ungur et al                             : ANISO software


 Your calculation uses the libint2 library for the computation of 2-el integrals
 For citations please refer to: http://libint.valeyev.net

 Your ORCA version has been built with support for libXC version: 5.1.0
 For citations please refer to: https://tddft.org/programs/libxc/

 This ORCA versions uses:
   CBLAS   interface :  Fast vector & matrix operations
   LAPACKE interface :  Fast linear algebra routines
   SCALAPACK package :  Parallel linear algebra routines
   Shared memory     :  Shared parallel matrices
   BLAS/LAPACK       :  OpenBLAS 0.3.15  USE64BITINT DYNAMIC_ARCH NO_AFFINITY SkylakeX SINGLE_THREADED
        Core in use  :  SkylakeX
   Copyright (c) 2011-2014, The OpenBLAS Project




***************************************
The coordinates will be read from file: /users/fjb15167/WWenergy/structures/Nd.xyz
***************************************


Your calculation utilizes the atom-pairwise dispersion correction
based on tight binding partial charges (D4)
Cite in your paper:
E.Caldeweyher, C.Bannwarth, S.Grimme, J.Chem.Phys., (2017), 147, 034112.
E.Caldeweyher, S.Ehlert, A.Hansen, H.Neugebauer, S.Grimme, J.Chem.Phys., (2018), in progress.
   

================================================================================

----- Orbital basis set information -----
Your calculation utilizes the basis: 6-31+G(d)
   H-He, Li-Ne : W. J. Hehre, R. Ditchfield and J.A. Pople, J. Chem. Phys. 56, 2257 (1972).
                 Note: He and Ne are unpublished basis sets taken from the Gaussian program.
                 Note: Li and B from J. D. Dill and J. A. Pople, J. Chem. Phys. 62, 2921 (1975).
   Na - Ar     : M. M. Francl, W. J. Pietro, W. J. Hehre, J. S. Binkley, M. S. Gordon, 
                 D. J. DeFrees and J. A. Pople, J. Chem. Phys. 77, 3654 (1982).
   K - Zn      : V. A. Rassolov, J. A. Pople, M. A. Ratner, and T. L. Windus, J. Chem. Phys. 109, 1223 (1998).
   Additional Pol./Diff. from the 6-311G equivalent.

----- AuxJ basis set information -----
Your calculation utilizes the AutoAux generation procedure.
  G. L. Stoychev, A. A. Auer, F. Neese, J. Chem. Theory Comput. 13, 554 (2017)

----- AuxC basis set information -----
Your calculation utilizes the AutoAux generation procedure.
  G. L. Stoychev, A. A. Auer, F. Neese, J. Chem. Theory Comput. 13, 554 (2017)

----- AuxJK basis set information -----
Your calculation utilizes the AutoAux generation procedure.
  G. L. Stoychev, A. A. Auer, F. Neese, J. Chem. Theory Comput. 13, 554 (2017)

================================================================================
                                        WARNINGS
                       Please study these warnings very carefully!
================================================================================


WARNING: Geometry Optimization
  ===> : Switching off AutoStart
         For restart on a previous wavefunction, please use MOREAD

INFO   : the flag for use of the SHARK integral package has been found!

================================================================================
                                       INPUT FILE
================================================================================
NAME = Nd_gas.inp
|  1> ! OPT FREQ B3LYP 6-31+G(d) D4 AUTOAUX
|  2> 
|  3> %PAL NPROCS 4 END
|  4> 
|  5> %maxcore 3375
|  6> 
|  7> *xyzfile -1 1 /users/fjb15167/WWenergy/structures/Nd.xyz
|  8> 
|  9>                          ****END OF INPUT****
================================================================================

                       *****************************
                       * Geometry Optimization Run *
                       *****************************

Geometry optimization settings:
Update method            Update   .... BFGS
Choice of coordinates    CoordSys .... Z-matrix Internals
Initial Hessian          InHess   .... Almoef's Model

Convergence Tolerances:
Energy Change            TolE     ....  5.0000e-06 Eh
Max. Gradient            TolMAXG  ....  3.0000e-04 Eh/bohr
RMS Gradient             TolRMSG  ....  1.0000e-04 Eh/bohr
Max. Displacement        TolMAXD  ....  4.0000e-03 bohr
RMS Displacement         TolRMSD  ....  2.0000e-03 bohr
Strict Convergence                ....  False
------------------------------------------------------------------------------
                        ORCA OPTIMIZATION COORDINATE SETUP
------------------------------------------------------------------------------

The optimization will be done in new redundant internal coordinates
Making redundant internal coordinates   ...  (new redundants) done
Evaluating the initial hessian          ...  (Almloef) done
Evaluating the coordinates              ...  done
Calculating the B-matrix                .... done
Calculating the G-matrix                .... done
Diagonalizing the G-matrix              .... done
Small eigenvalue found = 8.650e-03
Small eigenvalue found = 1.381e-02
Small eigenvalue found = 1.970e-02
Small eigenvalue found = 2.568e-02
The first mode is                       ....   46
The number of degrees of freedom        ....   75

    -----------------------------------------------------------------
                    Redundant Internal Coordinates


    -----------------------------------------------------------------
         Definition                    Initial Value    Approx d2E/dq
    -----------------------------------------------------------------
      1. B(H   1,C   0)                  1.0955         0.352920   
      2. B(H   2,C   0)                  1.0914         0.358260   
      3. B(H   3,C   0)                  1.0937         0.355276   
      4. B(C   4,C   0)                  1.5351         0.366621   
      5. B(O   5,C   4)                  1.2246         1.027418   
      6. B(N   6,C   4)                  1.3673         0.608191   
      7. B(C   7,N   6)                  1.4408         0.464264   
      8. B(H   8,C   7)                  1.0958         0.352560   
      9. B(H   9,C   7)                  1.0976         0.350237   
     10. B(C  10,N   6)                  1.4615         0.430290   
     11. B(H  11,C  10)                  1.0921         0.357343   
     12. B(C  12,C   7)                  1.5239         0.381979   
     13. B(N  13,C  12)                  1.3836         0.572924   
     14. B(O  14,C  12)                  1.2376         0.979388   
     15. B(C  15,N  13)                  1.4550         0.440709   
     16. B(H  16,C  15)                  1.0949         0.353692   
     17. B(H  17,C  15)                  1.1008         0.346068   
     18. B(H  18,C  15)                  1.0890         0.361411   
     19. B(C  19,N  13)                  1.4568         0.437812   
     20. B(H  20,C  19)                  1.0942         0.354570   
     21. B(H  21,C  19)                  1.0898         0.360428   
     22. B(H  22,C  19)                  1.1002         0.346841   
     23. B(C  23,C  10)                  1.5627         0.331289   
     24. B(O  24,C  23)                  1.2675         0.877556   
     25. B(H  25,C  10)                  1.0962         0.352035   
     26. B(O  26,C  23)                  1.2658         0.883239   
     27. A(H   1,C   0,C   4)          111.8798         0.322255   
     28. A(H   2,C   0,C   4)          106.6196         0.323049   
     29. A(H   3,C   0,C   4)          110.8846         0.322606   
     30. A(H   1,C   0,H   2)          109.0818         0.289689   
     31. A(H   2,C   0,H   3)          109.8838         0.289991   
     32. A(H   1,C   0,H   3)          108.4634         0.289309   
     33. A(C   0,C   4,O   5)          121.0118         0.429657   
     34. A(O   5,C   4,N   6)          124.1665         0.467864   
     35. A(C   0,C   4,N   6)          114.8201         0.391537   
     36. A(C   7,N   6,C  10)          115.1484         0.381676   
     37. A(C   4,N   6,C  10)          124.7929         0.400122   
     38. A(C   4,N   6,C   7)          116.5620         0.405520   
     39. A(N   6,C   7,C  12)          112.5570         0.376256   
     40. A(H   8,C   7,H   9)          108.0014         0.288616   
     41. A(N   6,C   7,H   9)          107.5462         0.332614   
     42. A(N   6,C   7,H   8)          107.7235         0.332978   
     43. A(H   9,C   7,C  12)          111.1511         0.324025   
     44. A(H   8,C   7,C  12)          109.6921         0.324377   
     45. A(N   6,C  10,H  25)          107.5498         0.328737   
     46. A(H  11,C  10,C  23)          109.3096         0.317609   
     47. A(N   6,C  10,C  23)          114.7473         0.362404   
     48. A(C  23,C  10,H  25)          109.0389         0.316836   
     49. A(N   6,C  10,H  11)          109.9156         0.329550   
     50. A(H  11,C  10,H  25)          105.8930         0.289458   
     51. A(N  13,C  12,O  14)          121.6302         0.458748   
     52. A(C   7,C  12,O  14)          122.9509         0.429130   
     53. A(C   7,C  12,N  13)          115.4053         0.390260   
     54. A(C  15,N  13,C  19)          115.4733         0.379384   
     55. A(C  12,N  13,C  19)          121.9158         0.397150   
     56. A(C  12,N  13,C  15)          117.4767         0.397611   
     57. A(H  17,C  15,H  18)          108.7336         0.289196   
     58. A(H  16,C  15,H  18)          109.9391         0.290186   
     59. A(N  13,C  15,H  18)          108.7454         0.331477   
     60. A(H  16,C  15,H  17)          108.8934         0.288221   
     61. A(N  13,C  15,H  17)          111.5079         0.329108   
     62. A(N  13,C  15,H  16)          109.0107         0.330295   
     63. A(H  21,C  19,H  22)          108.8262         0.289174   
     64. A(H  20,C  19,H  22)          108.5955         0.288433   
     65. A(N  13,C  19,H  22)          112.1206         0.328871   
     66. A(H  20,C  19,H  21)          108.1053         0.290175   
     67. A(N  13,C  19,H  21)          110.8164         0.330966   
     68. A(N  13,C  19,H  20)          108.2713         0.330070   
     69. A(O  24,C  23,O  26)          130.3931         0.486797   
     70. A(C  10,C  23,O  26)          113.0344         0.410731   
     71. A(C  10,C  23,O  24)          116.5705         0.410262   
     72. D(N   6,C   4,C   0,H   1)    -63.3691         0.010079   
     73. D(O   5,C   4,C   0,H   1)    116.1998         0.010079   
     74. D(N   6,C   4,C   0,H   2)    177.4531         0.010079   
     75. D(O   5,C   4,C   0,H   2)     -2.9780         0.010079   
     76. D(N   6,C   4,C   0,H   3)     57.8632         0.010079   
     77. D(O   5,C   4,C   0,H   3)   -122.5679         0.010079   
     78. D(C   7,N   6,C   4,C   0)   -166.4312         0.029865   
     79. D(C   7,N   6,C   4,O   5)     14.0153         0.029865   
     80. D(C  10,N   6,C   4,O   5)    171.8219         0.029865   
     81. D(C  10,N   6,C   4,C   0)     -8.6246         0.029865   
     82. D(H   9,C   7,N   6,C  10)    -39.0421         0.018406   
     83. D(H   9,C   7,N   6,C   4)    120.9173         0.018406   
     84. D(C  12,C   7,N   6,C  10)     83.7179         0.018406   
     85. D(C  12,C   7,N   6,C   4)   -116.3227         0.018406   
     86. D(H   8,C   7,N   6,C   4)      4.7291         0.018406   
     87. D(H   8,C   7,N   6,C  10)   -155.2303         0.018406   
     88. D(H  25,C  10,N   6,C   7)    -47.7500         0.015785   
     89. D(H  25,C  10,N   6,C   4)    154.1659         0.015785   
     90. D(C  23,C  10,N   6,C   7)     73.7508         0.015785   
     91. D(H  11,C  10,N   6,C   7)   -162.5883         0.015785   
     92. D(H  11,C  10,N   6,C   4)     39.3276         0.015785   
     93. D(C  23,C  10,N   6,C   4)    -84.3333         0.015785   
     94. D(O  14,C  12,C   7,H   9)    123.0351         0.010881   
     95. D(O  14,C  12,C   7,H   8)   -117.5970         0.010881   
     96. D(O  14,C  12,C   7,N   6)      2.3223         0.010881   
     97. D(N  13,C  12,C   7,H   9)    -58.2847         0.010881   
     98. D(N  13,C  12,C   7,H   8)     61.0831         0.010881   
     99. D(N  13,C  12,C   7,N   6)   -178.9976         0.010881   
    100. D(C  19,N  13,C  12,C   7)     16.2643         0.026286   
    101. D(C  15,N  13,C  12,O  14)    -11.5264         0.026286   
    102. D(C  15,N  13,C  12,C   7)    169.7744         0.026286   
    103. D(C  19,N  13,C  12,O  14)   -165.0364         0.026286   
    104. D(H  18,C  15,N  13,C  19)   -172.9828         0.016562   
    105. D(H  18,C  15,N  13,C  12)     31.8126         0.016562   
    106. D(H  17,C  15,N  13,C  19)     67.1311         0.016562   
    107. D(H  17,C  15,N  13,C  12)    -88.0734         0.016562   
    108. D(H  16,C  15,N  13,C  19)    -53.1268         0.016562   
    109. D(H  16,C  15,N  13,C  12)    151.6687         0.016562   
    110. D(H  22,C  19,N  13,C  15)    -75.2456         0.016344   
    111. D(H  22,C  19,N  13,C  12)     78.7565         0.016344   
    112. D(H  21,C  19,N  13,C  15)    162.9377         0.016344   
    113. D(H  21,C  19,N  13,C  12)    -43.0603         0.016344   
    114. D(H  20,C  19,N  13,C  15)     44.5365         0.016344   
    115. D(H  20,C  19,N  13,C  12)   -161.4615         0.016344   
    116. D(O  26,C  23,C  10,H  25)    -59.1035         0.008386   
    117. D(O  26,C  23,C  10,H  11)     56.2289         0.008386   
    118. D(O  26,C  23,C  10,N   6)   -179.7879         0.008386   
    119. D(O  24,C  23,C  10,H  25)    120.4444         0.008386   
    120. D(O  24,C  23,C  10,H  11)   -124.2232         0.008386   
    121. D(O  24,C  23,C  10,N   6)     -0.2400         0.008386   
    -----------------------------------------------------------------

Number of atoms                         .... 27
Number of degrees of freedom            .... 121

         *************************************************************
         *                GEOMETRY OPTIMIZATION CYCLE   1            *
         *************************************************************
---------------------------------
CARTESIAN COORDINATES (ANGSTROEM)
---------------------------------
  C      1.710000    2.899000    0.090000
  H      1.591000    3.195000    1.138000
  H      1.855000    3.793000   -0.519000
  H      2.586000    2.249000    0.011000
  C      0.457000    2.197000   -0.452000
  O     -0.199000    2.690000   -1.361000
  N      0.150000    1.015000    0.163000
  C     -0.821000    0.179000   -0.496000
  H     -1.072000    0.650000   -1.453000
  H     -0.339000   -0.784000   -0.708000
  C      1.008000    0.329000    1.127000
  H      1.483000    1.058000    1.787000
  C     -2.087000   -0.010000    0.331000
  N     -3.052000   -0.822000   -0.238000
  O     -2.264000    0.539000    1.426000
  C     -4.174000   -1.219000    0.599000
  H     -5.049000   -1.392000   -0.036000
  H     -3.953000   -2.140000    1.160000
  H     -4.382000   -0.419000    1.308000
  C     -2.749000   -1.718000   -1.346000
  H     -3.690000   -1.993000   -1.832000
  H     -2.119000   -1.222000   -2.084000
  H     -2.246000   -2.637000   -1.010000
  C      2.105000   -0.585000    0.492000
  O      2.134000   -0.640000   -0.774000
  H      0.362000   -0.281000    1.769000
  O      2.826000   -1.166000    1.355000

----------------------------
CARTESIAN COORDINATES (A.U.)
----------------------------
  NO LB      ZA    FRAG     MASS         X           Y           Z
   0 C     6.0000    0    12.011    3.231432    5.478316    0.170075
   1 H     1.0000    0     1.008    3.006554    6.037675    2.150508
   2 H     1.0000    0     1.008    3.505442    7.167731   -0.980768
   3 H     1.0000    0     1.008    4.886832    4.249994    0.020787
   4 C     6.0000    0    12.011    0.863605    4.151728   -0.854156
   5 O     8.0000    0    15.999   -0.376056    5.083363   -2.571917
   6 N     7.0000    0    14.007    0.283459    1.918072    0.308025
   7 C     6.0000    0    12.011   -1.551465    0.338261   -0.937304
   8 H     1.0000    0     1.008   -2.025786    1.228322   -2.745772
   9 H     1.0000    0     1.008   -0.640617   -1.481545   -1.337926
  10 C     6.0000    0    12.011    1.904844    0.621720    2.129721
  11 H     1.0000    0     1.008    2.802464    1.999330    3.376941
  12 C     6.0000    0    12.011   -3.943858   -0.018897    0.625499
  13 N     7.0000    0    14.007   -5.767444   -1.553355   -0.449755
  14 O     8.0000    0    15.999   -4.278340    1.018562    2.694749
  15 C     6.0000    0    12.011   -7.887717   -2.303576    1.131946
  16 H     1.0000    0     1.008   -9.541227   -2.630499   -0.068030
  17 H     1.0000    0     1.008   -7.470087   -4.044014    2.192082
  18 H     1.0000    0     1.008   -8.280780   -0.791795    2.471762
  19 C     6.0000    0    12.011   -5.194857   -3.246549   -2.543571
  20 H     1.0000    0     1.008   -6.973089   -3.766224   -3.461978
  21 H     1.0000    0     1.008   -4.004330   -2.309245   -3.938189
  22 H     1.0000    0     1.008   -4.244325   -4.983208   -1.908623
  23 C     6.0000    0    12.011    3.977874   -1.105490    0.929745
  24 O     8.0000    0    15.999    4.032676   -1.209425   -1.462648
  25 H     1.0000    0     1.008    0.684081   -0.531013    3.342926
  26 O     8.0000    0    15.999    5.340366   -2.203421    2.560579

--------------------------------
INTERNAL COORDINATES (ANGSTROEM)
--------------------------------
 C      0   0   0     0.000000000000     0.00000000     0.00000000
 H      1   0   0     1.095482085659     0.00000000     0.00000000
 H      1   2   0     1.091394520785   109.08175670     0.00000000
 H      1   2   3     1.093671340029   108.46339948   119.66432947
 C      1   2   3     1.535114653699   111.87984024   242.28609443
 O      5   1   2     1.224608508871   121.01182227   116.19977182
 N      5   1   2     1.367332439460   114.82014886   296.63086080
 C      7   5   1     1.440839338719   116.56198332   193.56879744
 H      8   7   5     1.095760466525   107.72347135     4.72909582
 H      8   7   5     1.097559565582   107.54619095   120.91727837
 C      7   5   1     1.461525230709   124.79292022   351.37537697
 H     11   7   5     1.092092486926   109.91562052    39.32760984
 C      8   7   5     1.523944224701   112.55696502   243.67729116
 N     13   8   7     1.383593148292   115.40533090   181.00242993
 O     13   8   7     1.237640901069   122.95092094     2.32227587
 C     14  13   8     1.455012714721   117.47670147   169.77435665
 H     16  14  13     1.094887665471   109.01070260   151.66869025
 H     16  14  13     1.100819240384   111.50787374   271.92655163
 H     16  14  13     1.089011019228   108.74542422    31.81263976
 C     14  13   8     1.456807811621   121.91584551    16.26431922
 H     20  14  13     1.094212959163   108.27133697   198.53845949
 H     20  14  13     1.089752265425   110.81639050   316.93974935
 H     20  14  13     1.100211797792   112.12059762    78.75645872
 C     11   7   5     1.562699587253   114.74730977   275.66671521
 O     24  11   7     1.267525936618   116.57052294   359.75999024
 H     11   7   5     1.096166045816   107.54976646   154.16590830
 O     24  11   7     1.265768936260   113.03440954   180.21211308

---------------------------
INTERNAL COORDINATES (A.U.)
---------------------------
 C      0   0   0     0.000000000000     0.00000000     0.00000000
 H      1   0   0     2.070161126513     0.00000000     0.00000000
 H      1   2   0     2.062436748346   109.08175670     0.00000000
 H      1   2   3     2.066739313173   108.46339948   119.66432947
 C      1   2   3     2.900946279660   111.87984024   242.28609443
 O      5   1   2     2.314174703036   121.01182227   116.19977182
 N      5   1   2     2.583883844606   114.82014886   296.63086080
 C      7   5   1     2.722791753159   116.56198332   193.56879744
 H      8   7   5     2.070687190111   107.72347135     4.72909582
 H      8   7   5     2.074086994615   107.54619095   120.91727837
 C      7   5   1     2.761882423857   124.79292022   351.37537697
 H     11   7   5     2.063755713203   109.91562052    39.32760984
 C      8   7   5     2.879837228056   112.55696502   243.67729116
 N     13   8   7     2.614612131041   115.40533090   181.00242993
 O     13   8   7     2.338802355161   122.95092094     2.32227587
 C     14  13   8     2.749575552196   117.47670147   169.77435665
 H     16  14  13     2.069037835148   109.01070260   151.66869025
 H     16  14  13     2.080246887277   111.50787374   271.92655163
 H     16  14  13     2.057932583163   108.74542422    31.81263976
 C     14  13   8     2.752967793721   121.91584551    16.26431922
 H     20  14  13     2.067762825005   108.27133697   198.53845949
 H     20  14  13     2.059333335474   110.81639050   316.93974935
 H     20  14  13     2.079098987135   112.12059762    78.75645872
 C     11   7   5     2.953074249500   114.74730977   275.66671521
 O     24  11   7     2.395276887851   116.57052294   359.75999024
 H     11   7   5     2.071453623896   107.54976646   154.16590830
 O     24  11   7     2.391956638356   113.03440954   180.21211308

---------------------
BASIS SET INFORMATION
---------------------
There are 4 groups of distinct atoms

 Group   1 Type C   : 11s5p1d contracted to 4s3p1d pattern {6311/311/1}
 Group   2 Type H   : 4s contracted to 2s pattern {31}
 Group   3 Type O   : 11s5p1d contracted to 4s3p1d pattern {6311/311/1}
 Group   4 Type N   : 11s5p1d contracted to 4s3p1d pattern {6311/311/1}

Atom   0C    basis set group =>   1
Atom   1H    basis set group =>   2
Atom   2H    basis set group =>   2
Atom   3H    basis set group =>   2
Atom   4C    basis set group =>   1
Atom   5O    basis set group =>   3
Atom   6N    basis set group =>   4
Atom   7C    basis set group =>   1
Atom   8H    basis set group =>   2
Atom   9H    basis set group =>   2
Atom  10C    basis set group =>   1
Atom  11H    basis set group =>   2
Atom  12C    basis set group =>   1
Atom  13N    basis set group =>   4
Atom  14O    basis set group =>   3
Atom  15C    basis set group =>   1
Atom  16H    basis set group =>   2
Atom  17H    basis set group =>   2
Atom  18H    basis set group =>   2
Atom  19C    basis set group =>   1
Atom  20H    basis set group =>   2
Atom  21H    basis set group =>   2
Atom  22H    basis set group =>   2
Atom  23C    basis set group =>   1
Atom  24O    basis set group =>   3
Atom  25H    basis set group =>   2
Atom  26O    basis set group =>   3
---------------------------------
AUXILIARY/J BASIS SET INFORMATION
---------------------------------
There are 4 groups of distinct atoms

 Group   1 Type C   : 16s13p12d2f contracted to 16s13p12d2f pattern {1111111111111111/1111111111111/111111111111/11}
 Group   2 Type H   : 9s2p contracted to 9s2p pattern {111111111/11}
 Group   3 Type O   : 16s13p12d3f contracted to 16s13p12d3f pattern {1111111111111111/1111111111111/111111111111/111}
 Group   4 Type N   : 16s13p12d3f contracted to 16s13p12d3f pattern {1111111111111111/1111111111111/111111111111/111}

Atom   0C    basis set group =>   1
Atom   1H    basis set group =>   2
Atom   2H    basis set group =>   2
Atom   3H    basis set group =>   2
Atom   4C    basis set group =>   1
Atom   5O    basis set group =>   3
Atom   6N    basis set group =>   4
Atom   7C    basis set group =>   1
Atom   8H    basis set group =>   2
Atom   9H    basis set group =>   2
Atom  10C    basis set group =>   1
Atom  11H    basis set group =>   2
Atom  12C    basis set group =>   1
Atom  13N    basis set group =>   4
Atom  14O    basis set group =>   3
Atom  15C    basis set group =>   1
Atom  16H    basis set group =>   2
Atom  17H    basis set group =>   2
Atom  18H    basis set group =>   2
Atom  19C    basis set group =>   1
Atom  20H    basis set group =>   2
Atom  21H    basis set group =>   2
Atom  22H    basis set group =>   2
Atom  23C    basis set group =>   1
Atom  24O    basis set group =>   3
Atom  25H    basis set group =>   2
Atom  26O    basis set group =>   3
---------------------------------
AUXILIARY/C BASIS SET INFORMATION
---------------------------------
There are 4 groups of distinct atoms

 Group   1 Type C   : 16s13p12d2f contracted to 16s13p12d2f pattern {1111111111111111/1111111111111/111111111111/11}
 Group   2 Type H   : 9s2p contracted to 9s2p pattern {111111111/11}
 Group   3 Type O   : 16s13p12d3f contracted to 16s13p12d3f pattern {1111111111111111/1111111111111/111111111111/111}
 Group   4 Type N   : 16s13p12d3f contracted to 16s13p12d3f pattern {1111111111111111/1111111111111/111111111111/111}

Atom   0C    basis set group =>   1
Atom   1H    basis set group =>   2
Atom   2H    basis set group =>   2
Atom   3H    basis set group =>   2
Atom   4C    basis set group =>   1
Atom   5O    basis set group =>   3
Atom   6N    basis set group =>   4
Atom   7C    basis set group =>   1
Atom   8H    basis set group =>   2
Atom   9H    basis set group =>   2
Atom  10C    basis set group =>   1
Atom  11H    basis set group =>   2
Atom  12C    basis set group =>   1
Atom  13N    basis set group =>   4
Atom  14O    basis set group =>   3
Atom  15C    basis set group =>   1
Atom  16H    basis set group =>   2
Atom  17H    basis set group =>   2
Atom  18H    basis set group =>   2
Atom  19C    basis set group =>   1
Atom  20H    basis set group =>   2
Atom  21H    basis set group =>   2
Atom  22H    basis set group =>   2
Atom  23C    basis set group =>   1
Atom  24O    basis set group =>   3
Atom  25H    basis set group =>   2
Atom  26O    basis set group =>   3
----------------------------------
AUXILIARY/JK BASIS SET INFORMATION
----------------------------------
There are 4 groups of distinct atoms

 Group   1 Type C   : 16s13p12d2f contracted to 16s13p12d2f pattern {1111111111111111/1111111111111/111111111111/11}
 Group   2 Type H   : 9s2p contracted to 9s2p pattern {111111111/11}
 Group   3 Type O   : 16s13p12d3f contracted to 16s13p12d3f pattern {1111111111111111/1111111111111/111111111111/111}
 Group   4 Type N   : 16s13p12d3f contracted to 16s13p12d3f pattern {1111111111111111/1111111111111/111111111111/111}

Atom   0C    basis set group =>   1
Atom   1H    basis set group =>   2
Atom   2H    basis set group =>   2
Atom   3H    basis set group =>   2
Atom   4C    basis set group =>   1
Atom   5O    basis set group =>   3
Atom   6N    basis set group =>   4
Atom   7C    basis set group =>   1
Atom   8H    basis set group =>   2
Atom   9H    basis set group =>   2
Atom  10C    basis set group =>   1
Atom  11H    basis set group =>   2
Atom  12C    basis set group =>   1
Atom  13N    basis set group =>   4
Atom  14O    basis set group =>   3
Atom  15C    basis set group =>   1
Atom  16H    basis set group =>   2
Atom  17H    basis set group =>   2
Atom  18H    basis set group =>   2
Atom  19C    basis set group =>   1
Atom  20H    basis set group =>   2
Atom  21H    basis set group =>   2
Atom  22H    basis set group =>   2
Atom  23C    basis set group =>   1
Atom  24O    basis set group =>   3
Atom  25H    basis set group =>   2
Atom  26O    basis set group =>   3


           ************************************************************
           *        Program running with 4 parallel MPI-processes     *
           *              working on a common directory               *
           ************************************************************
------------------------------------------------------------------------------
                           ORCA GTO INTEGRAL CALCULATION
                           -- RI-GTO INTEGRALS CHOSEN --
------------------------------------------------------------------------------
------------------------------------------------------------------------------
                   ___                                                        
                  /   \      - P O W E R E D   B Y -                         
                 /     \                                                     
                 |  |  |   _    _      __       _____    __    __             
                 |  |  |  | |  | |    /  \     |  _  \  |  |  /  |          
                  \  \/   | |  | |   /    \    | | | |  |  | /  /          
                 / \  \   | |__| |  /  /\  \   | |_| |  |  |/  /          
                |  |  |   |  __  | /  /__\  \  |    /   |      \           
                |  |  |   | |  | | |   __   |  |    \   |  |\   \          
                \     /   | |  | | |  |  |  |  | |\  \  |  | \   \       
                 \___/    |_|  |_| |__|  |__|  |_| \__\ |__|  \__/        
                                                                              
                      - O R C A' S   B I G   F R I E N D -                    
                                      &                                       
                       - I N T E G R A L  F E E D E R -                       
                                                                              
 v1 FN, 2020, v2 2021                                                         
------------------------------------------------------------------------------


Reading SHARK input file Nd_gas.SHARKINP.tmp ... ok
----------------------
SHARK INTEGRAL PACKAGE
----------------------

Number of atoms                             ...     27
Number of basis functions                   ...    278
Number of shells                            ...    138
Maximum angular momentum                    ...      2
Integral batch strategy                     ... SHARK/LIBINT Hybrid
RI-J (if used) integral strategy            ... SPLIT-RIJ (Revised 2003 algorithm where possible)
Printlevel                                  ...      1
Contraction scheme used                     ... SEGMENTED contraction
Coulomb Range Separation                    ... NOT USED
Exchange Range Separation                   ... NOT USED
Finite Nucleus Model                        ... NOT USED
Auxiliary Coulomb fitting basis             ... AVAILABLE
   # of basis functions in Aux-J            ...   2043
   # of shells in Aux-J                     ...    751
   Maximum angular momentum in Aux-J        ...      3
Auxiliary J/K fitting basis                 ... AVAILABLE
   # of basis functions in Aux-JK           ...   2043
   # of shells in Aux-JK                    ...    751
   Maximum angular momentum in Aux-JK       ...      3
Auxiliary Correlation fitting basis         ... AVAILABLE
   # of basis functions in Aux-C            ...   2043
   # of shells in Aux-C                     ...    751
   Maximum angular momentum in Aux-C        ...      3
Auxiliary 'external' fitting basis          ... NOT available
Integral threshold                          ...     2.500000e-11
Primitive cut-off                           ...     2.500000e-12
Primitive pair pre-selection threshold      ...     2.500000e-12

Calculating pre-screening integrals         ... done (  0.0 sec) Dimension = 138
Organizing shell pair data                  ... done (  0.1 sec)
Shell pair information
Total number of shell pairs                 ...      9591
Shell pairs after pre-screening             ...      8611
Total number of primitive shell pairs       ...     42528
Primitive shell pairs kept                  ...     24858
          la=0 lb=0:   2939 shell pairs
          la=1 lb=0:   3225 shell pairs
          la=1 lb=1:    881 shell pairs
          la=2 lb=0:    938 shell pairs
          la=2 lb=1:    546 shell pairs
          la=2 lb=2:     82 shell pairs

Calculating one electron integrals          ... done (  0.0 sec)
Calculating RI/J V-Matrix + Cholesky decomp.... done (  0.3 sec)
Calculating RI/JK V-Matrix + Cholesky decomp... done (  0.3 sec)
Calculating RI/C V-Matrix + Cholesky decomp.... done (  0.3 sec)
Calculating Nuclear repulsion               ... done (  0.0 sec) ENN=    939.826910035808 Eh

SHARK setup successfully completed in   1.5 seconds

Maximum memory used throughout the entire GTOINT-calculation: 37.3 MB


           ************************************************************
           *        Program running with 4 parallel MPI-processes     *
           *              working on a common directory               *
           ************************************************************
-------------------------------------------------------------------------------
                                 ORCA SCF
-------------------------------------------------------------------------------

------------
SCF SETTINGS
------------
Hamiltonian:
 Density Functional     Method          .... DFT(GTOs)
 Exchange Functional    Exchange        .... B88
   X-Alpha parameter    XAlpha          ....  0.666667
   Becke's b parameter  XBeta           ....  0.004200
 Correlation Functional Correlation     .... LYP
 LDA part of GGA corr.  LDAOpt          .... VWN-5
 Gradients option       PostSCFGGA      .... off
 Hybrid DFT is turned on
   Fraction HF Exchange ScalHFX         ....  0.200000
   Scaling of DF-GGA-X  ScalDFX         ....  0.720000
   Scaling of DF-GGA-C  ScalDFC         ....  0.810000
   Scaling of DF-LDA-C  ScalLDAC        ....  1.000000
   Perturbative correction              ....  0.000000
   Density functional embedding theory  .... OFF
   NL short-range parameter             ....  4.800000
 RI-approximation to the Coulomb term is turned on
   Number of AuxJ basis functions       .... 2043
   RIJ-COSX (HFX calculated with COS-X)).... on


General Settings:
 Integral files         IntName         .... Nd_gas
 Hartree-Fock type      HFTyp           .... RHF
 Total Charge           Charge          ....   -1
 Multiplicity           Mult            ....    1
 Number of Electrons    NEL             ....  108
 Basis Dimension        Dim             ....  278
 Nuclear Repulsion      ENuc            ....    939.8269100358 Eh

Convergence Acceleration:
 DIIS                   CNVDIIS         .... on
   Start iteration      DIISMaxIt       ....    12
   Startup error        DIISStart       ....  0.200000
   # of expansion vecs  DIISMaxEq       ....     5
   Bias factor          DIISBfac        ....   1.050
   Max. coefficient     DIISMaxC        ....  10.000
 Trust-Rad. Augm. Hess. CNVTRAH         .... auto
   Auto Start mean grad. ratio tolernc. ....  1.125000
   Auto Start start iteration           ....    20
   Auto Start num. interpolation iter.  ....    10
   Max. Number of Micro iterations      ....    16
   Max. Number of Macro iterations      .... Maxiter - #DIIS iter
   Number of Davidson start vectors     ....     2
   Converg. threshold I  (grad. norm)   ....   1.000e-05
   Converg. threshold II (energy diff.) ....   1.000e-08
   Grad. Scal. Fac. for Micro threshold ....   0.100
   Minimum threshold for Micro iter.    ....   0.010
   NR start threshold (gradient norm)   ....   0.001
   Initial trust radius                 ....   0.400
   Minimum AH scaling param. (alpha)    ....   1.000
   Maximum AH scaling param. (alpha)    .... 1000.000
   Orbital update algorithm             .... Taylor
   White noise on init. David. guess    .... on
   Maximum white noise                  ....   0.010
   Quad. conv. algorithm                .... NR
 SOSCF                  CNVSOSCF        .... on
   Start iteration      SOSCFMaxIt      ....   150
   Startup grad/error   SOSCFStart      ....  0.003300
 Level Shifting         CNVShift        .... on
   Level shift para.    LevelShift      ....    0.2500
   Turn off err/grad.   ShiftErr        ....    0.0010
 Zerner damping         CNVZerner       .... off
 Static damping         CNVDamp         .... on
   Fraction old density DampFac         ....    0.7000
   Max. Damping (<1)    DampMax         ....    0.9800
   Min. Damping (>=0)   DampMin         ....    0.0000
   Turn off err/grad.   DampErr         ....    0.1000
 Fernandez-Rico         CNVRico         .... off

SCF Procedure:
 Maximum # iterations   MaxIter         ....   125
 SCF integral mode      SCFMode         .... Direct
   Integral package                     .... SHARK and LIBINT hybrid scheme
 Reset frequency        DirectResetFreq ....    20
 Integral Threshold     Thresh          ....  2.500e-11 Eh
 Primitive CutOff       TCut            ....  2.500e-12 Eh

Convergence Tolerance:
 Convergence Check Mode ConvCheckMode   .... Total+1el-Energy
 Convergence forced     ConvForced      .... 0
 Energy Change          TolE            ....  1.000e-08 Eh
 1-El. energy change                    ....  1.000e-05 Eh
 Orbital Gradient       TolG            ....  1.000e-05
 Orbital Rotation angle TolX            ....  1.000e-05
 DIIS Error             TolErr          ....  5.000e-07


Diagonalization of the overlap matrix:
Smallest eigenvalue                        ... 1.041e-05
Time for diagonalization                   ...    0.012 sec
Threshold for overlap eigenvalues          ... 1.000e-08
Number of eigenvalues below threshold      ... 0
Time for construction of square roots      ...    0.006 sec
Total time needed                          ...    0.020 sec

Time for model grid setup =    0.745 sec

------------------------------
INITIAL GUESS: MODEL POTENTIAL
------------------------------
Loading Hartree-Fock densities                     ... done
Calculating cut-offs                               ... done
Initializing the effective Hamiltonian             ... done
Setting up the integral package (SHARK)            ... done
Starting the Coulomb interaction                   ... done (   0.7 sec)
Reading the grid                                   ... done
Mapping shells                                     ... done
Starting the XC term evaluation                    ... done (   0.2 sec)
  promolecular density results
     # of electrons  =    106.991721915
     EX              =    -90.886329998
     EC              =     -3.676791818
     EX+EC           =    -94.563121816
Transforming the Hamiltonian                       ... done (   0.0 sec)
Diagonalizing the Hamiltonian                      ... done (   0.0 sec)
Back transforming the eigenvectors                 ... done (   0.0 sec)
Now organizing SCF variables                       ... done
                      ------------------
                      INITIAL GUESS DONE (   1.7 sec)
                      ------------------
-------------------
DFT GRID GENERATION
-------------------

General Integration Accuracy     IntAcc      ... 4.388
Radial Grid Type                 RadialGrid  ... OptM3 with GC (2021)
Angular Grid (max. ang.)         AngularGrid ... 4 (Lebedev-302)
Angular grid pruning method      GridPruning ... 4 (adaptive)
Weight generation scheme         WeightScheme... Becke
Basis function cutoff            BFCut       ... 1.0000e-11
Integration weight cutoff        WCut        ... 1.0000e-14
Angular grids for H and He will be reduced by one unit
Partially contracted basis set               ... off
Rotationally invariant grid construction     ... off

Total number of grid points                  ...   129432
Total number of batches                      ...     2038
Average number of points per batch           ...       63
Average number of grid points per atom       ...     4794
Time for grid setup =    0.990 sec

--------------------
COSX GRID GENERATION
--------------------

GRIDX 1
-------
General Integration Accuracy     IntAcc      ... 3.816
Radial Grid Type                 RadialGrid  ... OptM3 with GC (2021)
Angular Grid (max. ang.)         AngularGrid ... 1 (Lebedev-50)
Angular grid pruning method      GridPruning ... 4 (adaptive)
Weight generation scheme         WeightScheme... Becke
Basis function cutoff            BFCut       ... 1.0000e-11
Integration weight cutoff        WCut        ... 1.0000e-14
Angular grids for H and He will be reduced by one unit
Partially contracted basis set               ... on
Rotationally invariant grid construction     ... off

Total number of grid points                  ...    16481
Total number of batches                      ...      271
Average number of points per batch           ...       60
Average number of grid points per atom       ...      610
UseSFitting                                  ... on

GRIDX 2
-------
General Integration Accuracy     IntAcc      ... 4.020
Radial Grid Type                 RadialGrid  ... OptM3 with GC (2021)
Angular Grid (max. ang.)         AngularGrid ... 2 (Lebedev-110)
Angular grid pruning method      GridPruning ... 4 (adaptive)
Weight generation scheme         WeightScheme... Becke
Basis function cutoff            BFCut       ... 1.0000e-11
Integration weight cutoff        WCut        ... 1.0000e-14
Angular grids for H and He will be reduced by one unit
Partially contracted basis set               ... on
Rotationally invariant grid construction     ... off

Total number of grid points                  ...    38636
Total number of batches                      ...      617
Average number of points per batch           ...       62
Average number of grid points per atom       ...     1431
UseSFitting                                  ... on

GRIDX 3
-------
General Integration Accuracy     IntAcc      ... 4.338
Radial Grid Type                 RadialGrid  ... OptM3 with GC (2021)
Angular Grid (max. ang.)         AngularGrid ... 3 (Lebedev-194)
Angular grid pruning method      GridPruning ... 4 (adaptive)
Weight generation scheme         WeightScheme... Becke
Basis function cutoff            BFCut       ... 1.0000e-11
Integration weight cutoff        WCut        ... 1.0000e-14
Angular grids for H and He will be reduced by one unit
Partially contracted basis set               ... on
Rotationally invariant grid construction     ... off

Total number of grid points                  ...    83257
Total number of batches                      ...     1311
Average number of points per batch           ...       63
Average number of grid points per atom       ...     3084
UseSFitting                                  ... on

Time for X-Grid setup             =    2.361 sec

--------------
SCF ITERATIONS
--------------
ITER       Energy         Delta-E        Max-DP      RMS-DP      [F,P]     Damp
               ***  Starting incremental Fock matrix formation  ***
  0   -722.2461386358   0.000000000000 0.81987389  0.00542890  0.2909122 0.7000
  1   -722.5134972374  -0.267358601611 0.59241503  0.00416944  0.1157227 0.7000
                               ***Turning on DIIS***
  2   -722.6042958444  -0.090798606989 0.79997846  0.00718973  0.0378544 0.0000
  3   -722.7615133367  -0.157217492257 0.52048762  0.00310359  0.0656981 0.0000
  4   -722.7920921603  -0.030578823590 0.14449323  0.00115535  0.0141672 0.0000
  5   -722.7950506392  -0.002958478928 0.14480670  0.00101715  0.0036906 0.0000
                      *** Initiating the SOSCF procedure ***
                           *** Shutting down DIIS ***
                      *** Re-Reading the Fockian *** 
                      *** Removing any level shift *** 
ITER      Energy       Delta-E        Grad      Rot      Max-DP    RMS-DP
  6   -722.79515895  -0.0001083089  0.000472  0.000472  0.060567  0.000499
               *** Restarting incremental Fock matrix formation ***
  7   -722.79515506   0.0000038911  0.000236  0.000900  0.068529  0.000557
  8   -722.79515511  -0.0000000513  0.000338  0.000397  0.021530  0.000170
  9   -722.79515980  -0.0000046871  0.000110  0.000228  0.016941  0.000143
 10   -722.79515969   0.0000001102  0.000111  0.000132  0.004065  0.000026
 11   -722.79516028  -0.0000005945  0.000032  0.000119  0.011052  0.000075
 12   -722.79516028   0.0000000021  0.000038  0.000044  0.003333  0.000021
 13   -722.79516034  -0.0000000631  0.000011  0.000026  0.004301  0.000030
 14   -722.79516032   0.0000000172  0.000016  0.000015  0.002407  0.000013
                  ***Gradient check signals convergence***
              ***Rediagonalizing the Fockian in SOSCF/NRSCF***

               *****************************************************
               *                     SUCCESS                       *
               *           SCF CONVERGED AFTER  15 CYCLES          *
               *****************************************************

Old exchange energy                            =    -18.473656130 Eh
New exchange energy                            =    -18.473656789 Eh
Exchange energy change after final integration =     -0.000000659 Eh
Total energy after final integration           =   -722.795161009 Eh
Final COS-X integration done in                =    13.092 sec

----------------
TOTAL SCF ENERGY
----------------

Total Energy       :         -722.79516101 Eh          -19668.25625 eV

Components:
Nuclear Repulsion  :          939.82691004 Eh           25573.99038 eV
Electronic Energy  :        -1662.62207104 Eh          -45242.24662 eV
One Electron Energy:        -2866.91089895 Eh          -78012.61164 eV
Two Electron Energy:         1204.28882791 Eh           32770.36502 eV
Max COSX asymmetry :            0.00000924 Eh               0.00025 eV

Virial components:
Potential Energy   :        -1441.10814429 Eh          -39214.54624 eV
Kinetic Energy     :          718.31298328 Eh           19546.28999 eV
Virial Ratio       :            2.00623987


DFT components:
N(Alpha)           :       54.000048921889 electrons
N(Beta)            :       54.000048921889 electrons
N(Total)           :      108.000097843779 electrons
E(X)               :      -73.478270100949 Eh       
E(C)               :       -4.360524359714 Eh       
E(XC)              :      -77.838794460663 Eh       
DFET-embed. en.    :        0.000000000000 Eh       

---------------
SCF CONVERGENCE
---------------

  Last Energy change         ...   -2.6839e-08  Tolerance :   1.0000e-08
  Last MAX-Density change    ...    3.1086e-15  Tolerance :   1.0000e-07
  Last RMS-Density change    ...    4.2536e-17  Tolerance :   5.0000e-09
  Last Orbital Gradient      ...    7.8519e-07  Tolerance :   1.0000e-05
  Last Orbital Rotation      ...    2.9319e-06  Tolerance :   1.0000e-05

             **** THE GBW FILE WAS UPDATED (Nd_gas.gbw) ****
             **** DENSITY Nd_gas.scfp WAS UPDATED ****
             **** ENERGY FILE WAS UPDATED (Nd_gas.en.tmp) ****
             **** THE GBW FILE WAS UPDATED (Nd_gas.gbw) ****
             **** DENSITY Nd_gas.scfp WAS UPDATED ****
----------------
ORBITAL ENERGIES
----------------

  NO   OCC          E(Eh)            E(eV) 
   0   2.0000     -19.016934      -517.4771 
   1   2.0000     -18.991143      -516.7753 
   2   2.0000     -18.929185      -515.0893 
   3   2.0000     -18.925676      -514.9938 
   4   2.0000     -14.271589      -388.3497 
   5   2.0000     -14.229654      -387.2086 
   6   2.0000     -10.184000      -277.1207 
   7   2.0000     -10.158870      -276.4369 
   8   2.0000     -10.131936      -275.7040 
   9   2.0000     -10.124263      -275.4952 
  10   2.0000     -10.108644      -275.0702 
  11   2.0000     -10.098175      -274.7853 
  12   2.0000     -10.067992      -273.9640 
  13   2.0000     -10.059678      -273.7378 
  14   2.0000      -0.934652       -25.4332 
  15   2.0000      -0.912889       -24.8410 
  16   2.0000      -0.853623       -23.2283 
  17   2.0000      -0.843243       -22.9458 
  18   2.0000      -0.806879       -21.9563 
  19   2.0000      -0.769026       -20.9262 
  20   2.0000      -0.655328       -17.8324 
  21   2.0000      -0.634036       -17.2530 
  22   2.0000      -0.611685       -16.6448 
  23   2.0000      -0.583933       -15.8896 
  24   2.0000      -0.557746       -15.1771 
  25   2.0000      -0.461889       -12.5686 
  26   2.0000      -0.421443       -11.4681 
  27   2.0000      -0.407844       -11.0980 
  28   2.0000      -0.393031       -10.6949 
  29   2.0000      -0.381503       -10.3812 
  30   2.0000      -0.369116       -10.0442 
  31   2.0000      -0.355748        -9.6804 
  32   2.0000      -0.344127        -9.3642 
  33   2.0000      -0.326476        -8.8839 
  34   2.0000      -0.318859        -8.6766 
  35   2.0000      -0.314868        -8.5680 
  36   2.0000      -0.313195        -8.5225 
  37   2.0000      -0.306395        -8.3374 
  38   2.0000      -0.292533        -7.9602 
  39   2.0000      -0.282999        -7.7008 
  40   2.0000      -0.273071        -7.4306 
  41   2.0000      -0.266726        -7.2580 
  42   2.0000      -0.263318        -7.1652 
  43   2.0000      -0.246673        -6.7123 
  44   2.0000      -0.235156        -6.3989 
  45   2.0000      -0.225600        -6.1389 
  46   2.0000      -0.197339        -5.3699 
  47   2.0000      -0.161445        -4.3932 
  48   2.0000      -0.149328        -4.0634 
  49   2.0000      -0.133599        -3.6354 
  50   2.0000      -0.128321        -3.4918 
  51   2.0000      -0.084429        -2.2974 
  52   2.0000      -0.072106        -1.9621 
  53   2.0000      -0.065169        -1.7733 
  54   0.0000       0.077691         2.1141 
  55   0.0000       0.101774         2.7694 
  56   0.0000       0.109480         2.9791 
  57   0.0000       0.115601         3.1457 
  58   0.0000       0.119061         3.2398 
  59   0.0000       0.128127         3.4865 
  60   0.0000       0.129404         3.5213 
  61   0.0000       0.146197         3.9782 
  62   0.0000       0.147329         4.0090 
  63   0.0000       0.151523         4.1231 
  64   0.0000       0.155374         4.2279 
  65   0.0000       0.161784         4.4024 
  66   0.0000       0.173181         4.7125 
  67   0.0000       0.176412         4.8004 
  68   0.0000       0.185801         5.0559 
  69   0.0000       0.191579         5.2131 
  70   0.0000       0.194353         5.2886 
  71   0.0000       0.196642         5.3509 
  72   0.0000       0.201123         5.4728 
  73   0.0000       0.207141         5.6366 
  74   0.0000       0.212450         5.7811 
  75   0.0000       0.220322         5.9953 
  76   0.0000       0.225912         6.1474 
  77   0.0000       0.230493         6.2720 
  78   0.0000       0.235401         6.4056 
  79   0.0000       0.236934         6.4473 
  80   0.0000       0.245727         6.6866 
  81   0.0000       0.252456         6.8697 
  82   0.0000       0.258886         7.0447 
  83   0.0000       0.261480         7.1152 
  84   0.0000       0.266630         7.2554 
  85   0.0000       0.281942         7.6720 
  86   0.0000       0.285623         7.7722 
  87   0.0000       0.289533         7.8786 
  88   0.0000       0.296727         8.0744 
  89   0.0000       0.300777         8.1846 
  90   0.0000       0.309363         8.4182 
  91   0.0000       0.313714         8.5366 
  92   0.0000       0.324955         8.8425 
  93   0.0000       0.327447         8.9103 
  94   0.0000       0.336805         9.1649 
  95   0.0000       0.341524         9.2934 
  96   0.0000       0.343790         9.3550 
  97   0.0000       0.350968         9.5503 
  98   0.0000       0.356516         9.7013 
  99   0.0000       0.359096         9.7715 
 100   0.0000       0.362546         9.8654 
 101   0.0000       0.365892         9.9564 
 102   0.0000       0.375483        10.2174 
 103   0.0000       0.387985        10.5576 
 104   0.0000       0.389707        10.6045 
 105   0.0000       0.395661        10.7665 
 106   0.0000       0.406178        11.0527 
 107   0.0000       0.408360        11.1121 
 108   0.0000       0.412120        11.2143 
 109   0.0000       0.418118        11.3776 
 110   0.0000       0.422627        11.5003 
 111   0.0000       0.426231        11.5983 
 112   0.0000       0.438515        11.9326 
 113   0.0000       0.439771        11.9668 
 114   0.0000       0.448486        12.2039 
 115   0.0000       0.450299        12.2533 
 116   0.0000       0.461193        12.5497 
 117   0.0000       0.461456        12.5568 
 118   0.0000       0.471096        12.8192 
 119   0.0000       0.476479        12.9657 
 120   0.0000       0.481540        13.1034 
 121   0.0000       0.489110        13.3094 
 122   0.0000       0.491820        13.3831 
 123   0.0000       0.495444        13.4817 
 124   0.0000       0.508700        13.8424 
 125   0.0000       0.512261        13.9393 
 126   0.0000       0.519182        14.1277 
 127   0.0000       0.526647        14.3308 
 128   0.0000       0.537119        14.6157 
 129   0.0000       0.554646        15.0927 
 130   0.0000       0.561981        15.2923 
 131   0.0000       0.570006        15.5106 
 132   0.0000       0.573748        15.6125 
 133   0.0000       0.585107        15.9216 
 134   0.0000       0.600571        16.3424 
 135   0.0000       0.612132        16.6570 
 136   0.0000       0.641834        17.4652 
 137   0.0000       0.649424        17.6717 
 138   0.0000       0.721178        19.6242 
 139   0.0000       0.750239        20.4151 
 140   0.0000       0.755070        20.5465 
 141   0.0000       0.769138        20.9293 
 142   0.0000       0.791674        21.5426 
 143   0.0000       0.803054        21.8522 
 144   0.0000       0.818867        22.2825 
 145   0.0000       0.820383        22.3238 
 146   0.0000       0.834696        22.7132 
 147   0.0000       0.853427        23.2229 
 148   0.0000       0.874072        23.7847 
 149   0.0000       0.891033        24.2462 
 150   0.0000       0.902732        24.5646 
 151   0.0000       0.916070        24.9275 
 152   0.0000       0.920144        25.0384 
 153   0.0000       0.933747        25.4086 
 154   0.0000       0.941129        25.6094 
 155   0.0000       0.957538        26.0559 
 156   0.0000       0.972011        26.4498 
 157   0.0000       0.988103        26.8876 
 158   0.0000       1.018422        27.7127 
 159   0.0000       1.032623        28.0991 
 160   0.0000       1.040091        28.3023 
 161   0.0000       1.050307        28.5803 
 162   0.0000       1.061317        28.8799 
 163   0.0000       1.071587        29.1594 
 164   0.0000       1.075784        29.2736 
 165   0.0000       1.092025        29.7155 
 166   0.0000       1.102632        30.0041 
 167   0.0000       1.118439        30.4343 
 168   0.0000       1.127635        30.6845 
 169   0.0000       1.140652        31.0387 
 170   0.0000       1.145888        31.1812 
 171   0.0000       1.157557        31.4987 
 172   0.0000       1.187923        32.3250 
 173   0.0000       1.205272        32.7971 
 174   0.0000       1.212282        32.9879 
 175   0.0000       1.223109        33.2825 
 176   0.0000       1.246294        33.9134 
 177   0.0000       1.249514        34.0010 
 178   0.0000       1.269164        34.5357 
 179   0.0000       1.284486        34.9526 
 180   0.0000       1.319220        35.8978 
 181   0.0000       1.327682        36.1281 
 182   0.0000       1.341175        36.4952 
 183   0.0000       1.359636        36.9976 
 184   0.0000       1.400803        38.1178 
 185   0.0000       1.410593        38.3842 
 186   0.0000       1.429818        38.9073 
 187   0.0000       1.431615        38.9562 
 188   0.0000       1.452786        39.5323 
 189   0.0000       1.466269        39.8992 
 190   0.0000       1.470506        40.0145 
 191   0.0000       1.488678        40.5090 
 192   0.0000       1.503438        40.9106 
 193   0.0000       1.516702        41.2716 
 194   0.0000       1.519249        41.3409 
 195   0.0000       1.528247        41.5857 
 196   0.0000       1.542096        41.9626 
 197   0.0000       1.545219        42.0475 
 198   0.0000       1.558784        42.4167 
 199   0.0000       1.578087        42.9419 
 200   0.0000       1.597247        43.4633 
 201   0.0000       1.604788        43.6685 
 202   0.0000       1.617985        44.0276 
 203   0.0000       1.639697        44.6184 
 204   0.0000       1.646974        44.8164 
 205   0.0000       1.663982        45.2792 
 206   0.0000       1.709784        46.5256 
 207   0.0000       1.734798        47.2063 
 208   0.0000       1.770441        48.1761 
 209   0.0000       1.795862        48.8679 
 210   0.0000       1.823888        49.6305 
 211   0.0000       1.847283        50.2671 
 212   0.0000       1.879518        51.1443 
 213   0.0000       1.901158        51.7331 
 214   0.0000       1.932630        52.5895 
 215   0.0000       1.941146        52.8213 
 216   0.0000       1.949344        53.0443 
 217   0.0000       1.962355        53.3984 
 218   0.0000       1.970165        53.6109 
 219   0.0000       1.977421        53.8084 
 220   0.0000       1.989097        54.1261 
 221   0.0000       2.005799        54.5806 
 222   0.0000       2.029524        55.2262 
 223   0.0000       2.041148        55.5424 
 224   0.0000       2.048824        55.7513 
 225   0.0000       2.059575        56.0439 
 226   0.0000       2.061919        56.1077 
 227   0.0000       2.090175        56.8766 
 228   0.0000       2.100125        57.1473 
 229   0.0000       2.117235        57.6129 
 230   0.0000       2.128701        57.9249 
 231   0.0000       2.146684        58.4142 
 232   0.0000       2.155432        58.6523 
 233   0.0000       2.169142        59.0254 
 234   0.0000       2.179575        59.3093 
 235   0.0000       2.188249        59.5453 
 236   0.0000       2.204208        59.9796 
 237   0.0000       2.212900        60.2161 
 238   0.0000       2.220030        60.4101 
 239   0.0000       2.242406        61.0190 
 240   0.0000       2.268688        61.7341 
 241   0.0000       2.291511        62.3552 
 242   0.0000       2.314901        62.9917 
 243   0.0000       2.323202        63.2176 
 244   0.0000       2.340603        63.6911 
 245   0.0000       2.366835        64.4049 
 246   0.0000       2.370701        64.5101 
 247   0.0000       2.392546        65.1045 
 248   0.0000       2.417769        65.7908 
 249   0.0000       2.443972        66.5038 
 250   0.0000       2.457684        66.8770 
 251   0.0000       2.482522        67.5529 
 252   0.0000       2.529358        68.8273 
 253   0.0000       2.566249        69.8312 
 254   0.0000       2.586802        70.3905 
 255   0.0000       2.615244        71.1644 
 256   0.0000       2.624997        71.4298 
 257   0.0000       2.639120        71.8141 
 258   0.0000       2.683787        73.0295 
 259   0.0000       2.717807        73.9553 
 260   0.0000       2.748473        74.7897 
 261   0.0000       2.770180        75.3804 
 262   0.0000       2.776184        75.5438 
 263   0.0000       2.803521        76.2877 
 264   0.0000       2.819868        76.7325 
 265   0.0000       2.900363        78.9229 
 266   0.0000       2.905332        79.0581 
 267   0.0000       2.950289        80.2815 
 268   0.0000       3.037654        82.6588 
 269   0.0000       3.069703        83.5309 
 270   0.0000       3.138156        85.3936 
 271   0.0000       3.190795        86.8260 
 272   0.0000       3.230775        87.9138 
 273   0.0000       3.246930        88.3535 
 274   0.0000       3.270321        88.9900 
 275   0.0000       3.313932        90.1767 
 276   0.0000       3.364213        91.5449 
 277   0.0000       3.398601        92.4806 

                    ********************************
                    * MULLIKEN POPULATION ANALYSIS *
                    ********************************

-----------------------
MULLIKEN ATOMIC CHARGES
-----------------------
   0 C :   -0.962103
   1 H :    0.214337
   2 H :    0.210596
   3 H :    0.258345
   4 C :    0.898913
   5 O :   -0.538921
   6 N :    0.197868
   7 C :   -1.379531
   8 H :    0.260662
   9 H :    0.265116
  10 C :   -0.746432
  11 H :    0.201253
  12 C :    0.917888
  13 N :   -0.178136
  14 O :   -0.504797
  15 C :   -0.556094
  16 H :    0.178966
  17 H :    0.197682
  18 H :    0.242589
  19 C :   -0.512971
  20 H :    0.182211
  21 H :    0.227969
  22 H :    0.213207
  23 C :    0.635348
  24 O :   -0.568944
  25 H :    0.220140
  26 O :   -0.575157
Sum of atomic charges:   -1.0000000

--------------------------------
MULLIKEN REDUCED ORBITAL CHARGES
--------------------------------
  0 C s       :     3.701374  s :     3.701374
      pz      :     1.101139  p :     3.228979
      px      :     1.032731
      py      :     1.095109
      dz2     :     0.008509  d :     0.031749
      dxz     :     0.002629
      dyz     :     0.006957
      dx2y2   :     0.005220
      dxy     :     0.008434
  1 H s       :     0.785663  s :     0.785663
  2 H s       :     0.789404  s :     0.789404
  3 H s       :     0.741655  s :     0.741655
  4 C s       :     2.779514  s :     2.779514
      pz      :     0.745043  p :     2.208608
      px      :     0.710416
      py      :     0.753149
      dz2     :     0.023498  d :     0.112964
      dxz     :     0.020036
      dyz     :     0.025186
      dx2y2   :     0.025009
      dxy     :     0.019235
  5 O s       :     3.938965  s :     3.938965
      pz      :     1.374497  p :     4.575123
      px      :     1.550628
      py      :     1.649998
      dz2     :     0.008094  d :     0.024832
      dxz     :     0.005158
      dyz     :     0.004725
      dx2y2   :     0.002914
      dxy     :     0.003942
  6 N s       :     3.048946  s :     3.048946
      pz      :     1.264375  p :     3.715382
      px      :     1.261516
      py      :     1.189492
      dz2     :     0.006038  d :     0.037803
      dxz     :     0.007040
      dyz     :     0.009135
      dx2y2   :     0.007281
      dxy     :     0.008309
  7 C s       :     4.175191  s :     4.175191
      pz      :     1.036330  p :     3.151163
      px      :     0.950754
      py      :     1.164080
      dz2     :     0.008584  d :     0.053177
      dxz     :     0.011327
      dyz     :     0.009264
      dx2y2   :     0.012143
      dxy     :     0.011859
  8 H s       :     0.739338  s :     0.739338
  9 H s       :     0.734884  s :     0.734884
 10 C s       :     3.608078  s :     3.608078
      pz      :     1.019760  p :     3.086786
      px      :     1.015745
      py      :     1.051281
      dz2     :     0.006409  d :     0.051568
      dxz     :     0.013505
      dyz     :     0.013384
      dx2y2   :     0.004175
      dxy     :     0.014096
 11 H s       :     0.798747  s :     0.798747
 12 C s       :     2.787806  s :     2.787806
      pz      :     0.727387  p :     2.186375
      px      :     0.717615
      py      :     0.741373
      dz2     :     0.023839  d :     0.107931
      dxz     :     0.033992
      dyz     :     0.020075
      dx2y2   :     0.015356
      dxy     :     0.014669
 13 N s       :     3.355629  s :     3.355629
      pz      :     1.225235  p :     3.785494
      px      :     1.203890
      py      :     1.356369
      dz2     :     0.006190  d :     0.037013
      dxz     :     0.009647
      dyz     :     0.007600
      dx2y2   :     0.006512
      dxy     :     0.007064
 14 O s       :     3.942104  s :     3.942104
      pz      :     1.307122  p :     4.537730
      px      :     1.728605
      py      :     1.502003
      dz2     :     0.008890  d :     0.024963
      dxz     :     0.005261
      dyz     :     0.007053
      dx2y2   :     0.001889
      dxy     :     0.001869
 15 C s       :     3.442892  s :     3.442892
      pz      :     1.021817  p :     3.064458
      px      :     0.913354
      py      :     1.129287
      dz2     :     0.003123  d :     0.048744
      dxz     :     0.013921
      dyz     :     0.013849
      dx2y2   :     0.012616
      dxy     :     0.005235
 16 H s       :     0.821034  s :     0.821034
 17 H s       :     0.802318  s :     0.802318
 18 H s       :     0.757411  s :     0.757411
 19 C s       :     3.399291  s :     3.399291
      pz      :     0.935069  p :     3.064591
      px      :     1.114346
      py      :     1.015176
      dz2     :     0.009021  d :     0.049089
      dxz     :     0.010564
      dyz     :     0.012532
      dx2y2   :     0.007425
      dxy     :     0.009547
 20 H s       :     0.817789  s :     0.817789
 21 H s       :     0.772031  s :     0.772031
 22 H s       :     0.786793  s :     0.786793
 23 C s       :     2.897066  s :     2.897066
      pz      :     0.745523  p :     2.330644
      px      :     0.789428
      py      :     0.795693
      dz2     :     0.042590  d :     0.136943
      dxz     :     0.038869
      dyz     :     0.035133
      dx2y2   :     0.009024
      dxy     :     0.011327
 24 O s       :     3.882941  s :     3.882941
      pz      :     1.279029  p :     4.664610
      px      :     1.719914
      py      :     1.665667
      dz2     :     0.008082  d :     0.021393
      dxz     :     0.006231
      dyz     :     0.006726
      dx2y2   :     0.000165
      dxy     :     0.000189
 25 H s       :     0.779860  s :     0.779860
 26 O s       :     3.895958  s :     3.895958
      pz      :     1.576745  p :     4.657752
      px      :     1.532811
      py      :     1.548196
      dz2     :     0.004072  d :     0.021448
      dxz     :     0.005162
      dyz     :     0.004548
      dx2y2   :     0.004422
      dxy     :     0.003244


                     *******************************
                     * LOEWDIN POPULATION ANALYSIS *
                     *******************************

----------------------
LOEWDIN ATOMIC CHARGES
----------------------
   0 C :   -0.477117
   1 H :    0.204378
   2 H :    0.202426
   3 H :    0.227718
   4 C :    0.107017
   5 O :   -0.421332
   6 N :   -0.282653
   7 C :   -0.240111
   8 H :    0.259790
   9 H :    0.255482
  10 C :   -0.257198
  11 H :    0.223571
  12 C :    0.123191
  13 N :   -0.364645
  14 O :   -0.384054
  15 C :   -0.360872
  16 H :    0.187026
  17 H :    0.194433
  18 H :    0.230492
  19 C :   -0.367931
  20 H :    0.191842
  21 H :    0.215421
  22 H :    0.200711
  23 C :    0.114167
  24 O :   -0.501626
  25 H :    0.230883
  26 O :   -0.511010

-------------------------------
LOEWDIN REDUCED ORBITAL CHARGES
-------------------------------
  0 C s       :     2.992445  s :     2.992445
      pz      :     1.151226  p :     3.422764
      px      :     1.116735
      py      :     1.154802
      dz2     :     0.015916  d :     0.061908
      dxz     :     0.005784
      dyz     :     0.013021
      dx2y2   :     0.010480
      dxy     :     0.016707
  1 H s       :     0.795622  s :     0.795622
  2 H s       :     0.797574  s :     0.797574
  3 H s       :     0.772282  s :     0.772282
  4 C s       :     2.794429  s :     2.794429
      pz      :     0.915360  p :     2.838026
      px      :     0.963742
      py      :     0.958923
      dz2     :     0.048339  d :     0.260529
      dxz     :     0.047622
      dyz     :     0.063438
      dx2y2   :     0.058893
      dxy     :     0.042236
  5 O s       :     3.559805  s :     3.559805
      pz      :     1.493542  p :     4.806995
      px      :     1.626046
      py      :     1.687407
      dz2     :     0.013193  d :     0.054532
      dxz     :     0.015575
      dyz     :     0.011902
      dx2y2   :     0.005893
      dxy     :     0.007969
  6 N s       :     3.100696  s :     3.100696
      pz      :     1.409273  p :     4.083478
      px      :     1.378168
      py      :     1.296038
      dz2     :     0.014438  d :     0.098479
      dxz     :     0.016683
      dyz     :     0.024897
      dx2y2   :     0.019108
      dxy     :     0.023354
  7 C s       :     2.890599  s :     2.890599
      pz      :     1.109784  p :     3.237102
      px      :     1.022848
      py      :     1.104470
      dz2     :     0.017459  d :     0.112410
      dxz     :     0.025904
      dyz     :     0.018421
      dx2y2   :     0.026115
      dxy     :     0.024510
  8 H s       :     0.740210  s :     0.740210
  9 H s       :     0.744518  s :     0.744518
 10 C s       :     2.919640  s :     2.919640
      pz      :     1.056564  p :     3.228822
      px      :     1.072255
      py      :     1.100004
      dz2     :     0.013811  d :     0.108736
      dxz     :     0.028766
      dyz     :     0.027599
      dx2y2   :     0.007487
      dxy     :     0.031072
 11 H s       :     0.776429  s :     0.776429
 12 C s       :     2.801932  s :     2.801932
      pz      :     0.984534  p :     2.824605
      px      :     0.988672
      py      :     0.851399
      dz2     :     0.053116  d :     0.250272
      dxz     :     0.081130
      dyz     :     0.048203
      dx2y2   :     0.033814
      dxy     :     0.034009
 13 N s       :     3.129506  s :     3.129506
      pz      :     1.358488  p :     4.139182
      px      :     1.344683
      py      :     1.436011
      dz2     :     0.015923  d :     0.095957
      dxz     :     0.024236
      dyz     :     0.020046
      dx2y2   :     0.016427
      dxy     :     0.019325
 14 O s       :     3.560187  s :     3.560187
      pz      :     1.471911  p :     4.770298
      px      :     1.754150
      py      :     1.544237
      dz2     :     0.019257  d :     0.053569
      dxz     :     0.010545
      dyz     :     0.017143
      dx2y2   :     0.003440
      dxy     :     0.003184
 15 C s       :     2.962501  s :     2.962501
      pz      :     1.108809  p :     3.301508
      px      :     1.033154
      py      :     1.159546
      dz2     :     0.006235  d :     0.096863
      dxz     :     0.028565
      dyz     :     0.026885
      dx2y2   :     0.025112
      dxy     :     0.010068
 16 H s       :     0.812974  s :     0.812974
 17 H s       :     0.805567  s :     0.805567
 18 H s       :     0.769508  s :     0.769508
 19 C s       :     2.961149  s :     2.961149
      pz      :     1.051754  p :     3.309172
      px      :     1.167155
      py      :     1.090263
      dz2     :     0.018688  d :     0.097610
      dxz     :     0.020700
      dyz     :     0.025327
      dx2y2   :     0.014288
      dxy     :     0.018608
 20 H s       :     0.808158  s :     0.808158
 21 H s       :     0.784579  s :     0.784579
 22 H s       :     0.799289  s :     0.799289
 23 C s       :     2.787602  s :     2.787602
      pz      :     1.017351  p :     2.786426
      px      :     0.902083
      py      :     0.866992
      dz2     :     0.102093  d :     0.311805
      dxz     :     0.088281
      dyz     :     0.076680
      dx2y2   :     0.017574
      dxy     :     0.027176
 24 O s       :     3.584488  s :     3.584488
      pz      :     1.471813  p :     4.869339
      px      :     1.723961
      py      :     1.673565
      dz2     :     0.025311  d :     0.047799
      dxz     :     0.010857
      dyz     :     0.011089
      dx2y2   :     0.000191
      dxy     :     0.000351
 25 H s       :     0.769117  s :     0.769117
 26 O s       :     3.601500  s :     3.601500
      pz      :     1.651148  p :     4.861677
      px      :     1.607183
      py      :     1.603345
      dz2     :     0.008309  d :     0.047833
      dxz     :     0.013715
      dyz     :     0.010770
      dx2y2   :     0.006234
      dxy     :     0.008805


                      *****************************
                      * MAYER POPULATION ANALYSIS *
                      *****************************

  NA   - Mulliken gross atomic population
  ZA   - Total nuclear charge
  QA   - Mulliken gross atomic charge
  VA   - Mayer's total valence
  BVA  - Mayer's bonded valence
  FA   - Mayer's free valence

  ATOM       NA         ZA         QA         VA         BVA        FA
  0 C      6.9621     6.0000    -0.9621     3.1337     3.1337     0.0000
  1 H      0.7857     1.0000     0.2143     0.9038     0.9038     0.0000
  2 H      0.7894     1.0000     0.2106     0.9140     0.9140     0.0000
  3 H      0.7417     1.0000     0.2583     0.8891     0.8891     0.0000
  4 C      5.1011     6.0000     0.8989     3.0208     3.0208    -0.0000
  5 O      8.5389     8.0000    -0.5389     1.8027     1.8027     0.0000
  6 N      6.8021     7.0000     0.1979     2.3828     2.3828    -0.0000
  7 C      7.3795     6.0000    -1.3795     2.8674     2.8674     0.0000
  8 H      0.7393     1.0000     0.2607     0.8983     0.8983     0.0000
  9 H      0.7349     1.0000     0.2651     0.8869     0.8869     0.0000
 10 C      6.7464     6.0000    -0.7464     3.2747     3.2747     0.0000
 11 H      0.7987     1.0000     0.2013     0.9125     0.9125    -0.0000
 12 C      5.0821     6.0000     0.9179     2.7953     2.7953    -0.0000
 13 N      7.1781     7.0000    -0.1781     2.6900     2.6900    -0.0000
 14 O      8.5048     8.0000    -0.5048     1.8738     1.8738     0.0000
 15 C      6.5561     6.0000    -0.5561     3.5659     3.5659     0.0000
[...]
     70      -0.000316  -0.000014   0.000699   0.000295  -0.000028   0.000076
     71      -0.000680   0.000090  -0.001349   0.000784  -0.000177  -0.000395
     72      -0.000275  -0.000045   0.000113   0.000116  -0.000029   0.000076
     73       0.000321  -0.000022   0.000107  -0.000274   0.000004  -0.000032
     74       0.000263  -0.000036   0.000515  -0.000370   0.000088   0.000113
     75       0.103338   0.002100  -0.596839   0.009395   0.004233   0.061061
     76       0.080607   0.001679  -0.469401   0.007120   0.003592   0.043615
     77      -0.097695  -0.001890   0.567489  -0.009785  -0.003935  -0.063953
     78       0.000201  -0.000042   0.000286  -0.000081  -0.000003   0.000220
     79      -0.000065   0.000017  -0.000276  -0.000007   0.000016  -0.000002
     80       0.000235  -0.000037   0.000554  -0.000223   0.000031   0.000203
                 78         79         80    
      0      -0.005729   0.000029  -0.000012
      1       0.028061  -0.000039  -0.000008
      2      -0.021055   0.000089  -0.000025
      3      -0.016096   0.000144  -0.000067
      4       0.027914  -0.000224   0.000101
      5       0.089761  -0.000863   0.000425
      6      -0.046556  -0.000010   0.000073
      7      -0.277837   0.000284   0.000185
      8       0.186111  -0.000208  -0.000103
      9       0.135547  -0.000699   0.000262
     10      -0.094833   0.000442  -0.000167
     11      -0.011927   0.000049  -0.000019
     12      -0.001213  -0.000038   0.000023
     13       0.000072   0.000063  -0.000049
     14      -0.000736  -0.000066   0.000053
     15       0.000175   0.000024  -0.000016
     16      -0.000005  -0.000019   0.000017
     17       0.000124   0.000028  -0.000020
     18       0.000096   0.000076  -0.000024
     19      -0.000083  -0.000075   0.000051
     20       0.000044  -0.000060   0.000027
     21       0.000470  -0.002516   0.001109
     22       0.000172   0.004474  -0.001934
     23      -0.000165   0.000150   0.000125
     24       0.000728   0.000422  -0.000993
     25      -0.001865  -0.004520   0.002685
     26       0.003789   0.006819  -0.004705
     27       0.000170   0.023250  -0.009365
     28       0.001139  -0.054882   0.022181
     29       0.001544  -0.015563   0.006034
     30      -0.046990   0.000471  -0.000293
     31      -0.058442   0.000530  -0.000337
     32      -0.030375   0.000284  -0.000189
     33       0.430703  -0.004034   0.002602
     34       0.606114  -0.005539   0.003585
     35       0.490380  -0.004570   0.002954
     36       0.000169  -0.000489   0.000471
     37       0.000042   0.000024  -0.000341
     38      -0.000026  -0.000038  -0.000914
     39      -0.000039  -0.000089   0.000035
     40      -0.000022  -0.000350  -0.000261
     41       0.000003  -0.000462  -0.000291
     42      -0.000084  -0.000111  -0.000683
     43       0.000043  -0.000062  -0.000260
     44       0.000026   0.000096   0.000309
     45       0.000080  -0.000824  -0.003024
     46       0.000120  -0.022115  -0.056087
     47       0.000108  -0.023962  -0.060188
     48      -0.001003   0.059794   0.144172
     49       0.000004  -0.004144  -0.009378
     50      -0.000640   0.038084   0.095333
     51       0.000074  -0.008163  -0.021062
     52      -0.000578   0.038360   0.097222
     53       0.000279  -0.021098  -0.050628
     54       0.000160  -0.031577  -0.080458
     55      -0.000934   0.232511   0.591636
     56      -0.001083   0.266889   0.678056
     57      -0.000458  -0.051594   0.019993
     58      -0.000461  -0.044903   0.017909
     59       0.000536   0.045956  -0.017795
     60       0.000545   0.157495  -0.061802
     61       0.000046   0.028358  -0.010812
     62       0.000382   0.083856  -0.031077
     63       0.005604   0.523742  -0.206077
     64       0.004584   0.431112  -0.169922
     65      -0.006208  -0.591994   0.233818
     66      -0.000635  -0.062190   0.024858
     67       0.001027   0.084492  -0.034266
     68      -0.000276  -0.024514   0.010316
     69      -0.001465   0.000043  -0.000033
     70      -0.000133  -0.000025   0.000011
     71      -0.001112  -0.000005  -0.000026
     72       0.000132  -0.000041   0.000026
     73       0.000054   0.000025  -0.000007
     74       0.000460   0.000006   0.000011
     75       0.136753  -0.001395   0.000876
     76       0.097733  -0.000907   0.000564
     77      -0.140915   0.001362  -0.000865
     78       0.000419  -0.000011   0.000014
     79       0.000108   0.000007  -0.000008
     80       0.000499  -0.000004   0.000013


-----------
IR SPECTRUM
-----------

 Mode   freq       eps      Int      T**2         TX        TY        TZ
       cm**-1   L/(mol*cm) km/mol    a.u.
----------------------------------------------------------------------------
  6:     19.57   0.000179    0.90  0.002853  ( 0.049825 -0.013629  0.013595)
  7:     26.15   0.001304    6.59  0.015561  ( 0.116566  0.043281  0.009997)
  8:     36.78   0.000133    0.67  0.001127  (-0.003068 -0.027282 -0.019319)
  9:     46.16   0.002085   10.54  0.014097  (-0.020888 -0.099821  0.060803)
 10:     81.85   0.001486    7.51  0.005665  (-0.067827 -0.027950  0.016837)
 11:     96.71   0.001301    6.58  0.004199  (-0.064243 -0.003495  0.007735)
 12:    101.46   0.001064    5.38  0.003273  ( 0.006484 -0.028079 -0.049417)
 13:    110.66   0.000385    1.94  0.001085  (-0.017554 -0.016525 -0.022439)
 14:    139.95   0.001280    6.47  0.002853  (-0.048890 -0.015041 -0.015396)
 15:    199.55   0.000372    1.88  0.000582  ( 0.016981 -0.010507  0.013537)
 16:    207.98   0.002060   10.41  0.003092  ( 0.042674 -0.024798  0.025604)
 17:    213.71   0.000253    1.28  0.000370  (-0.004850 -0.014111 -0.012137)
 18:    255.03   0.000110    0.55  0.000134  ( 0.005514  0.010127 -0.001116)
 19:    319.79   0.002276   11.50  0.002221  ( 0.000833  0.044983 -0.014036)
 20:    349.70   0.000918    4.64  0.000820  ( 0.027730  0.005764  0.004166)
 21:    388.64   0.001099    5.55  0.000883  ( 0.027774  0.010074 -0.003117)
 22:    401.46   0.000326    1.65  0.000253  (-0.012997  0.009045 -0.001616)
 23:    424.72   0.000890    4.50  0.000654  (-0.015896 -0.016047  0.011983)
 24:    443.96   0.000482    2.43  0.000339  (-0.016550  0.007651  0.002474)
 25:    531.35   0.005367   27.12  0.003152  (-0.044711 -0.031994 -0.011367)
 26:    564.22   0.001238    6.26  0.000685  ( 0.011320 -0.021284  0.010170)
 27:    572.47   0.001092    5.52  0.000595  (-0.004754 -0.000557 -0.023921)
 28:    591.65   0.000477    2.41  0.000252  (-0.004251 -0.010007 -0.011552)
 29:    623.55   0.001659    8.38  0.000830  (-0.028124  0.004410  0.004441)
 30:    640.20   0.003179   16.07  0.001550  ( 0.017869 -0.033223  0.011260)
 31:    700.18   0.004046   20.45  0.001803  ( 0.025776 -0.019221 -0.027740)
 32:    806.98   0.001647    8.32  0.000637  (-0.020272 -0.001123  0.014992)
 33:    840.22   0.003121   15.77  0.001159  (-0.025665  0.020730  0.008402)
 34:    872.02   0.006091   30.78  0.002180  ( 0.029729 -0.035418  0.006448)
 35:    966.41   0.000094    0.48  0.000030  ( 0.002388  0.003057 -0.003927)
 36:    977.75   0.001524    7.70  0.000487  ( 0.016026 -0.002214  0.014992)
 37:    995.25   0.009889   49.98  0.003101  ( 0.027211  0.046923 -0.012593)
 38:   1018.01   0.005134   25.94  0.001574  ( 0.016533 -0.025376  0.025621)
 39:   1062.45   0.000725    3.67  0.000213  ( 0.013299 -0.002950 -0.005241)
 40:   1087.67   0.001480    7.48  0.000425  (-0.005573  0.012801  0.015156)
 41:   1103.88   0.005425   27.42  0.001534  ( 0.025659  0.029121  0.005224)
 42:   1132.89   0.000437    2.21  0.000120  ( 0.003427 -0.003929 -0.009656)
 43:   1153.84   0.037639  190.21  0.010180  (-0.073450 -0.064135 -0.025913)
 44:   1178.62   0.000677    3.42  0.000179  (-0.005459 -0.008965  0.008310)
 45:   1223.11   0.004019   20.31  0.001025  (-0.024765  0.009128 -0.018133)
 46:   1260.70   0.016510   83.43  0.004087  ( 0.011573  0.060223 -0.018056)
 47:   1295.01   0.007643   38.62  0.001842  ( 0.040807  0.005176 -0.012235)
 48:   1311.02   0.009033   45.65  0.002150  (-0.004574 -0.042691  0.017511)
 49:   1325.49   0.003174   16.04  0.000747  ( 0.025231  0.007109  0.007758)
 50:   1354.77   0.030842  155.86  0.007104  (-0.052864  0.063771  0.015582)
 51:   1373.07   0.021945  110.90  0.004988  ( 0.029064 -0.064236 -0.004068)
 52:   1406.56   0.000380    1.92  0.000084  ( 0.006416  0.004298  0.004965)
 53:   1426.06   0.035112  177.44  0.007684  ( 0.069262  0.043254  0.031866)
 54:   1446.52   0.004150   20.97  0.000895  (-0.029062 -0.005355  0.004684)
 55:   1480.48   0.010036   50.72  0.002115  (-0.006113 -0.029718  0.034566)
 56:   1487.28   0.006424   32.46  0.001348  (-0.022347 -0.019763 -0.021397)
 57:   1489.91   0.005521   27.90  0.001156  ( 0.022151  0.011728 -0.022984)
 58:   1496.99   0.025397  128.34  0.005294  (-0.037321 -0.062141 -0.006312)
 59:   1510.77   0.004691   23.71  0.000969  (-0.028668 -0.006245  0.010398)
 60:   1516.28   0.000545    2.75  0.000112  ( 0.000242 -0.009640 -0.004376)
 61:   1518.19   0.003482   17.60  0.000716  (-0.025791 -0.004201  0.005738)
 62:   1520.69   0.003298   16.67  0.000677  (-0.019695 -0.004882 -0.016281)
 63:   1527.32   0.001694    8.56  0.000346  (-0.004310 -0.017403  0.004972)
 64:   1548.86   0.009142   46.20  0.001842  (-0.033066 -0.025187 -0.010687)
 65:   1689.72   0.019733   99.72  0.003644  ( 0.019813  0.056793  0.005124)
 66:   1698.59   0.180972  914.56  0.033248  (-0.078265  0.064051 -0.151724)
 67:   1735.01   0.059808  302.24  0.010757  ( 0.011630  0.069925  0.075713)
 68:   2995.83   0.014464   73.10  0.001507  ( 0.026645  0.019783 -0.020133)
 69:   3006.62   0.020815  105.19  0.002160  (-0.007506 -0.044851 -0.009616)
 70:   3048.62   0.002894   14.63  0.000296  ( 0.010070  0.010933  0.008681)
 71:   3049.41   0.013349   67.46  0.001366  ( 0.032532 -0.007388  0.015912)
 72:   3052.93   0.012217   61.74  0.001249  ( 0.032758  0.010666  0.007871)
 73:   3066.96   0.010660   53.87  0.001085  (-0.026173 -0.003162 -0.019741)
 74:   3071.77   0.006271   31.69  0.000637  ( 0.008266  0.012408 -0.020368)
 75:   3107.44   0.001270    6.42  0.000128  ( 0.001153  0.011226 -0.000476)
 76:   3110.91   0.002158   10.90  0.000216  ( 0.008351 -0.003251 -0.011668)
 77:   3149.96   0.004959   25.06  0.000491  (-0.006667 -0.020697  0.004295)
 78:   3158.47   0.003164   15.99  0.000313  (-0.009678 -0.004874 -0.013969)
 79:   3167.56   0.001137    5.75  0.000112  (-0.004953 -0.007246  0.005916)
 80:   3168.80   0.001329    6.71  0.000131  ( 0.007863  0.001773 -0.008116)

* The epsilon (eps) is given for a Dirac delta lineshape.
** The dipole moment derivative (T) already includes vibrational overlap.

The first frequency considered to be a vibration is 6
The total number of vibrations considered is 75


--------------------------
THERMOCHEMISTRY AT 298.15K
--------------------------

Temperature         ... 298.15 K
Pressure            ... 1.00 atm
Total Mass          ... 201.20 AMU

Throughout the following assumptions are being made:
  (1) The electronic state is orbitally nondegenerate
  (2) There are no thermally accessible electronically excited states
  (3) Hindered rotations indicated by low frequency modes are not
      treated as such but are treated as vibrations and this may
      cause some error
  (4) All equations used are the standard statistical mechanics
      equations for an ideal gas
  (5) All vibrations are strictly harmonic

freq.      19.57  E(vib)   ...       0.56 
freq.      26.15  E(vib)   ...       0.56 
freq.      36.78  E(vib)   ...       0.54 
freq.      46.16  E(vib)   ...       0.53 
freq.      81.85  E(vib)   ...       0.48 
freq.      96.71  E(vib)   ...       0.46 
freq.     101.46  E(vib)   ...       0.46 
freq.     110.66  E(vib)   ...       0.45 
freq.     139.95  E(vib)   ...       0.41 
freq.     199.55  E(vib)   ...       0.35 
freq.     207.98  E(vib)   ...       0.34 
freq.     213.71  E(vib)   ...       0.34 
freq.     255.03  E(vib)   ...       0.30 
freq.     319.79  E(vib)   ...       0.25 
freq.     349.70  E(vib)   ...       0.23 
freq.     388.64  E(vib)   ...       0.20 
freq.     401.46  E(vib)   ...       0.19 
freq.     424.72  E(vib)   ...       0.18 
freq.     443.96  E(vib)   ...       0.17 
freq.     531.35  E(vib)   ...       0.13 
freq.     564.22  E(vib)   ...       0.11 
freq.     572.47  E(vib)   ...       0.11 
freq.     591.65  E(vib)   ...       0.10 
freq.     623.55  E(vib)   ...       0.09 
freq.     640.20  E(vib)   ...       0.09 
freq.     700.18  E(vib)   ...       0.07 
freq.     806.98  E(vib)   ...       0.05 
freq.     840.22  E(vib)   ...       0.04 
freq.     872.02  E(vib)   ...       0.04 
freq.     966.41  E(vib)   ...       0.03 
freq.     977.75  E(vib)   ...       0.03 
freq.     995.25  E(vib)   ...       0.02 
freq.    1018.01  E(vib)   ...       0.02 
freq.    1062.45  E(vib)   ...       0.02 
freq.    1087.67  E(vib)   ...       0.02 
freq.    1103.88  E(vib)   ...       0.02 
freq.    1132.89  E(vib)   ...       0.01 
freq.    1153.84  E(vib)   ...       0.01 
freq.    1178.62  E(vib)   ...       0.01 
freq.    1223.11  E(vib)   ...       0.01 
freq.    1260.70  E(vib)   ...       0.01 
freq.    1295.01  E(vib)   ...       0.01 
freq.    1311.02  E(vib)   ...       0.01 
freq.    1325.49  E(vib)   ...       0.01 
freq.    1354.77  E(vib)   ...       0.01 
freq.    1373.07  E(vib)   ...       0.01 
freq.    1406.56  E(vib)   ...       0.00 
freq.    1426.06  E(vib)   ...       0.00 
freq.    1446.52  E(vib)   ...       0.00 
freq.    1480.48  E(vib)   ...       0.00 
freq.    1487.28  E(vib)   ...       0.00 
freq.    1489.91  E(vib)   ...       0.00 
freq.    1496.99  E(vib)   ...       0.00 
freq.    1510.77  E(vib)   ...       0.00 
freq.    1516.28  E(vib)   ...       0.00 
freq.    1518.19  E(vib)   ...       0.00 
freq.    1520.69  E(vib)   ...       0.00 
freq.    1527.32  E(vib)   ...       0.00 
freq.    1548.86  E(vib)   ...       0.00 
freq.    1689.72  E(vib)   ...       0.00 
freq.    1698.59  E(vib)   ...       0.00 
freq.    1735.01  E(vib)   ...       0.00 
freq.    2995.83  E(vib)   ...       0.00 
freq.    3006.62  E(vib)   ...       0.00 
freq.    3048.62  E(vib)   ...       0.00 
freq.    3049.41  E(vib)   ...       0.00 
freq.    3052.93  E(vib)   ...       0.00 
freq.    3066.96  E(vib)   ...       0.00 
freq.    3071.77  E(vib)   ...       0.00 
freq.    3107.44  E(vib)   ...       0.00 
freq.    3110.91  E(vib)   ...       0.00 
freq.    3149.96  E(vib)   ...       0.00 
freq.    3158.47  E(vib)   ...       0.00 
freq.    3167.56  E(vib)   ...       0.00 
freq.    3168.80  E(vib)   ...       0.00 

------------
INNER ENERGY
------------

The inner energy is: U= E(el) + E(ZPE) + E(vib) + E(rot) + E(trans)
    E(el)   - is the total energy from the electronic structure calculation
              = E(kin-el) + E(nuc-el) + E(el-el) + E(nuc-nuc)
    E(ZPE)  - the the zero temperature vibrational energy from the frequency calculation
    E(vib)  - the the finite temperature correction to E(ZPE) due to population
              of excited vibrational states
    E(rot)  - is the rotational thermal energy
    E(trans)- is the translational thermal energy

Summary of contributions to the inner energy U:
Electronic energy                ...   -722.84330554 Eh
Zero point energy                ...      0.21661073 Eh     135.92 kcal/mol
Thermal vibrational correction   ...      0.01295219 Eh       8.13 kcal/mol
Thermal rotational correction    ...      0.00141627 Eh       0.89 kcal/mol
Thermal translational correction ...      0.00141627 Eh       0.89 kcal/mol
-----------------------------------------------------------------------
Total thermal energy                   -722.61091008 Eh


Summary of corrections to the electronic energy:
(perhaps to be used in another calculation)
Total thermal correction                  0.01578473 Eh       9.91 kcal/mol
Non-thermal (ZPE) correction              0.21661073 Eh     135.92 kcal/mol
-----------------------------------------------------------------------
Total correction                          0.23239546 Eh     145.83 kcal/mol


--------
ENTHALPY
--------

The enthalpy is H = U + kB*T
                kB is Boltzmann's constant
Total free energy                 ...   -722.61091008 Eh 
Thermal Enthalpy correction       ...      0.00094421 Eh       0.59 kcal/mol
-----------------------------------------------------------------------
Total Enthalpy                    ...   -722.60996587 Eh


Note: Only C1 symmetry has been detected, increase convergence thresholds 
      if your molecule has a higher symmetry. Symmetry factor of 1.0 is   
      used for the rotational entropy correction. 
 

Note: Rotational entropy computed according to Herzberg 
Infrared and Raman Spectra, Chapter V,1, Van Nostrand Reinhold, 1945 
Point Group:  C1, Symmetry Number:   1  
Rotational constants in cm-1:     0.029697     0.014693     0.012038 

Vibrational entropy computed according to the QRRHO of S. Grimme
Chem.Eur.J. 2012 18 9955


-------
ENTROPY
-------

The entropy contributions are T*S = T*(S(el)+S(vib)+S(rot)+S(trans))
     S(el)   - electronic entropy
     S(vib)  - vibrational entropy
     S(rot)  - rotational entropy
     S(trans)- translational entropy
The entropies will be listed as multiplied by the temperature to get
units of energy

Electronic entropy                ...      0.00000000 Eh      0.00 kcal/mol
Vibrational entropy               ...      0.02401334 Eh     15.07 kcal/mol
Rotational entropy                ...      0.01524989 Eh      9.57 kcal/mol
Translational entropy             ...      0.01986141 Eh     12.46 kcal/mol
-----------------------------------------------------------------------
Final entropy term                ...      0.05912465 Eh     37.10 kcal/mol

In case the symmetry of your molecule has not been determined correctly
or in case you have a reason to use a different symmetry number we print 
out the resulting rotational entropy values for sn=1,12 :
 --------------------------------------------------------
|  sn= 1 | S(rot)=       0.01524989 Eh      9.57 kcal/mol|
|  sn= 2 | S(rot)=       0.01459544 Eh      9.16 kcal/mol|
|  sn= 3 | S(rot)=       0.01421260 Eh      8.92 kcal/mol|
|  sn= 4 | S(rot)=       0.01394098 Eh      8.75 kcal/mol|
|  sn= 5 | S(rot)=       0.01373029 Eh      8.62 kcal/mol|
|  sn= 6 | S(rot)=       0.01355815 Eh      8.51 kcal/mol|
|  sn= 7 | S(rot)=       0.01341260 Eh      8.42 kcal/mol|
|  sn= 8 | S(rot)=       0.01328652 Eh      8.34 kcal/mol|
|  sn= 9 | S(rot)=       0.01317532 Eh      8.27 kcal/mol|
|  sn=10 | S(rot)=       0.01307584 Eh      8.21 kcal/mol|
|  sn=11 | S(rot)=       0.01298585 Eh      8.15 kcal/mol|
|  sn=12 | S(rot)=       0.01290369 Eh      8.10 kcal/mol|
 --------------------------------------------------------


-------------------
GIBBS FREE ENERGY
-------------------

The Gibbs free energy is G = H - T*S

Total enthalpy                    ...   -722.60996587 Eh 
Total entropy correction          ...     -0.05912465 Eh    -37.10 kcal/mol
-----------------------------------------------------------------------
Final Gibbs free energy         ...   -722.66909052 Eh

For completeness - the Gibbs free energy minus the electronic energy
G-E(el)                           ...      0.17421502 Eh    109.32 kcal/mol


Timings for individual modules:

Sum of individual times         ...     2524.992 sec (=  42.083 min)
GTO integral calculation        ...       24.731 sec (=   0.412 min)   1.0 %
SCF iterations                  ...     1290.287 sec (=  21.505 min)  51.1 %
SCF Gradient evaluation         ...      343.099 sec (=   5.718 min)  13.6 %
Geometry relaxation             ...        1.404 sec (=   0.023 min)   0.1 %
Analytical frequency calculation...      865.472 sec (=  14.425 min)  34.3 %
                             ****ORCA TERMINATED NORMALLY****
TOTAL RUN TIME: 0 days 0 hours 42 minutes 13 seconds 130 msec
