
                                 *****************
                                 * O   R   C   A *
                                 *****************

                                            #,                                       
                                            ###                                      
                                            ####                                     
                                            #####                                    
                                            ######                                   
                                           ########,                                 
                                     ,,################,,,,,                         
                               ,,#################################,,                 
                          ,,##########################################,,             
                       ,#########################################, ''#####,          
                    ,#############################################,,   '####,        
                  ,##################################################,,,,####,       
                ,###########''''           ''''###############################       
              ,#####''   ,,,,##########,,,,          '''####'''          '####       
            ,##' ,,,,###########################,,,                        '##       
           ' ,,###''''                  '''############,,,                           
         ,,##''                                '''############,,,,        ,,,,,,###''
      ,#''                                            '''#######################'''  
     '                                                          ''''####''''         
             ,#######,   #######,   ,#######,      ##                                
            ,#'     '#,  ##    ##  ,#'     '#,    #''#        ######   ,####,        
            ##       ##  ##   ,#'  ##            #'  '#       #        #'  '#        
            ##       ##  #######   ##           ,######,      #####,   #    #        
            '#,     ,#'  ##    ##  '#,     ,#' ,#      #,         ##   #,  ,#        
             '#######'   ##     ##  '#######'  #'      '#     #####' # '####'        



                  #######################################################
                  #                        -***-                        #
                  #          Department of theory and spectroscopy      #
                  #    Directorship and core code : Frank Neese         #
                  #        Max Planck Institute fuer Kohlenforschung    #
                  #                Kaiser Wilhelm Platz 1               #
                  #                 D-45470 Muelheim/Ruhr               #
                  #                      Germany                        #
                  #                                                     #
                  #                  All rights reserved                #
                  #                        -***-                        #
                  #######################################################


                         Program Version 5.0.4 -  RELEASE  -


 With contributions from (in alphabetic order):
   Daniel Aravena         : Magnetic Suceptibility
   Michael Atanasov       : Ab Initio Ligand Field Theory (pilot matlab implementation)
   Alexander A. Auer      : GIAO ZORA, VPT2 properties, NMR spectrum
   Ute Becker             : Parallelization
   Giovanni Bistoni       : ED, misc. LED, open-shell LED, HFLD
   Martin Brehm           : Molecular dynamics
   Dmytro Bykov           : SCF Hessian
   Vijay G. Chilkuri      : MRCI spin determinant printing, contributions to CSF-ICE
   Dipayan Datta          : RHF DLPNO-CCSD density
   Achintya Kumar Dutta   : EOM-CC, STEOM-CC
   Dmitry Ganyushin       : Spin-Orbit,Spin-Spin,Magnetic field MRCI
   Miquel Garcia          : C-PCM and meta-GGA Hessian, CC/C-PCM, Gaussian charge scheme
   Yang Guo               : DLPNO-NEVPT2, F12-NEVPT2, CIM, IAO-localization
   Andreas Hansen         : Spin unrestricted coupled pair/coupled cluster methods
   Benjamin Helmich-Paris : MC-RPA, TRAH-SCF, COSX integrals
   Lee Huntington         : MR-EOM, pCC
   Robert Izsak           : Overlap fitted RIJCOSX, COSX-SCS-MP3, EOM
   Marcus Kettner         : VPT2
   Christian Kollmar      : KDIIS, OOCD, Brueckner-CCSD(T), CCSD density, CASPT2, CASPT2-K
   Simone Kossmann        : Meta GGA functionals, TD-DFT gradient, OOMP2, MP2 Hessian
   Martin Krupicka        : Initial AUTO-CI
   Lucas Lang             : DCDCAS
   Marvin Lechner         : AUTO-CI (C++ implementation), FIC-MRCC
   Dagmar Lenk            : GEPOL surface, SMD
   Dimitrios Liakos       : Extrapolation schemes; Compound Job, initial MDCI parallelization
   Dimitrios Manganas     : Further ROCIS development; embedding schemes
   Dimitrios Pantazis     : SARC Basis sets
   Anastasios Papadopoulos: AUTO-CI, single reference methods and gradients
   Taras Petrenko         : DFT Hessian,TD-DFT gradient, ASA, ECA, R-Raman, ABS, FL, XAS/XES, NRVS
   Peter Pinski           : DLPNO-MP2, DLPNO-MP2 Gradient
   Christoph Reimann      : Effective Core Potentials
   Marius Retegan         : Local ZFS, SOC
   Christoph Riplinger    : Optimizer, TS searches, QM/MM, DLPNO-CCSD(T), (RO)-DLPNO pert. Triples
   Tobias Risthaus        : Range-separated hybrids, TD-DFT gradient, RPA, STAB
   Michael Roemelt        : Original ROCIS implementation
   Masaaki Saitow         : Open-shell DLPNO-CCSD energy and density
   Barbara Sandhoefer     : DKH picture change effects
   Avijit Sen             : IP-ROCIS
   Kantharuban Sivalingam : CASSCF convergence, NEVPT2, FIC-MRCI
   Bernardo de Souza      : ESD, SOC TD-DFT
   Georgi Stoychev        : AutoAux, RI-MP2 NMR, DLPNO-MP2 response
   Willem Van den Heuvel  : Paramagnetic NMR
   Boris Wezisla          : Elementary symmetry handling
   Frank Wennmohs         : Technical directorship


 We gratefully acknowledge several colleagues who have allowed us to
 interface, adapt or use parts of their codes:
   Stefan Grimme, W. Hujo, H. Kruse, P. Pracht,  : VdW corrections, initial TS optimization,
                  C. Bannwarth, S. Ehlert          DFT functionals, gCP, sTDA/sTD-DF
   Ed Valeev, F. Pavosevic, A. Kumar             : LibInt (2-el integral package), F12 methods
   Garnet Chan, S. Sharma, J. Yang, R. Olivares  : DMRG
   Ulf Ekstrom                                   : XCFun DFT Library
   Mihaly Kallay                                 : mrcc  (arbitrary order and MRCC methods)
   Jiri Pittner, Ondrej Demel                    : Mk-CCSD
   Frank Weinhold                                : gennbo (NPA and NBO analysis)
   Christopher J. Cramer and Donald G. Truhlar   : smd solvation model
   Lars Goerigk                                  : TD-DFT with DH, B97 family of functionals
   V. Asgeirsson, H. Jonsson                     : NEB implementation
   FAccTs GmbH                                   : IRC, NEB, NEB-TS, DLPNO-Multilevel, CI-OPT
                                                   MM, QMMM, 2- and 3-layer-ONIOM, Crystal-QMMM,
                                                   LR-CPCM, SF, NACMEs, symmetry and pop. for TD-DFT,
                                                   nearIR, NL-DFT gradient (VV10), updates on ESD,
                                                   ML-optimized integration grids
   S Lehtola, MJT Oliveira, MAL Marques          : LibXC Library
   Liviu Ungur et al                             : ANISO software


 Your calculation uses the libint2 library for the computation of 2-el integrals
 For citations please refer to: http://libint.valeyev.net

 Your ORCA version has been built with support for libXC version: 5.1.0
 For citations please refer to: https://tddft.org/programs/libxc/

 This ORCA versions uses:
   CBLAS   interface :  Fast vector & matrix operations
   LAPACKE interface :  Fast linear algebra routines
   SCALAPACK package :  Parallel linear algebra routines
   Shared memory     :  Shared parallel matrices
   BLAS/LAPACK       :  OpenBLAS 0.3.15  USE64BITINT DYNAMIC_ARCH NO_AFFINITY SkylakeX SINGLE_THREADED
        Core in use  :  SkylakeX
   Copyright (c) 2011-2014, The OpenBLAS Project




***************************************
The coordinates will be read from file: /users/fjb15167/WWenergy/structures/Nse.xyz
***************************************


Your calculation utilizes the atom-pairwise dispersion correction
based on tight binding partial charges (D4)
Cite in your paper:
E.Caldeweyher, C.Bannwarth, S.Grimme, J.Chem.Phys., (2017), 147, 034112.
E.Caldeweyher, S.Ehlert, A.Hansen, H.Neugebauer, S.Grimme, J.Chem.Phys., (2018), in progress.
   

================================================================================

----- Orbital basis set information -----
Your calculation utilizes the basis: 6-31G(d)
   H-He, Li-Ne : W. J. Hehre, R. Ditchfield and J.A. Pople, J. Chem. Phys. 56, 2257 (1972).
                 Note: He and Ne are unpublished basis sets taken from the Gaussian program.
                 Note: Li and B from J. D. Dill and J. A. Pople, J. Chem. Phys. 62, 2921 (1975).
   Na - Ar     : M. M. Francl, W. J. Pietro, W. J. Hehre, J. S. Binkley, M. S. Gordon, 
                 D. J. DeFrees and J. A. Pople, J. Chem. Phys. 77, 3654 (1982).
   K - Zn      : V. A. Rassolov, J. A. Pople, M. A. Ratner, and T. L. Windus, J. Chem. Phys. 109, 1223 (1998).

----- AuxJ basis set information -----
Your calculation utilizes the AutoAux generation procedure.
  G. L. Stoychev, A. A. Auer, F. Neese, J. Chem. Theory Comput. 13, 554 (2017)

----- AuxC basis set information -----
Your calculation utilizes the AutoAux generation procedure.
  G. L. Stoychev, A. A. Auer, F. Neese, J. Chem. Theory Comput. 13, 554 (2017)

----- AuxJK basis set information -----
Your calculation utilizes the AutoAux generation procedure.
  G. L. Stoychev, A. A. Auer, F. Neese, J. Chem. Theory Comput. 13, 554 (2017)

================================================================================
                                        WARNINGS
                       Please study these warnings very carefully!
================================================================================


WARNING: Geometry Optimization
  ===> : Switching off AutoStart
         For restart on a previous wavefunction, please use MOREAD

INFO   : the flag for use of the SHARK integral package has been found!

================================================================================
                                       INPUT FILE
================================================================================
NAME = Nse_octanol.inp
|  1> ! OPT FREQ B3LYP 6-31G(d) D4 AUTOAUX
|  2> ! CPCM
|  3> 
|  4> %cpcm
|  5> epsilon 9.8629 
|  6> refrac  1.4295 
|  7> end
|  8> 
|  9> %PAL NPROCS 4 END
| 10> 
| 11> %maxcore 3375
| 12> 
| 13> *xyzfile 0 1 /users/fjb15167/WWenergy/structures/Nse.xyz
| 14> 
| 15>                          ****END OF INPUT****
================================================================================

                       *****************************
                       * Geometry Optimization Run *
                       *****************************

Geometry optimization settings:
Update method            Update   .... BFGS
Choice of coordinates    CoordSys .... Z-matrix Internals
Initial Hessian          InHess   .... Almoef's Model

Convergence Tolerances:
Energy Change            TolE     ....  5.0000e-06 Eh
Max. Gradient            TolMAXG  ....  3.0000e-04 Eh/bohr
RMS Gradient             TolRMSG  ....  1.0000e-04 Eh/bohr
Max. Displacement        TolMAXD  ....  4.0000e-03 bohr
RMS Displacement         TolRMSD  ....  2.0000e-03 bohr
Strict Convergence                ....  False
------------------------------------------------------------------------------
                        ORCA OPTIMIZATION COORDINATE SETUP
------------------------------------------------------------------------------

The optimization will be done in new redundant internal coordinates
Making redundant internal coordinates   ...  (new redundants) done
Evaluating the initial hessian          ...  (Almloef) done
Evaluating the coordinates              ...  done
Calculating the B-matrix                .... done
Calculating the G-matrix                .... done
Diagonalizing the G-matrix              .... done
Small eigenvalue found = 5.825e-03
Small eigenvalue found = 8.684e-03
Small eigenvalue found = 1.606e-02
Small eigenvalue found = 1.870e-02
The first mode is                       ....   52
The number of degrees of freedom        ....   81

    -----------------------------------------------------------------
                    Redundant Internal Coordinates


    -----------------------------------------------------------------
         Definition                    Initial Value    Approx d2E/dq
    -----------------------------------------------------------------
      1. B(H   1,C   0)                  1.0902         0.359823   
      2. B(H   2,C   0)                  1.0940         0.354835   
      3. B(H   3,C   0)                  1.0901         0.359978   
      4. B(C   4,C   0)                  1.5318         0.371158   
      5. B(O   5,C   4)                  1.2186         1.050312   
      6. B(N   6,C   4)                  1.3812         0.578027   
      7. B(C   7,N   6)                  1.4584         0.435336   
      8. B(H   8,C   7)                  1.0959         0.352407   
      9. B(H   9,C   7)                  1.0913         0.358445   
     10. B(C  10,N   6)                  1.4576         0.436484   
     11. B(H  11,C  10)                  1.0913         0.358342   
     12. B(H  12,C  10)                  1.0975         0.350326   
     13. B(C  13,C  10)                  1.5212         0.385913   
     14. B(H  14,C  13)                  1.1013         0.345500   
     15. B(H  15,C  13)                  1.0943         0.354477   
     16. B(C  16,C   7)                  1.5242         0.381574   
     17. B(N  17,C  16)                  1.3648         0.613777   
     18. B(O  18,C  16)                  1.2413         0.966390   
     19. B(C  19,N  17)                  1.4545         0.441520   
     20. B(H  20,C  19)                  1.0935         0.355540   
     21. B(H  21,C  19)                  1.0982         0.349434   
     22. B(H  22,C  19)                  1.0889         0.361532   
     23. B(C  23,N  17)                  1.4573         0.436969   
     24. B(H  24,C  23)                  1.0939         0.354915   
     25. B(H  25,C  23)                  1.0875         0.363382   
     26. B(H  26,C  23)                  1.0962         0.351933   
     27. B(O  27,C  13)                  1.4297         0.483686   
     28. B(H  28,O  27)                  0.9717         0.498115   
     29. A(H   1,C   0,C   4)          111.6759         0.323932   
     30. A(H   2,C   0,H   3)          108.6436         0.290152   
     31. A(H   1,C   0,H   2)          108.7251         0.290133   
     32. A(H   1,C   0,H   3)          110.2734         0.290789   
     33. A(H   3,C   0,C   4)          106.3420         0.323955   
     34. A(H   2,C   0,C   4)          111.1285         0.323191   
     35. A(C   0,C   4,O   5)          121.1001         0.432315   
     36. A(O   5,C   4,N   6)          122.6787         0.465400   
     37. A(C   0,C   4,N   6)          116.2205         0.388908   
     38. A(C   4,N   6,C  10)          125.1306         0.397557   
     39. A(C   7,N   6,C  10)          116.6383         0.378380   
     40. A(C   4,N   6,C   7)          117.7946         0.397374   
     41. A(H   8,C   7,H   9)          109.0144         0.289646   
     42. A(N   6,C   7,H   9)          107.5226         0.330354   
     43. A(H   9,C   7,C  16)          112.9089         0.325204   
     44. A(H   8,C   7,C  16)          105.4336         0.324297   
     45. A(N   6,C   7,C  16)          111.9662         0.372036   
     46. A(N   6,C   7,H   8)          109.9601         0.329428   
     47. A(H  12,C  10,C  13)          108.3109         0.324584   
     48. A(H  11,C  10,C  13)          108.9397         0.325793   
     49. A(N   6,C  10,C  13)          114.3161         0.372930   
     50. A(H  11,C  10,H  12)          107.4788         0.289364   
     51. A(N   6,C  10,H  12)          108.1086         0.329249   
     52. A(N   6,C  10,H  11)          109.4663         0.330482   
     53. A(H  14,C  13,H  15)          107.9525         0.288246   
     54. A(H  15,C  13,O  27)          111.5062         0.335555   
     55. A(C  10,C  13,H  15)          110.4873         0.325213   
     56. A(C  10,C  13,H  14)          107.8446         0.323846   
     57. A(H  14,C  13,O  27)          111.1965         0.334127   
     58. A(C  10,C  13,O  27)          107.8031         0.379606   
     59. A(N  17,C  16,O  18)          122.8273         0.463423   
     60. A(C   7,C  16,O  18)          119.4166         0.428022   
     61. A(C   7,C  16,N  17)          117.7394         0.394920   
     62. A(C  16,N  17,C  19)          117.9451         0.402590   
     63. A(C  19,N  17,C  23)          115.6843         0.379378   
     64. A(C  16,N  17,C  23)          124.4382         0.401856   
     65. A(H  21,C  19,H  22)          109.2582         0.289651   
     66. A(H  20,C  19,H  22)          110.1757         0.290439   
     67. A(N  17,C  19,H  22)          108.5786         0.331596   
     68. A(H  20,C  19,H  21)          108.5793         0.288893   
     69. A(N  17,C  19,H  21)          110.9279         0.329735   
     70. A(N  17,C  19,H  20)          109.3174         0.330680   
     71. A(H  25,C  23,H  26)          108.4654         0.290207   
     72. A(H  24,C  23,H  26)          109.2871         0.289136   
     73. A(N  17,C  23,H  26)          110.6617         0.329558   
     74. A(H  24,C  23,H  25)          108.5701         0.290591   
     75. A(N  17,C  23,H  25)          111.5687         0.331308   
     76. A(N  17,C  23,H  24)          108.2430         0.330018   
     77. A(C  13,O  27,H  28)          107.7085         0.352185   
     78. D(O   5,C   4,C   0,H   2)    111.7775         0.010311   
     79. D(O   5,C   4,C   0,H   1)   -126.6251         0.010311   
     80. D(N   6,C   4,C   0,H   1)     53.0869         0.010311   
     81. D(N   6,C   4,C   0,H   2)    -68.5106         0.010311   
     82. D(O   5,C   4,C   0,H   3)     -6.2867         0.010311   
     83. D(N   6,C   4,C   0,H   3)    173.4253         0.010311   
     84. D(C   7,N   6,C   4,C   0)    174.7091         0.026786   
     85. D(C  10,N   6,C   4,C   0)      2.5686         0.026786   
     86. D(C   7,N   6,C   4,O   5)     -5.5839         0.026786   
     87. D(C  10,N   6,C   4,O   5)   -177.7244         0.026786   
     88. D(C  16,C   7,N   6,C   4)    126.3812         0.016159   
     89. D(H   9,C   7,N   6,C   4)      1.8045         0.016159   
     90. D(H   8,C   7,N   6,C  10)     56.0516         0.016159   
     91. D(H   9,C   7,N   6,C  10)    174.6171         0.016159   
     92. D(H   8,C   7,N   6,C   4)   -116.7610         0.016159   
     93. D(C  16,C   7,N   6,C  10)    -60.8062         0.016159   
     94. D(C  13,C  10,N   6,C   7)     87.9458         0.016244   
     95. D(C  13,C  10,N   6,C   4)    -99.8320         0.016244   
     96. D(H  12,C  10,N   6,C   7)    -32.7506         0.016244   
     97. D(H  12,C  10,N   6,C   4)    139.4716         0.016244   
     98. D(H  11,C  10,N   6,C   7)   -149.5424         0.016244   
     99. D(H  11,C  10,N   6,C   4)     22.6798         0.016244   
    100. D(O  27,C  13,C  10,H  11)    -63.9465         0.011851   
    101. D(O  27,C  13,C  10,N   6)     58.8516         0.011851   
    102. D(H  15,C  13,C  10,H  12)     57.3611         0.011851   
    103. D(H  15,C  13,C  10,H  11)    173.9791         0.011851   
    104. D(H  15,C  13,C  10,N   6)    -63.2229         0.011851   
    105. D(H  14,C  13,C  10,H  12)    -60.4106         0.011851   
    106. D(H  14,C  13,C  10,H  11)     56.2073         0.011851   
    107. D(O  27,C  13,C  10,H  12)    179.4356         0.011851   
    108. D(H  14,C  13,C  10,N   6)    179.0053         0.011851   
    109. D(O  18,C  16,C   7,H   9)   -131.8148         0.010859   
    110. D(O  18,C  16,C   7,H   8)    -12.8936         0.010859   
    111. D(O  18,C  16,C   7,N   6)    106.6581         0.010859   
    112. D(N  17,C  16,C   7,H   9)     49.6301         0.010859   
    113. D(N  17,C  16,C   7,H   8)    168.5513         0.010859   
    114. D(N  17,C  16,C   7,N   6)    -71.8969         0.010859   
    115. D(C  23,N  17,C  16,O  18)   -168.8595         0.030458   
    116. D(C  23,N  17,C  16,C   7)      9.6426         0.030458   
    117. D(C  19,N  17,C  16,O  18)     -5.3985         0.030458   
    118. D(C  19,N  17,C  16,C   7)    173.1037         0.030458   
    119. D(H  22,C  19,N  17,C  16)     20.4438         0.016623   
    120. D(H  21,C  19,N  17,C  23)     65.2720         0.016623   
    121. D(H  21,C  19,N  17,C  16)    -99.6273         0.016623   
    122. D(H  20,C  19,N  17,C  23)    -54.4322         0.016623   
    123. D(H  22,C  19,N  17,C  23)   -174.6569         0.016623   
    124. D(H  20,C  19,N  17,C  16)    140.6685         0.016623   
    125. D(H  26,C  23,N  17,C  19)    -72.8395         0.016280   
    126. D(H  26,C  23,N  17,C  16)     90.9573         0.016280   
    127. D(H  25,C  23,N  17,C  19)    166.2927         0.016280   
    128. D(H  25,C  23,N  17,C  16)    -29.9106         0.016280   
    129. D(H  24,C  23,N  17,C  19)     46.8954         0.016280   
    130. D(H  24,C  23,N  17,C  16)   -149.3078         0.016280   
    131. D(H  28,O  27,C  13,H  15)    -58.2601         0.018462   
    132. D(H  28,O  27,C  13,H  14)     62.2801         0.018462   
    133. D(H  28,O  27,C  13,C  10)   -179.7028         0.018462   
    -----------------------------------------------------------------

Number of atoms                         .... 29
Number of degrees of freedom            .... 133

         *************************************************************
         *                GEOMETRY OPTIMIZATION CYCLE   1            *
         *************************************************************
---------------------------------
CARTESIAN COORDINATES (ANGSTROEM)
---------------------------------
  C     -2.627000    1.776000   -0.500000
  H     -1.755000    2.429000   -0.542000
  H     -3.223000    2.042000    0.378000
  H     -3.241000    1.908000   -1.391000
  C     -2.226000    0.298000   -0.468000
  O     -2.684000   -0.496000   -1.271000
  N     -1.322000   -0.068000    0.510000
  C     -1.006000   -1.485000    0.648000
  H     -1.324000   -1.845000    1.633000
  H     -1.561000   -2.022000   -0.123000
  C     -0.777000    0.825000    1.525000
  H     -1.451000    1.672000    1.664000
  H     -0.736000    0.277000    2.475000
  C      0.617000    1.349000    1.215000
  H      0.915000    2.021000    2.035000
  H      1.336000    0.525000    1.176000
  C      0.495000   -1.743000    0.587000
  N      1.114000   -1.609000   -0.622000
  O      1.106000   -2.036000    1.627000
  C      2.565000   -1.703000   -0.659000
  H      2.869000   -2.256000   -1.552000
  H      3.022000   -0.705000   -0.693000
  H      2.902000   -2.222000    0.237000
  C      0.487000   -1.046000   -1.811000
  H      0.926000   -1.527000   -2.690000
  H     -0.586000   -1.223000   -1.819000
  H      0.661000    0.035000   -1.865000
  O      0.554000    2.049000   -0.030000
  H      1.446000    2.379000   -0.229000

----------------------------
CARTESIAN COORDINATES (A.U.)
----------------------------
  NO LB      ZA    FRAG     MASS         X           Y           Z
   0 C     6.0000    0    12.011   -4.964311    3.356154   -0.944863
   1 H     1.0000    0     1.008   -3.316469    4.590145   -1.024232
   2 H     1.0000    0     1.008   -6.090587    3.858821    0.714316
   3 H     1.0000    0     1.008   -6.124602    3.605597   -2.628609
   4 C     6.0000    0    12.011   -4.206530    0.563138   -0.884392
   5 O     8.0000    0    15.999   -5.072025   -0.937304   -2.401842
   6 N     7.0000    0    14.007   -2.498218   -0.128501    0.963760
   7 C     6.0000    0    12.011   -1.901064   -2.806243    1.224543
   8 H     1.0000    0     1.008   -2.501997   -3.486545    3.085923
   9 H     1.0000    0     1.008   -2.949862   -3.821026   -0.232436
  10 C     6.0000    0    12.011   -1.468317    1.559024    2.881832
  11 H     1.0000    0     1.008   -2.741993    3.159622    3.144504
  12 H     1.0000    0     1.008   -1.390838    0.523454    4.677072
  13 C     6.0000    0    12.011    1.165961    2.549241    2.296017
  14 H     1.0000    0     1.008    1.729099    3.819137    3.845593
  15 H     1.0000    0     1.008    2.524674    0.992106    2.222318
  16 C     6.0000    0    12.011    0.935414   -3.293793    1.109269
  17 N     7.0000    0    14.007    2.105155   -3.040569   -1.175410
  18 O     8.0000    0    15.999    2.090037   -3.847482    3.074584
  19 C     6.0000    0    12.011    4.847148   -3.218204   -1.245330
  20 H     1.0000    0     1.008    5.421624   -4.263222   -2.932855
  21 H     1.0000    0     1.008    5.710752   -1.332257   -1.309580
  22 H     1.0000    0     1.008    5.483985   -4.198971    0.447865
  23 C     6.0000    0    12.011    0.920297   -1.976654   -3.422294
  24 H     1.0000    0     1.008    1.749886   -2.885612   -5.083363
  25 H     1.0000    0     1.008   -1.107380   -2.311135   -3.437412
  26 H     1.0000    0     1.008    1.249109    0.066140   -3.524339
  27 O     8.0000    0    15.999    1.046908    3.872049   -0.056692
  28 H     1.0000    0     1.008    2.732544    4.495658   -0.432747

--------------------------------
INTERNAL COORDINATES (ANGSTROEM)
--------------------------------
 C      0   0   0     0.000000000000     0.00000000     0.00000000
 H      1   0   0     1.090209612873     0.00000000     0.00000000
 H      1   2   0     1.094009140730   108.72511220     0.00000000
 H      1   2   3     1.090092197936   110.27335506   119.01567465
 C      1   2   3     1.531766627134   111.67594868   237.02346708
 O      5   1   2     1.218609453435   121.10013708   233.37494446
 N      5   1   2     1.381179206331   116.22048692    53.08688263
 C      7   5   1     1.458351466554   117.79463547   174.70913823
 H      8   7   5     1.095878186661   109.96008958   243.23901906
 H      8   7   5     1.091253865973   107.52258583     1.80446666
 C      7   5   1     1.457634727907   125.13061404     2.56859919
 H     11   7   5     1.091332213398   109.46630869    22.67983302
 H     11   7   5     1.097490318864   108.10864737   139.47163010
 C     11   7   5     1.521154824467   114.31605160   260.16798893
 H     14  11   7     1.101266543576   107.84455491   179.00534127
 H     14  11   7     1.094284240954   110.48725951   296.77710697
 C      8   7   5     1.524232921833   111.96617841   126.38122932
 N     17   8   7     1.364843580781   117.73941049   288.10308111
 O     17   8   7     1.241277567670   119.41658166   106.65813705
 C     18  17   8     1.454512289395   117.94508571   173.10367286
 H     20  18  17     1.093468792422   109.31739958   140.66848039
 H     20  18  17     1.098184410743   110.92792768   260.37270810
 H     20  18  17     1.088919648092   108.57856015    20.44381074
 C     18  17   8     1.457332837755   124.43816366     9.64264357
 H     24  18  17     1.093948353443   108.24298357   210.69222344
 H     24  18  17     1.087530229465   111.56865642   330.08944254
 H     24  18  17     1.096244954378   110.66173472    90.95728296
 O     14  11   7     1.429683181687   107.80307651    58.85157525
 H     28  14  11     0.971681532190   107.70854030   180.29722642

---------------------------
INTERNAL COORDINATES (A.U.)
---------------------------
 C      0   0   0     0.000000000000     0.00000000     0.00000000
 H      1   0   0     2.060197596898     0.00000000     0.00000000
 H      1   2   0     2.067377663986   108.72511220     0.00000000
 H      1   2   3     2.059975714823   110.27335506   119.01567465
 C      1   2   3     2.894619426363   111.67594868   237.02346708
 O      5   1   2     2.302838131199   121.10013708   233.37494446
 N      5   1   2     2.610050441832   116.22048692    53.08688263
 C      7   5   1     2.755884878789   117.79463547   174.70913823
 H      8   7   5     2.070909648928   109.96008958   243.23901906
 H      8   7   5     2.062170949271   107.52258583     1.80446666
 C      7   5   1     2.754530439037   125.13061404     2.56859919
 H     11   7   5     2.062319004448   109.46630869    22.67983302
 H     11   7   5     2.073956137283   108.10864737   139.47163010
 C     11   7   5     2.874566025536   114.31605160   260.16798893
 H     14  11   7     2.081092167809   107.84455491   179.00534127
 H     14  11   7     2.067897528069   110.48725951   296.77710697
 C      8   7   5     2.880382786571   111.96617841   126.38122932
 N     17   8   7     2.579180583317   117.73941049   288.10308111
 O     17   8   7     2.345674659076   119.41658166   106.65813705
 C     18  17   8     2.748629885379   117.94508571   173.10367286
 H     20  18  17     2.066356553666   109.31739958   140.66848039
 H     20  18  17     2.075267780847   110.92792768   260.37270810
 H     20  18  17     2.057759916739   108.57856015    20.44381074
 C     18  17   8     2.753959949328   124.43816366     9.64264357
 H     24  18  17     2.067262792661   108.24298357   210.69222344
 H     24  18  17     2.055134296049   111.56865642   330.08944254
 H     24  18  17     2.071602739468   110.66173472    90.95728296
 O     14  11   7     2.701709671662   107.80307651    58.85157525
 H     28  14  11     1.836211985229   107.70854030   180.29722642

---------------------
BASIS SET INFORMATION
---------------------
There are 4 groups of distinct atoms

 Group   1 Type C   : 10s4p1d contracted to 3s2p1d pattern {631/31/1}
 Group   2 Type H   : 4s contracted to 2s pattern {31}
 Group   3 Type O   : 10s4p1d contracted to 3s2p1d pattern {631/31/1}
 Group   4 Type N   : 10s4p1d contracted to 3s2p1d pattern {631/31/1}

Atom   0C    basis set group =>   1
Atom   1H    basis set group =>   2
Atom   2H    basis set group =>   2
Atom   3H    basis set group =>   2
Atom   4C    basis set group =>   1
Atom   5O    basis set group =>   3
Atom   6N    basis set group =>   4
Atom   7C    basis set group =>   1
Atom   8H    basis set group =>   2
Atom   9H    basis set group =>   2
Atom  10C    basis set group =>   1
Atom  11H    basis set group =>   2
Atom  12H    basis set group =>   2
Atom  13C    basis set group =>   1
Atom  14H    basis set group =>   2
Atom  15H    basis set group =>   2
Atom  16C    basis set group =>   1
Atom  17N    basis set group =>   4
Atom  18O    basis set group =>   3
Atom  19C    basis set group =>   1
Atom  20H    basis set group =>   2
Atom  21H    basis set group =>   2
Atom  22H    basis set group =>   2
Atom  23C    basis set group =>   1
Atom  24H    basis set group =>   2
Atom  25H    basis set group =>   2
Atom  26H    basis set group =>   2
Atom  27O    basis set group =>   3
Atom  28H    basis set group =>   2
---------------------------------
AUXILIARY/J BASIS SET INFORMATION
---------------------------------
There are 4 groups of distinct atoms

 Group   1 Type C   : 13s11p10d2f contracted to 13s11p10d2f pattern {1111111111111/11111111111/1111111111/11}
 Group   2 Type H   : 9s2p contracted to 9s2p pattern {111111111/11}
 Group   3 Type O   : 14s11p10d2f contracted to 14s11p10d2f pattern {11111111111111/11111111111/1111111111/11}
 Group   4 Type N   : 14s11p10d2f contracted to 14s11p10d2f pattern {11111111111111/11111111111/1111111111/11}

Atom   0C    basis set group =>   1
Atom   1H    basis set group =>   2
Atom   2H    basis set group =>   2
Atom   3H    basis set group =>   2
Atom   4C    basis set group =>   1
Atom   5O    basis set group =>   3
Atom   6N    basis set group =>   4
Atom   7C    basis set group =>   1
Atom   8H    basis set group =>   2
Atom   9H    basis set group =>   2
Atom  10C    basis set group =>   1
Atom  11H    basis set group =>   2
Atom  12H    basis set group =>   2
Atom  13C    basis set group =>   1
Atom  14H    basis set group =>   2
Atom  15H    basis set group =>   2
Atom  16C    basis set group =>   1
Atom  17N    basis set group =>   4
Atom  18O    basis set group =>   3
Atom  19C    basis set group =>   1
Atom  20H    basis set group =>   2
Atom  21H    basis set group =>   2
Atom  22H    basis set group =>   2
Atom  23C    basis set group =>   1
Atom  24H    basis set group =>   2
Atom  25H    basis set group =>   2
Atom  26H    basis set group =>   2
Atom  27O    basis set group =>   3
Atom  28H    basis set group =>   2
---------------------------------
AUXILIARY/C BASIS SET INFORMATION
---------------------------------
There are 4 groups of distinct atoms

 Group   1 Type C   : 13s11p10d2f contracted to 13s11p10d2f pattern {1111111111111/11111111111/1111111111/11}
 Group   2 Type H   : 9s2p contracted to 9s2p pattern {111111111/11}
 Group   3 Type O   : 14s11p10d2f contracted to 14s11p10d2f pattern {11111111111111/11111111111/1111111111/11}
 Group   4 Type N   : 14s11p10d2f contracted to 14s11p10d2f pattern {11111111111111/11111111111/1111111111/11}

Atom   0C    basis set group =>   1
Atom   1H    basis set group =>   2
Atom   2H    basis set group =>   2
Atom   3H    basis set group =>   2
Atom   4C    basis set group =>   1
Atom   5O    basis set group =>   3
Atom   6N    basis set group =>   4
Atom   7C    basis set group =>   1
Atom   8H    basis set group =>   2
Atom   9H    basis set group =>   2
Atom  10C    basis set group =>   1
Atom  11H    basis set group =>   2
Atom  12H    basis set group =>   2
Atom  13C    basis set group =>   1
Atom  14H    basis set group =>   2
Atom  15H    basis set group =>   2
Atom  16C    basis set group =>   1
Atom  17N    basis set group =>   4
Atom  18O    basis set group =>   3
Atom  19C    basis set group =>   1
Atom  20H    basis set group =>   2
Atom  21H    basis set group =>   2
Atom  22H    basis set group =>   2
Atom  23C    basis set group =>   1
Atom  24H    basis set group =>   2
Atom  25H    basis set group =>   2
Atom  26H    basis set group =>   2
Atom  27O    basis set group =>   3
Atom  28H    basis set group =>   2
----------------------------------
AUXILIARY/JK BASIS SET INFORMATION
----------------------------------
There are 4 groups of distinct atoms

 Group   1 Type C   : 13s11p10d2f contracted to 13s11p10d2f pattern {1111111111111/11111111111/1111111111/11}
 Group   2 Type H   : 9s2p contracted to 9s2p pattern {111111111/11}
 Group   3 Type O   : 14s11p10d2f contracted to 14s11p10d2f pattern {11111111111111/11111111111/1111111111/11}
 Group   4 Type N   : 14s11p10d2f contracted to 14s11p10d2f pattern {11111111111111/11111111111/1111111111/11}

Atom   0C    basis set group =>   1
Atom   1H    basis set group =>   2
Atom   2H    basis set group =>   2
Atom   3H    basis set group =>   2
Atom   4C    basis set group =>   1
Atom   5O    basis set group =>   3
Atom   6N    basis set group =>   4
Atom   7C    basis set group =>   1
Atom   8H    basis set group =>   2
Atom   9H    basis set group =>   2
Atom  10C    basis set group =>   1
Atom  11H    basis set group =>   2
Atom  12H    basis set group =>   2
Atom  13C    basis set group =>   1
Atom  14H    basis set group =>   2
Atom  15H    basis set group =>   2
Atom  16C    basis set group =>   1
Atom  17N    basis set group =>   4
Atom  18O    basis set group =>   3
Atom  19C    basis set group =>   1
Atom  20H    basis set group =>   2
Atom  21H    basis set group =>   2
Atom  22H    basis set group =>   2
Atom  23C    basis set group =>   1
Atom  24H    basis set group =>   2
Atom  25H    basis set group =>   2
Atom  26H    basis set group =>   2
Atom  27O    basis set group =>   3
Atom  28H    basis set group =>   2


           ************************************************************
           *        Program running with 4 parallel MPI-processes     *
           *              working on a common directory               *
           ************************************************************
------------------------------------------------------------------------------
                           ORCA GTO INTEGRAL CALCULATION
                           -- RI-GTO INTEGRALS CHOSEN --
------------------------------------------------------------------------------
------------------------------------------------------------------------------
                   ___                                                        
                  /   \      - P O W E R E D   B Y -                         
                 /     \                                                     
                 |  |  |   _    _      __       _____    __    __             
                 |  |  |  | |  | |    /  \     |  _  \  |  |  /  |          
                  \  \/   | |  | |   /    \    | | | |  |  | /  /          
                 / \  \   | |__| |  /  /\  \   | |_| |  |  |/  /          
                |  |  |   |  __  | /  /__\  \  |    /   |      \           
                |  |  |   | |  | | |   __   |  |    \   |  |\   \          
                \     /   | |  | | |  |  |  |  | |\  \  |  | \   \       
                 \___/    |_|  |_| |__|  |__|  |_| \__\ |__|  \__/        
                                                                              
                      - O R C A' S   B I G   F R I E N D -                    
                                      &                                       
                       - I N T E G R A L  F E E D E R -                       
                                                                              
 v1 FN, 2020, v2 2021                                                         
------------------------------------------------------------------------------


Reading SHARK input file Nse_octanol.SHARKINP.tmp ... ok
----------------------
SHARK INTEGRAL PACKAGE
----------------------

Number of atoms                             ...     29
Number of basis functions                   ...    214
Number of shells                            ...    110
Maximum angular momentum                    ...      2
Integral batch strategy                     ... SHARK/LIBINT Hybrid
RI-J (if used) integral strategy            ... SPLIT-RIJ (Revised 2003 algorithm where possible)
Printlevel                                  ...      1
Contraction scheme used                     ... SEGMENTED contraction
Coulomb Range Separation                    ... NOT USED
Exchange Range Separation                   ... NOT USED
Finite Nucleus Model                        ... NOT USED
Auxiliary Coulomb fitting basis             ... AVAILABLE
   # of basis functions in Aux-J            ...   1675
   # of shells in Aux-J                     ...    649
   Maximum angular momentum in Aux-J        ...      3
Auxiliary J/K fitting basis                 ... AVAILABLE
   # of basis functions in Aux-JK           ...   1675
   # of shells in Aux-JK                    ...    649
   Maximum angular momentum in Aux-JK       ...      3
Auxiliary Correlation fitting basis         ... AVAILABLE
   # of basis functions in Aux-C            ...   1675
   # of shells in Aux-C                     ...    649
   Maximum angular momentum in Aux-C        ...      3
Auxiliary 'external' fitting basis          ... NOT available
Integral threshold                          ...     2.500000e-11
Primitive cut-off                           ...     2.500000e-12
Primitive pair pre-selection threshold      ...     2.500000e-12

Calculating pre-screening integrals         ... done (  0.0 sec) Dimension = 110
Organizing shell pair data                  ... done (  0.0 sec)
Shell pair information
Total number of shell pairs                 ...      6105
Shell pairs after pre-screening             ...      5532
Total number of primitive shell pairs       ...     33991
Primitive shell pairs kept                  ...     18427
          la=0 lb=0:   2227 shell pairs
          la=1 lb=0:   1741 shell pairs
          la=1 lb=1:    345 shell pairs
          la=2 lb=0:    807 shell pairs
          la=2 lb=1:    327 shell pairs
          la=2 lb=2:     85 shell pairs

Calculating one electron integrals          ... done (  0.0 sec)
Calculating RI/J V-Matrix + Cholesky decomp.... done (  0.2 sec)
Calculating RI/JK V-Matrix + Cholesky decomp... done (  0.2 sec)
Calculating RI/C V-Matrix + Cholesky decomp.... done (  0.2 sec)
Calculating Nuclear repulsion               ... done (  0.0 sec) ENN=    911.200231397778 Eh

SHARK setup successfully completed in   0.8 seconds

Maximum memory used throughout the entire GTOINT-calculation: 26.1 MB


           ************************************************************
           *        Program running with 4 parallel MPI-processes     *
           *              working on a common directory               *
           ************************************************************
-------------------------------------------------------------------------------
                                 ORCA SCF
-------------------------------------------------------------------------------

------------
SCF SETTINGS
------------
Hamiltonian:
 Density Functional     Method          .... DFT(GTOs)
 Exchange Functional    Exchange        .... B88
   X-Alpha parameter    XAlpha          ....  0.666667
   Becke's b parameter  XBeta           ....  0.004200
 Correlation Functional Correlation     .... LYP
 LDA part of GGA corr.  LDAOpt          .... VWN-5
 Gradients option       PostSCFGGA      .... off
 Hybrid DFT is turned on
   Fraction HF Exchange ScalHFX         ....  0.200000
   Scaling of DF-GGA-X  ScalDFX         ....  0.720000
   Scaling of DF-GGA-C  ScalDFC         ....  0.810000
   Scaling of DF-LDA-C  ScalLDAC        ....  1.000000
   Perturbative correction              ....  0.000000
   Density functional embedding theory  .... OFF
   NL short-range parameter             ....  4.800000
 RI-approximation to the Coulomb term is turned on
   Number of AuxJ basis functions       .... 1675
   RIJ-COSX (HFX calculated with COS-X)).... on


General Settings:
 Integral files         IntName         .... Nse_octanol
 Hartree-Fock type      HFTyp           .... RHF
 Total Charge           Charge          ....    0
 Multiplicity           Mult            ....    1
 Number of Electrons    NEL             ....  102
 Basis Dimension        Dim             ....  214
 Nuclear Repulsion      ENuc            ....    911.2002313978 Eh

Convergence Acceleration:
 DIIS                   CNVDIIS         .... on
   Start iteration      DIISMaxIt       ....    12
   Startup error        DIISStart       ....  0.200000
   # of expansion vecs  DIISMaxEq       ....     5
   Bias factor          DIISBfac        ....   1.050
   Max. coefficient     DIISMaxC        ....  10.000
 Trust-Rad. Augm. Hess. CNVTRAH         .... auto
   Auto Start mean grad. ratio tolernc. ....  1.125000
   Auto Start start iteration           ....    20
   Auto Start num. interpolation iter.  ....    10
   Max. Number of Micro iterations      ....    16
   Max. Number of Macro iterations      .... Maxiter - #DIIS iter
   Number of Davidson start vectors     ....     2
   Converg. threshold I  (grad. norm)   ....   1.000e-05
   Converg. threshold II (energy diff.) ....   1.000e-08
   Grad. Scal. Fac. for Micro threshold ....   0.100
   Minimum threshold for Micro iter.    ....   0.010
   NR start threshold (gradient norm)   ....   0.001
   Initial trust radius                 ....   0.400
   Minimum AH scaling param. (alpha)    ....   1.000
   Maximum AH scaling param. (alpha)    .... 1000.000
   Orbital update algorithm             .... Taylor
   White noise on init. David. guess    .... on
   Maximum white noise                  ....   0.010
   Quad. conv. algorithm                .... NR
 SOSCF                  CNVSOSCF        .... on
   Start iteration      SOSCFMaxIt      ....   150
   Startup grad/error   SOSCFStart      ....  0.003300
 Level Shifting         CNVShift        .... on
   Level shift para.    LevelShift      ....    0.2500
   Turn off err/grad.   ShiftErr        ....    0.0010
 Zerner damping         CNVZerner       .... off
 Static damping         CNVDamp         .... on
   Fraction old density DampFac         ....    0.7000
   Max. Damping (<1)    DampMax         ....    0.9800
   Min. Damping (>=0)   DampMin         ....    0.0000
   Turn off err/grad.   DampErr         ....    0.1000
 Fernandez-Rico         CNVRico         .... off

SCF Procedure:
 Maximum # iterations   MaxIter         ....   125
 SCF integral mode      SCFMode         .... Direct
   Integral package                     .... SHARK and LIBINT hybrid scheme
 Reset frequency        DirectResetFreq ....    20
 Integral Threshold     Thresh          ....  2.500e-11 Eh
 Primitive CutOff       TCut            ....  2.500e-12 Eh

Convergence Tolerance:
 Convergence Check Mode ConvCheckMode   .... Total+1el-Energy
 Convergence forced     ConvForced      .... 0
 Energy Change          TolE            ....  1.000e-08 Eh
 1-El. energy change                    ....  1.000e-05 Eh
 Orbital Gradient       TolG            ....  1.000e-05
 Orbital Rotation angle TolX            ....  1.000e-05
 DIIS Error             TolErr          ....  5.000e-07


Diagonalization of the overlap matrix:
Smallest eigenvalue                        ... 3.213e-03
Time for diagonalization                   ...    0.008 sec
Threshold for overlap eigenvalues          ... 1.000e-08
Number of eigenvalues below threshold      ... 0
Time for construction of square roots      ...    0.004 sec
Total time needed                          ...    0.012 sec

Time for model grid setup =    0.316 sec

------------------------------
INITIAL GUESS: MODEL POTENTIAL
------------------------------
Loading Hartree-Fock densities                     ... done
Calculating cut-offs                               ... done
Initializing the effective Hamiltonian             ... done
Setting up the integral package (SHARK)            ... done
Starting the Coulomb interaction                   ... done (   0.7 sec)
Reading the grid                                   ... done
Mapping shells                                     ... done
Starting the XC term evaluation                    ... done (   0.1 sec)
  promolecular density results
     # of electrons  =    101.989634569
     EX              =    -83.654284209
     EC              =     -3.465780594
     EX+EC           =    -87.120064802
Transforming the Hamiltonian                       ... done (   0.0 sec)
Diagonalizing the Hamiltonian                      ... done (   0.0 sec)
Back transforming the eigenvectors                 ... done (   0.0 sec)
Now organizing SCF variables                       ... done
                      ------------------
                      INITIAL GUESS DONE (   1.2 sec)
                      ------------------
-------------------
DFT GRID GENERATION
-------------------

General Integration Accuracy     IntAcc      ... 4.388
Radial Grid Type                 RadialGrid  ... OptM3 with GC (2021)
Angular Grid (max. ang.)         AngularGrid ... 4 (Lebedev-302)
Angular grid pruning method      GridPruning ... 4 (adaptive)
Weight generation scheme         WeightScheme... Becke
Basis function cutoff            BFCut       ... 1.0000e-11
Integration weight cutoff        WCut        ... 1.0000e-14
Angular grids for H and He will be reduced by one unit
Partially contracted basis set               ... off
Rotationally invariant grid construction     ... off

Total number of grid points                  ...   128642
Total number of batches                      ...     2022
Average number of points per batch           ...       63
Average number of grid points per atom       ...     4436
Time for grid setup =    1.031 sec

--------------------
COSX GRID GENERATION
--------------------

GRIDX 1
-------
General Integration Accuracy     IntAcc      ... 3.816
Radial Grid Type                 RadialGrid  ... OptM3 with GC (2021)
Angular Grid (max. ang.)         AngularGrid ... 1 (Lebedev-50)
Angular grid pruning method      GridPruning ... 4 (adaptive)
Weight generation scheme         WeightScheme... Becke
Basis function cutoff            BFCut       ... 1.0000e-11
Integration weight cutoff        WCut        ... 1.0000e-14
Angular grids for H and He will be reduced by one unit
Partially contracted basis set               ... on
Rotationally invariant grid construction     ... off

Total number of grid points                  ...    16410
Total number of batches                      ...      274
Average number of points per batch           ...       59
Average number of grid points per atom       ...      566
UseSFitting                                  ... on

GRIDX 2
-------
General Integration Accuracy     IntAcc      ... 4.020
Radial Grid Type                 RadialGrid  ... OptM3 with GC (2021)
Angular Grid (max. ang.)         AngularGrid ... 2 (Lebedev-110)
Angular grid pruning method      GridPruning ... 4 (adaptive)
Weight generation scheme         WeightScheme... Becke
Basis function cutoff            BFCut       ... 1.0000e-11
Integration weight cutoff        WCut        ... 1.0000e-14
Angular grids for H and He will be reduced by one unit
Partially contracted basis set               ... on
Rotationally invariant grid construction     ... off

Total number of grid points                  ...    34731
Total number of batches                      ...      558
Average number of points per batch           ...       62
Average number of grid points per atom       ...     1198
UseSFitting                                  ... on

GRIDX 3
-------
General Integration Accuracy     IntAcc      ... 4.338
Radial Grid Type                 RadialGrid  ... OptM3 with GC (2021)
Angular Grid (max. ang.)         AngularGrid ... 3 (Lebedev-194)
Angular grid pruning method      GridPruning ... 4 (adaptive)
Weight generation scheme         WeightScheme... Becke
Basis function cutoff            BFCut       ... 1.0000e-11
Integration weight cutoff        WCut        ... 1.0000e-14
Angular grids for H and He will be reduced by one unit
Partially contracted basis set               ... on
Rotationally invariant grid construction     ... off

Total number of grid points                  ...    75708
Total number of batches                      ...     1198
Average number of points per batch           ...       63
Average number of grid points per atom       ...     2611
UseSFitting                                  ... on

Time for X-Grid setup             =    2.357 sec


--------------------
CPCM SOLVATION MODEL
--------------------
CPCM parameters:
  Epsilon                                         ...       9.8629
  Refrac                                          ...       1.4295
  Rsolv                                           ...       1.3000
  Surface type                                    ... GAUSSIAN VDW
  Epsilon function type                           ...         CPCM
Radii:
 Radius for C  used is    3.8550 Bohr (=   2.0400 Ang.)
 Radius for H  used is    2.4944 Bohr (=   1.3200 Ang.)
 Radius for O  used is    3.4469 Bohr (=   1.8240 Ang.)
 Radius for N  used is    3.5149 Bohr (=   1.8600 Ang.)
Calculating surface                               ...        done! (  0.0s)
GEPOL surface points                              ...         1509
GEPOL Volume                                      ...    1576.8292
GEPOL Surface-area                                ...     822.9086
Calculating surface distance matrix               ...        done! (  0.0s)
Performing Cholesky decomposition & store         ...        done! (  0.1s)
Overall time for CPCM initialization              ...                 0.1s
--------------
SCF ITERATIONS
--------------
ITER       Energy         Delta-E        Max-DP      RMS-DP      [F,P]     Damp
               ***  Starting incremental Fock matrix formation  ***
  0   -648.8913198225   0.000000000000 0.09853195  0.00232722  0.2768366 0.7000
  1   -649.0803949917  -0.189075169152 0.05781432  0.00152046  0.1138195 0.7000
                               ***Turning on DIIS***
  2   -649.1513243471  -0.070929355436 0.06557630  0.00229091  0.0385698 0.0000
  3   -649.2686126165  -0.117288269346 0.03768444  0.00104230  0.0552998 0.0000
  4   -649.2911742833  -0.022561666841 0.00907382  0.00032621  0.0119648 0.0000
  5   -649.2926319755  -0.001457692199 0.00341431  0.00009549  0.0046858 0.0000
                      *** Initiating the SOSCF procedure ***
                           *** Shutting down DIIS ***
                      *** Re-Reading the Fockian *** 
                      *** Removing any level shift *** 
ITER      Energy       Delta-E        Grad      Rot      Max-DP    RMS-DP
  6   -649.29272175  -0.0000897749  0.000205  0.000205  0.001369  0.000043
               *** Restarting incremental Fock matrix formation ***
  7   -649.29275305  -0.0000313004  0.000279  0.001103  0.001677  0.000030
  8   -649.29274740   0.0000056471  0.000555  0.000793  0.001122  0.000020
  9   -649.29275606  -0.0000086529  0.000067  0.000175  0.000362  0.000007
 10   -649.29275573   0.0000003311  0.000123  0.000114  0.000245  0.000004
 11   -649.29275619  -0.0000004643  0.000005  0.000006  0.000021  0.000001
 12   -649.29275619   0.0000000007  0.000004  0.000003  0.000012  0.000000
                  ***Gradient check signals convergence***
              ***Rediagonalizing the Fockian in SOSCF/NRSCF***

               *****************************************************
               *                     SUCCESS                       *
               *           SCF CONVERGED AFTER  13 CYCLES          *
               *****************************************************

Old exchange energy                            =    -17.038557395 Eh
New exchange energy                            =    -17.038528431 Eh
Exchange energy change after final integration =      0.000028963 Eh
Total energy after final integration           =   -649.292727230 Eh
Final COS-X integration done in                =     7.804 sec

----------------
TOTAL SCF ENERGY
----------------

Total Energy       :         -649.29272723 Eh          -17668.15334 eV

Components:
Nuclear Repulsion  :          911.20023140 Eh           24795.01885 eV
Electronic Energy  :        -1560.49295863 Eh          -42463.17219 eV
One Electron Energy:        -2694.20281530 Eh          -73312.98576 eV
Two Electron Energy:         1133.70985667 Eh           30849.81357 eV
Max COSX asymmetry :            0.00000277 Eh               0.00008 eV
CPCM Dielectric    :           -0.01948482 Eh              -0.53021 eV

Virial components:
Potential Energy   :        -1294.84161300 Eh          -35234.43157 eV
Kinetic Energy     :          645.54888577 Eh           17566.27823 eV
Virial Ratio       :            2.00579947


DFT components:
N(Alpha)           :       51.000232280348 electrons
N(Beta)            :       51.000232280348 electrons
N(Total)           :      102.000464560696 electrons
E(X)               :      -67.679886082995 Eh       
E(C)               :       -4.082059425452 Eh       
E(XC)              :      -71.761945508447 Eh       
DFET-embed. en.    :        0.000000000000 Eh       
CPCM Solvation Model Properties:
Surface-charge          :           -0.01804918
Charge-correction       :           -0.00011546 Eh              -0.00314 eV
Free-energy (cav+disp)  :  This term is not implemented in the current solvation scheme

---------------
SCF CONVERGENCE
---------------

  Last Energy change         ...   -4.2977e-09  Tolerance :   1.0000e-08
  Last MAX-Density change    ...    2.2204e-15  Tolerance :   1.0000e-07
  Last RMS-Density change    ...    4.2375e-17  Tolerance :   5.0000e-09
  Last Orbital Gradient      ...    4.4117e-07  Tolerance :   1.0000e-05
  Last Orbital Rotation      ...    1.1134e-06  Tolerance :   1.0000e-05

             **** THE GBW FILE WAS UPDATED (Nse_octanol.gbw) ****
             **** DENSITY Nse_octanol.scfp WAS UPDATED ****
             **** ENERGY FILE WAS UPDATED (Nse_octanol.en.tmp) ****
             **** THE GBW FILE WAS UPDATED (Nse_octanol.gbw) ****
             **** DENSITY Nse_octanol.scfp WAS UPDATED ****
----------------
ORBITAL ENERGIES
----------------

  NO   OCC          E(Eh)            E(eV) 
   0   2.0000     -19.139179      -520.8035 
   1   2.0000     -19.112329      -520.0729 
   2   2.0000     -19.106662      -519.9187 
   3   2.0000     -14.357495      -390.6873 
   4   2.0000     -14.356588      -390.6626 
   5   2.0000     -10.282494      -279.8009 
   6   2.0000     -10.277244      -279.6580 
   7   2.0000     -10.220204      -278.1059 
   8   2.0000     -10.210837      -277.8510 
   9   2.0000     -10.208132      -277.7774 
  10   2.0000     -10.194698      -277.4118 
  11   2.0000     -10.194485      -277.4060 
  12   2.0000     -10.166729      -276.6508 
  13   2.0000      -1.039542       -28.2874 
  14   2.0000      -1.025133       -27.8953 
  15   2.0000      -1.014095       -27.5949 
  16   2.0000      -0.933696       -25.4072 
  17   2.0000      -0.924785       -25.1647 
  18   2.0000      -0.761339       -20.7171 
  19   2.0000      -0.744844       -20.2682 
  20   2.0000      -0.714629       -19.4460 
  21   2.0000      -0.702491       -19.1158 
  22   2.0000      -0.666571       -18.1383 
  23   2.0000      -0.628060       -17.0904 
  24   2.0000      -0.550762       -14.9870 
  25   2.0000      -0.537872       -14.6362 
  26   2.0000      -0.519508       -14.1365 
  27   2.0000      -0.510101       -13.8806 
  28   2.0000      -0.476931       -12.9780 
  29   2.0000      -0.470153       -12.7935 
  30   2.0000      -0.462045       -12.5729 
  31   2.0000      -0.454015       -12.3544 
  32   2.0000      -0.450825       -12.2676 
  33   2.0000      -0.433450       -11.7948 
  34   2.0000      -0.411740       -11.2040 
  35   2.0000      -0.402920       -10.9640 
  36   2.0000      -0.399940       -10.8829 
  37   2.0000      -0.394088       -10.7237 
  38   2.0000      -0.393230       -10.7003 
  39   2.0000      -0.392075       -10.6689 
  40   2.0000      -0.384893       -10.4735 
  41   2.0000      -0.375687       -10.2230 
  42   2.0000      -0.370100       -10.0709 
  43   2.0000      -0.355836        -9.6828 
  44   2.0000      -0.350191        -9.5292 
  45   2.0000      -0.334647        -9.1062 
  46   2.0000      -0.269986        -7.3467 
  47   2.0000      -0.258132        -7.0241 
  48   2.0000      -0.253442        -6.8965 
  49   2.0000      -0.235403        -6.4057 
  50   2.0000      -0.234512        -6.3814 
  51   0.0000       0.017054         0.4641 
  52   0.0000       0.030907         0.8410 
  53   0.0000       0.073628         2.0035 
  54   0.0000       0.113437         3.0868 
  55   0.0000       0.117591         3.1998 
  56   0.0000       0.126631         3.4458 
  57   0.0000       0.135513         3.6875 
  58   0.0000       0.146196         3.9782 
  59   0.0000       0.154229         4.1968 
  60   0.0000       0.167566         4.5597 
  61   0.0000       0.167936         4.5698 
  62   0.0000       0.173504         4.7213 
  63   0.0000       0.180199         4.9035 
  64   0.0000       0.187219         5.0945 
  65   0.0000       0.193097         5.2544 
  66   0.0000       0.198104         5.3907 
  67   0.0000       0.202718         5.5162 
  68   0.0000       0.208922         5.6850 
  69   0.0000       0.211787         5.7630 
  70   0.0000       0.223645         6.0857 
  71   0.0000       0.230659         6.2766 
  72   0.0000       0.235422         6.4062 
  73   0.0000       0.246983         6.7207 
  74   0.0000       0.249235         6.7820 
  75   0.0000       0.269282         7.3275 
  76   0.0000       0.287382         7.8201 
  77   0.0000       0.335853         9.1390 
  78   0.0000       0.360444         9.8082 
  79   0.0000       0.378523        10.3001 
  80   0.0000       0.419610        11.4182 
  81   0.0000       0.475108        12.9283 
  82   0.0000       0.499446        13.5906 
  83   0.0000       0.505146        13.7457 
  84   0.0000       0.522483        14.2175 
  85   0.0000       0.532652        14.4942 
  86   0.0000       0.537352        14.6221 
  87   0.0000       0.563924        15.3452 
  88   0.0000       0.570686        15.5291 
  89   0.0000       0.577073        15.7030 
  90   0.0000       0.592997        16.1363 
  91   0.0000       0.610732        16.6189 
  92   0.0000       0.611595        16.6423 
  93   0.0000       0.634969        17.2784 
  94   0.0000       0.648303        17.6412 
  95   0.0000       0.668312        18.1857 
  96   0.0000       0.677489        18.4354 
  97   0.0000       0.689501        18.7623 
  98   0.0000       0.697245        18.9730 
  99   0.0000       0.723967        19.7001 
 100   0.0000       0.742337        20.2000 
 101   0.0000       0.758610        20.6428 
 102   0.0000       0.775263        21.0960 
 103   0.0000       0.800565        21.7845 
 104   0.0000       0.802366        21.8335 
 105   0.0000       0.818486        22.2721 
 106   0.0000       0.825785        22.4708 
 107   0.0000       0.842644        22.9295 
 108   0.0000       0.849045        23.1037 
 109   0.0000       0.856111        23.2960 
 110   0.0000       0.872226        23.7345 
 111   0.0000       0.878068        23.8934 
 112   0.0000       0.884142        24.0587 
 113   0.0000       0.888138        24.1675 
 114   0.0000       0.898588        24.4518 
 115   0.0000       0.911252        24.7964 
 116   0.0000       0.927503        25.2386 
 117   0.0000       0.931059        25.3354 
 118   0.0000       0.941093        25.6084 
 119   0.0000       0.942003        25.6332 
 120   0.0000       0.961786        26.1715 
 121   0.0000       0.970905        26.4197 
 122   0.0000       0.978625        26.6297 
 123   0.0000       0.992847        27.0167 
 124   0.0000       1.011602        27.5271 
 125   0.0000       1.022763        27.8308 
 126   0.0000       1.029608        28.0170 
 127   0.0000       1.046801        28.4849 
 128   0.0000       1.052626        28.6434 
 129   0.0000       1.097776        29.8720 
 130   0.0000       1.110508        30.2185 
 131   0.0000       1.126148        30.6440 
 132   0.0000       1.135493        30.8983 
 133   0.0000       1.161931        31.6177 
 134   0.0000       1.196293        32.5528 
 135   0.0000       1.238280        33.6953 
 136   0.0000       1.263968        34.3943 
 137   0.0000       1.284518        34.9535 
 138   0.0000       1.293033        35.1852 
 139   0.0000       1.325221        36.0611 
 140   0.0000       1.360251        37.0143 
 141   0.0000       1.374342        37.3978 
 142   0.0000       1.408085        38.3160 
 143   0.0000       1.425553        38.7913 
 144   0.0000       1.440677        39.2028 
 145   0.0000       1.447850        39.3980 
 146   0.0000       1.469240        39.9801 
 147   0.0000       1.495683        40.6996 
 148   0.0000       1.552518        42.2462 
 149   0.0000       1.593896        43.3721 
 150   0.0000       1.600278        43.5458 
 151   0.0000       1.611482        43.8507 
 152   0.0000       1.660121        45.1742 
 153   0.0000       1.704067        46.3700 
 154   0.0000       1.736771        47.2599 
 155   0.0000       1.760371        47.9021 
 156   0.0000       1.768331        48.1187 
 157   0.0000       1.770915        48.1890 
 158   0.0000       1.787328        48.6357 
 159   0.0000       1.803773        49.0832 
 160   0.0000       1.826738        49.7081 
 161   0.0000       1.836552        49.9751 
 162   0.0000       1.856219        50.5103 
 163   0.0000       1.874977        51.0207 
 164   0.0000       1.898358        51.6569 
 165   0.0000       1.916052        52.1384 
 166   0.0000       1.933037        52.6006 
 167   0.0000       1.952313        53.1251 
 168   0.0000       1.958633        53.2971 
 169   0.0000       1.976791        53.7912 
 170   0.0000       1.998533        54.3828 
 171   0.0000       2.022565        55.0368 
 172   0.0000       2.034167        55.3525 
 173   0.0000       2.037093        55.4321 
 174   0.0000       2.051026        55.8113 
 175   0.0000       2.058816        56.0232 
 176   0.0000       2.089675        56.8629 
 177   0.0000       2.097830        57.0848 
 178   0.0000       2.111268        57.4505 
 179   0.0000       2.120463        57.7007 
 180   0.0000       2.159083        58.7516 
 181   0.0000       2.196991        59.7832 
 182   0.0000       2.206327        60.0372 
 183   0.0000       2.239276        60.9338 
 184   0.0000       2.268192        61.7206 
 185   0.0000       2.281617        62.0860 
 186   0.0000       2.293811        62.4178 
 187   0.0000       2.300357        62.5959 
 188   0.0000       2.318085        63.0783 
 189   0.0000       2.343441        63.7683 
 190   0.0000       2.379135        64.7396 
 191   0.0000       2.383046        64.8460 
 192   0.0000       2.404367        65.4262 
 193   0.0000       2.423302        65.9414 
 194   0.0000       2.436025        66.2876 
 195   0.0000       2.461518        66.9813 
 196   0.0000       2.513286        68.3900 
 197   0.0000       2.529286        68.8254 
 198   0.0000       2.562349        69.7251 
 199   0.0000       2.578136        70.1546 
 200   0.0000       2.613958        71.1294 
 201   0.0000       2.650148        72.1142 
 202   0.0000       2.662850        72.4598 
 203   0.0000       2.684577        73.0511 
 204   0.0000       2.716076        73.9082 
 205   0.0000       2.735160        74.4275 
 206   0.0000       2.742492        74.6270 
 207   0.0000       2.860219        77.8305 
 208   0.0000       2.936596        79.9088 
 209   0.0000       2.964834        80.6772 
 210   0.0000       3.004045        81.7442 
 211   0.0000       3.012457        81.9731 
 212   0.0000       3.163919        86.0946 
 213   0.0000       3.185899        86.6927 

                    ********************************
                    * MULLIKEN POPULATION ANALYSIS *
                    ********************************

-----------------------
MULLIKEN ATOMIC CHARGES
-----------------------
   0 C :   -0.570064
   1 H :    0.198462
   2 H :    0.188916
   3 H :    0.173114
   4 C :    0.531249
   5 O :   -0.510015
   6 N :   -0.368729
   7 C :   -0.251007
   8 H :    0.176460
   9 H :    0.205068
  10 C :   -0.180694
  11 H :    0.183223
  12 H :    0.177550
  13 C :   -0.031092
  14 H :    0.144242
  15 H :    0.158046
  16 C :    0.522789
  17 N :   -0.360402
  18 O :   -0.545403
  19 C :   -0.329417
  20 H :    0.169751
  21 H :    0.166778
  22 H :    0.184981
  23 C :   -0.346951
  24 H :    0.167321
  25 H :    0.194809
  26 H :    0.169276
  27 O :   -0.652099
  28 H :    0.433839
Sum of atomic charges:    0.0000000

--------------------------------
MULLIKEN REDUCED ORBITAL CHARGES
--------------------------------
  0 C s       :     3.326533  s :     3.326533
      pz      :     1.103106  p :     3.211887
      px      :     1.103600
      py      :     1.005181
      dz2     :     0.007110  d :     0.031644
      dxz     :     0.008908
      dyz     :     0.002455
      dx2y2   :     0.005532
      dxy     :     0.007639
  1 H s       :     0.801538  s :     0.801538
  2 H s       :     0.811084  s :     0.811084
  3 H s       :     0.826886  s :     0.826886
  4 C s       :     2.981069  s :     2.981069
      pz      :     0.769575  p :     2.377340
      px      :     0.769103
      py      :     0.838662
      dz2     :     0.028633  d :     0.110342
      dxz     :     0.020152
      dyz     :     0.020572
      dx2y2   :     0.024949
      dxy     :     0.016038
  5 O s       :     3.851331  s :     3.851331
      pz      :     1.482901  p :     4.632464
      px      :     1.560549
      py      :     1.589014
      dz2     :     0.006732  d :     0.026220
      dxz     :     0.004351
      dyz     :     0.006328
      dx2y2   :     0.003780
      dxy     :     0.005028
  6 N s       :     3.531846  s :     3.531846
      pz      :     1.277605  p :     3.800610
      px      :     1.421925
      py      :     1.101080
      dz2     :     0.007583  d :     0.036273
      dxz     :     0.005367
      dyz     :     0.008789
      dx2y2   :     0.007860
      dxy     :     0.006674
  7 C s       :     3.249231  s :     3.249231
      pz      :     1.136156  p :     2.949780
      px      :     0.979548
      py      :     0.834076
      dz2     :     0.010341  d :     0.051996
      dxz     :     0.006356
      dyz     :     0.010482
      dx2y2   :     0.013941
      dxy     :     0.010876
  8 H s       :     0.823540  s :     0.823540
  9 H s       :     0.794932  s :     0.794932
 10 C s       :     3.217725  s :     3.217725
      pz      :     0.937463  p :     2.909369
      px      :     0.977307
      py      :     0.994598
      dz2     :     0.012342  d :     0.053599
      dxz     :     0.006534
      dyz     :     0.012974
      dx2y2   :     0.006723
      dxy     :     0.015026
 11 H s       :     0.816777  s :     0.816777
 12 H s       :     0.822450  s :     0.822450
 13 C s       :     3.192083  s :     3.192083
      pz      :     0.790379  p :     2.774793
      px      :     1.006892
      py      :     0.977522
      dz2     :     0.018282  d :     0.064216
      dxz     :     0.007934
      dyz     :     0.018531
      dx2y2   :     0.006309
      dxy     :     0.013160
 14 H s       :     0.855758  s :     0.855758
 15 H s       :     0.841954  s :     0.841954
 16 C s       :     2.988089  s :     2.988089
      pz      :     0.746115  p :     2.381949
      px      :     0.832262
      py      :     0.803573
      dz2     :     0.034865  d :     0.107173
      dxz     :     0.029451
      dyz     :     0.023782
      dx2y2   :     0.011131
      dxy     :     0.007943
 17 N s       :     3.534175  s :     3.534175
      pz      :     1.126419  p :     3.788470
      px      :     1.110133
      py      :     1.551918
      dz2     :     0.009514  d :     0.037757
      dxz     :     0.010724
      dyz     :     0.006232
      dx2y2   :     0.005954
      dxy     :     0.005334
 18 O s       :     3.862542  s :     3.862542
      pz      :     1.477950  p :     4.657857
      px      :     1.693279
      py      :     1.486627
      dz2     :     0.007096  d :     0.025004
      dxz     :     0.006731
      dyz     :     0.006607
      dx2y2   :     0.002145
      dxy     :     0.002425
 19 C s       :     3.258513  s :     3.258513
      pz      :     1.121857  p :     3.022850
      px      :     0.801529
      py      :     1.099465
      dz2     :     0.009503  d :     0.048054
      dxz     :     0.006583
      dyz     :     0.007474
      dx2y2   :     0.012385
      dxy     :     0.012109
 20 H s       :     0.830249  s :     0.830249
 21 H s       :     0.833222  s :     0.833222
 22 H s       :     0.815019  s :     0.815019
 23 C s       :     3.269451  s :     3.269451
      pz      :     0.885298  p :     3.029384
      px      :     1.082493
      py      :     1.061592
      dz2     :     0.012502  d :     0.048115
      dxz     :     0.008475
      dyz     :     0.010370
      dx2y2   :     0.012935
      dxy     :     0.003833
 24 H s       :     0.832679  s :     0.832679
 25 H s       :     0.805191  s :     0.805191
 26 H s       :     0.830724  s :     0.830724
 27 O s       :     3.878774  s :     3.878774
      pz      :     1.490369  p :     4.747916
      px      :     1.515604
      py      :     1.741943
      dz2     :     0.007083  d :     0.025408
      dxz     :     0.003891
      dyz     :     0.003862
      dx2y2   :     0.006305
      dxy     :     0.004268
 28 H s       :     0.566161  s :     0.566161


                     *******************************
                     * LOEWDIN POPULATION ANALYSIS *
                     *******************************

----------------------
LOEWDIN ATOMIC CHARGES
----------------------
   0 C :   -0.403143
   1 H :    0.155017
   2 H :    0.153012
   3 H :    0.145777
   4 C :    0.115772
   5 O :   -0.309555
   6 N :   -0.073607
   7 C :   -0.179746
   8 H :    0.142510
   9 H :    0.160152
  10 C :   -0.166250
  11 H :    0.146942
  12 H :    0.144504
  13 C :   -0.114405
  14 H :    0.119358
  15 H :    0.121788
  16 C :    0.095755
  17 N :   -0.072289
  18 O :   -0.340243
  19 C :   -0.281163
  20 H :    0.135474
  21 H :    0.129355
  22 H :    0.147375
  23 C :   -0.288822
  24 H :    0.135138
  25 H :    0.148367
  26 H :    0.130396
  27 O :   -0.430547
  28 H :    0.333077

-------------------------------
LOEWDIN REDUCED ORBITAL CHARGES
-------------------------------
  0 C s       :     2.987056  s :     2.987056
      pz      :     1.143447  p :     3.354423
      px      :     1.143195
      py      :     1.067781
      dz2     :     0.013451  d :     0.061664
      dxz     :     0.015949
      dyz     :     0.005067
      dx2y2   :     0.012059
      dxy     :     0.015139
  1 H s       :     0.844983  s :     0.844983
  2 H s       :     0.846988  s :     0.846988
  3 H s       :     0.854223  s :     0.854223
  4 C s       :     2.849533  s :     2.849533
      pz      :     0.900354  p :     2.773654
      px      :     0.861404
      py      :     1.011896
      dz2     :     0.066061  d :     0.261041
      dxz     :     0.051691
      dyz     :     0.048299
      dx2y2   :     0.060652
      dxy     :     0.034338
  5 O s       :     3.550035  s :     3.550035
      pz      :     1.516128  p :     4.705262
      px      :     1.554099
      py      :     1.635034
      dz2     :     0.011028  d :     0.054258
      dxz     :     0.009213
      dyz     :     0.016335
      dx2y2   :     0.008240
      dxy     :     0.009442
  6 N s       :     3.095121  s :     3.095121
      pz      :     1.318359  p :     3.883676
      px      :     1.402838
      py      :     1.162478
      dz2     :     0.018254  d :     0.094811
      dxz     :     0.014952
      dyz     :     0.023974
      dx2y2   :     0.019835
      dxy     :     0.017796
  7 C s       :     2.930258  s :     2.930258
      pz      :     1.144175  p :     3.139318
      px      :     1.052985
      py      :     0.942158
      dz2     :     0.021067  d :     0.110170
      dxz     :     0.011596
      dyz     :     0.020868
      dx2y2   :     0.032676
      dxy     :     0.023963
  8 H s       :     0.857490  s :     0.857490
  9 H s       :     0.839848  s :     0.839848
 10 C s       :     2.922930  s :     2.922930
      pz      :     1.013737  p :     3.128683
      px      :     1.062682
      py      :     1.052264
      dz2     :     0.026636  d :     0.114637
      dxz     :     0.013719
      dyz     :     0.027001
      dx2y2   :     0.015227
      dxy     :     0.032054
 11 H s       :     0.853058  s :     0.853058
 12 H s       :     0.855496  s :     0.855496
 13 C s       :     2.936645  s :     2.936645
      pz      :     0.908043  p :     3.040290
      px      :     1.085054
      py      :     1.047192
      dz2     :     0.040284  d :     0.137469
      dxz     :     0.017108
      dyz     :     0.038909
      dx2y2   :     0.013665
      dxy     :     0.027504
 14 H s       :     0.880642  s :     0.880642
 15 H s       :     0.878212  s :     0.878212
 16 C s       :     2.854976  s :     2.854976
      pz      :     0.966609  p :     2.794610
      px      :     1.005202
      py      :     0.822799
      dz2     :     0.088925  d :     0.254660
      dxz     :     0.072453
      dyz     :     0.051751
      dx2y2   :     0.025082
      dxy     :     0.016449
 17 N s       :     3.092254  s :     3.092254
      pz      :     1.190860  p :     3.882338
      px      :     1.174415
      py      :     1.517063
      dz2     :     0.026807  d :     0.097696
      dxz     :     0.031172
      dyz     :     0.013192
      dx2y2   :     0.014696
      dxy     :     0.011830
 18 O s       :     3.566175  s :     3.566175
      pz      :     1.533019  p :     4.722579
      px      :     1.711386
      py      :     1.478174
      dz2     :     0.015353  d :     0.051489
      dxz     :     0.016821
      dyz     :     0.011098
      dx2y2   :     0.004147
      dxy     :     0.004070
 19 C s       :     2.963144  s :     2.963144
      pz      :     1.155971  p :     3.222589
      px      :     0.921642
      py      :     1.144976
      dz2     :     0.018276  d :     0.095430
      dxz     :     0.013276
      dyz     :     0.012996
      dx2y2   :     0.025312
      dxy     :     0.025570
 20 H s       :     0.864526  s :     0.864526
 21 H s       :     0.870645  s :     0.870645
 22 H s       :     0.852625  s :     0.852625
 23 C s       :     2.964310  s :     2.964310
      pz      :     0.983374  p :     3.228830
      px      :     1.126541
      py      :     1.118916
      dz2     :     0.025460  d :     0.095682
      dxz     :     0.017519
      dyz     :     0.021294
      dx2y2   :     0.024765
      dxy     :     0.006644
 24 H s       :     0.864862  s :     0.864862
 25 H s       :     0.851633  s :     0.851633
 26 H s       :     0.869604  s :     0.869604
 27 O s       :     3.566444  s :     3.566444
      pz      :     1.536955  p :     4.817111
      px      :     1.529487
      py      :     1.750670
      dz2     :     0.013808  d :     0.046992
      dxz     :     0.007903
      dyz     :     0.009006
      dx2y2   :     0.009122
      dxy     :     0.007152
 28 H s       :     0.666923  s :     0.666923


                      *****************************
                      * MAYER POPULATION ANALYSIS *
                      *****************************

  NA   - Mulliken gross atomic population
  ZA   - Total nuclear charge
  QA   - Mulliken gross atomic charge
  VA   - Mayer's total valence
  BVA  - Mayer's bonded valence
  FA   - Mayer's free valence

  ATOM       NA         ZA         QA         VA         BVA        FA
  0 C      6.5701     6.0000    -0.5701     3.7864     3.7864     0.0000
  1 H      0.8015     1.0000     0.1985     0.9428     0.9428     0.0000
  2 H      0.8111     1.0000     0.1889     0.9246     0.9246     0.0000
  3 H      0.8269     1.0000     0.1731     0.9404     0.9404     0.0000
  4 C      5.4688     6.0000     0.5312     3.9652     3.9652     0.0000
  5 O      8.5100     8.0000    -0.5100     2.0397     2.0397     0.0000
  6 N      7.3687     7.0000    -0.3687     3.1152     3.1152    -0.0000
  7 C      6.2510     6.0000    -0.2510     3.7749     3.7749     0.0000
  8 H      0.8235     1.0000     0.1765     0.9358     0.9358    -0.0000
  9 H      0.7949     1.0000     0.2051     0.9381     0.9381     0.0000
 10 C      6.1807     6.0000    -0.1807     3.8158     3.8158     0.0000
 11 H      0.8168     1.0000     0.1832     0.9311     0.9311    -0.0000
 12 H      0.8225     1.0000     0.1775     0.9304     0.9304     0.0000
 13 C      6.0311     6.0000    -0.0311     3.7716     3.7716     0.0000
 14 H      0.8558     1.0000     0.1442     0.9257     0.9257     0.0000
 15 H      0.8420     1.0000     0.1580     0.9347     0.9347     0.0000
 16 C      5.4772     6.0000     0.5228     3.9309     3.9309     0.0000
 17 N      7.3604     7.0000    -0.3604     3.1634     3.1634    -0.0000
 18 O      8.5454     8.0000    -0.5454     1.9842     1.9842    -0.0000
[...]
      2       0.000088   0.000027  -0.000006
      3       0.000516  -0.000270   0.001240
      4       0.000150  -0.000204   0.001020
      5      -0.000197   0.000002   0.000056
      6       0.000473   0.000000   0.000143
      7      -0.000447  -0.000004   0.000045
      8      -0.000751   0.000006  -0.000008
      9      -0.000918  -0.000308   0.000011
     10       0.000423   0.000104   0.000026
     11      -0.001243  -0.000438  -0.000047
     12       0.000270   0.000042   0.000066
     13       0.000662   0.000048  -0.000043
     14       0.001207   0.000124   0.000091
     15      -0.000390  -0.000048  -0.000026
     16      -0.000244  -0.000019  -0.000021
     17      -0.000382  -0.000031  -0.000029
     18      -0.000385  -0.000070  -0.000115
     19      -0.000110   0.000019  -0.000034
     20      -0.000349  -0.000034  -0.000040
     21      -0.004314  -0.000095   0.000010
     22      -0.004441  -0.000104   0.000033
     23      -0.009830  -0.000887  -0.000019
     24      -0.011029  -0.002212  -0.000031
     25      -0.011270  -0.002167  -0.000071
     26       0.033577   0.006617   0.000216
     27       0.063904   0.004133  -0.000021
     28       0.062245   0.003691  -0.000017
     29       0.092757   0.005580  -0.000011
     30      -0.000007  -0.000011  -0.000259
     31       0.000077   0.000025   0.000030
     32       0.000184  -0.000038  -0.000129
     33       0.000426   0.000116  -0.000732
     34      -0.000732  -0.000091   0.000113
     35      -0.000035  -0.000005   0.000242
     36      -0.000134   0.000026   0.000406
     37       0.001017  -0.000196  -0.000759
     38      -0.001717   0.000383   0.001658
     39       0.000044  -0.000104   0.001551
     40      -0.000010   0.000116  -0.000518
     41      -0.000011  -0.000004   0.000906
     42      -0.000182   0.000005   0.000351
     43      -0.000194  -0.000057  -0.000814
     44      -0.000108  -0.000047   0.004413
     45      -0.000356   0.001266  -0.002283
     46       0.000298  -0.001353  -0.000251
     47       0.000032  -0.000044   0.003514
     48      -0.000188  -0.000806   0.000015
     49       0.000406   0.000267   0.000028
     50      -0.000294  -0.000917  -0.000006
     51       0.000308  -0.000090   0.000001
     52      -0.000082   0.000109  -0.000022
     53       0.000524  -0.000255  -0.000004
     54       0.000031   0.000896   0.000004
     55      -0.000090  -0.000138  -0.000015
     56       0.000062  -0.000152   0.000002
     57       0.001550  -0.015604  -0.000035
     58      -0.002933   0.038328  -0.000002
     59       0.006823  -0.080202   0.000005
     60       0.007808  -0.067230   0.000059
     61      -0.014138   0.137159  -0.000045
     62      -0.022046   0.221130  -0.000095
     63       0.003748  -0.052021   0.000035
     64       0.007453  -0.113732   0.000184
     65       0.001551  -0.013304   0.000014
     66      -0.022553   0.297363   0.000020
     67       0.037374  -0.482540  -0.000008
     68      -0.059574   0.759019   0.000035
     69      -0.086714  -0.006585  -0.000006
     70      -0.020471  -0.002111   0.000006
     71       0.014313   0.001156  -0.000015
     72       0.095782   0.006986   0.000043
     73      -0.108363  -0.007031  -0.000322
     74      -0.192816  -0.010907  -0.000191
     75       0.919896   0.074402   0.000004
     76       0.172830   0.014208  -0.000083
     77       0.000911   0.000738   0.000012
     78       0.014191   0.001865  -0.000088
     79       0.181794   0.017220   0.000528
     80       0.003948   0.000226   0.000928
     81      -0.000008   0.000005   0.057872
     82      -0.000062  -0.000005   0.017168
     83      -0.000024   0.000004  -0.016719
     84       0.000162   0.000001  -0.930480
     85       0.000053  -0.000041  -0.264219
     86       0.000041  -0.000020   0.245808


-----------
IR SPECTRUM
-----------

 Mode   freq       eps      Int      T**2         TX        TY        TZ
       cm**-1   L/(mol*cm) km/mol    a.u.
----------------------------------------------------------------------------
  6:     47.66   0.000257    1.30  0.001681  (-0.039105  0.004788  0.011355)
  7:     67.89   0.001689    8.53  0.007762  ( 0.035415  0.080532 -0.004734)
  8:     72.49   0.000543    2.74  0.002337  ( 0.032795 -0.035519 -0.000098)
  9:     84.57   0.000257    1.30  0.000948  (-0.019771 -0.020036  0.012489)
 10:    104.29   0.000789    3.99  0.002362  (-0.026020  0.036589  0.018596)
 11:    114.95   0.001792    9.06  0.004865  (-0.048265  0.040059  0.030513)
 12:    139.70   0.001837    9.28  0.004103  (-0.059399 -0.018216  0.015584)
 13:    160.38   0.002380   12.03  0.004631  ( 0.002222  0.064621  0.021229)
 14:    195.15   0.009023   45.60  0.014429  (-0.021431  0.100133  0.062797)
 15:    213.46   0.010552   53.32  0.015426  (-0.011008  0.111109  0.054399)
 16:    220.22   0.016065   81.18  0.022765  ( 0.030955 -0.129376 -0.071193)
 17:    248.59   0.005014   25.34  0.006295  ( 0.012553 -0.074178 -0.025194)
 18:    263.86   0.003999   20.21  0.004729  (-0.012643 -0.065743 -0.015723)
 19:    278.26   0.000942    4.76  0.001057  ( 0.004566  0.004912 -0.031810)
 20:    304.21   0.001410    7.12  0.001446  ( 0.009996 -0.021939  0.029406)
 21:    358.63   0.002456   12.41  0.002137  (-0.031399 -0.004027  0.033695)
 22:    400.43   0.001316    6.65  0.001025  ( 0.023866  0.018774 -0.010163)
 23:    433.77   0.000836    4.22  0.000601  ( 0.021089 -0.009767 -0.007813)
 24:    457.05   0.002340   11.83  0.001598  ( 0.026936  0.015466  0.025165)
 25:    492.61   0.003057   15.45  0.001936  ( 0.030210 -0.029961 -0.011228)
 26:    511.33   0.005410   27.34  0.003302  (-0.033320 -0.044204  0.015410)
 27:    582.52   0.002903   14.67  0.001555  (-0.036791  0.013696 -0.003726)
 28:    595.91   0.001712    8.65  0.000897  (-0.021766  0.006208 -0.019605)
 29:    619.96   0.005925   29.94  0.002982  (-0.019371 -0.023274  0.045445)
 30:    687.19   0.001461    7.38  0.000663  ( 0.000047 -0.003214  0.025555)
 31:    757.26   0.001511    7.63  0.000623  (-0.018723  0.008268  0.014270)
 32:    801.77   0.006823   34.48  0.002656  (-0.017155  0.008113  0.047912)
 33:    880.65   0.003666   18.53  0.001299  (-0.023012 -0.004792  0.027324)
 34:    923.64   0.000732    3.70  0.000247  (-0.011151 -0.006089  0.009267)
 35:    979.52   0.002649   13.39  0.000844  ( 0.010443  0.000492 -0.027105)
 36:   1005.83   0.004896   24.74  0.001519  ( 0.025196  0.008953 -0.028353)
 37:   1016.39   0.005878   29.70  0.001805  ( 0.037727  0.013468  0.014138)
 38:   1066.66   0.003155   15.94  0.000923  (-0.029573  0.006803 -0.001464)
 39:   1073.70   0.015682   79.25  0.004558  (-0.018174  0.035526 -0.054456)
 40:   1092.22   0.001389    7.02  0.000397  ( 0.018346 -0.000162  0.007759)
 41:   1101.76   0.011736   59.31  0.003324  ( 0.008318 -0.024257  0.051637)
 42:   1119.41   0.004195   21.20  0.001169  ( 0.013535 -0.001288 -0.031377)
 43:   1136.36   0.001330    6.72  0.000365  (-0.013416  0.013584  0.000803)
 44:   1180.79   0.011653   58.89  0.003080  ( 0.020407  0.003120 -0.051513)
 45:   1187.50   0.000465    2.35  0.000122  ( 0.008559 -0.004910 -0.004977)
 46:   1225.86   0.011554   58.39  0.002941  ( 0.005005  0.031047 -0.044184)
 47:   1243.37   0.022475  113.58  0.005641  (-0.035476  0.029571 -0.059226)
 48:   1265.77   0.013529   68.37  0.003335  (-0.039810  0.015998 -0.038660)
 49:   1289.89   0.014196   71.74  0.003434  (-0.057710  0.008539  0.005567)
 50:   1297.31   0.017702   89.46  0.004258  (-0.039243  0.049540 -0.016243)
 51:   1336.94   0.004496   22.72  0.001050  ( 0.020433  0.021451 -0.013109)
 52:   1371.75   0.000705    3.56  0.000160  ( 0.003933 -0.002095  0.011852)
 53:   1406.33   0.004321   21.83  0.000959  ( 0.004456  0.030485  0.003093)
 54:   1420.65   0.005328   26.93  0.001170  ( 0.016057  0.015508  0.025923)
 55:   1440.68   0.014815   74.87  0.003209  (-0.037835 -0.007202  0.041541)
 56:   1455.97   0.013773   69.60  0.002952  ( 0.049003 -0.006014 -0.022682)
 57:   1465.50   0.020410  103.14  0.004346  (-0.056255  0.022332 -0.026129)
 58:   1478.20   0.035073  177.24  0.007404  (-0.056838  0.021212 -0.061023)
 59:   1488.88   0.002788   14.09  0.000584  (-0.003564  0.022960  0.006662)
 60:   1491.31   0.001661    8.39  0.000348  ( 0.005128  0.001923 -0.017821)
 61:   1502.04   0.005317   26.87  0.001105  ( 0.015926 -0.025245  0.014622)
 62:   1506.23   0.003939   19.90  0.000816  ( 0.001145  0.013029 -0.025396)
 63:   1512.37   0.000901    4.55  0.000186  ( 0.009508  0.003711  0.009039)
 64:   1518.50   0.003344   16.90  0.000687  ( 0.004145  0.025420 -0.004893)
 65:   1525.08   0.001155    5.84  0.000236  ( 0.008203  0.002618 -0.012736)
 66:   1530.14   0.007439   37.60  0.001517  ( 0.011002  0.032415  0.018586)
 67:   1545.96   0.002752   13.91  0.000555  ( 0.010794  0.008899 -0.018968)
 68:   1555.52   0.016483   83.30  0.003307  ( 0.044917 -0.005650 -0.035459)
 69:   1707.77   0.129542  654.65  0.023671  ( 0.070748  0.046026  0.128638)
 70:   1713.47   0.082159  415.20  0.014963  (-0.003210  0.057401 -0.107972)
 71:   3013.88   0.017411   87.99  0.001803  ( 0.017840  0.015931  0.035082)
 72:   3030.86   0.011284   57.02  0.001162  (-0.030537 -0.013954  0.005880)
 73:   3051.79   0.011700   59.13  0.001196  (-0.007315 -0.012115  0.031561)
 74:   3063.00   0.001181    5.97  0.000120  ( 0.009309 -0.005215 -0.002552)
 75:   3077.08   0.006339   32.03  0.000643  ( 0.000331  0.005836  0.024671)
 76:   3082.27   0.010837   54.77  0.001097  (-0.001789  0.022849 -0.023914)
 77:   3082.76   0.007996   40.41  0.000809  ( 0.016649 -0.021576 -0.008165)
 78:   3102.02   0.010218   51.64  0.001028  (-0.007940  0.024435  0.019179)
 79:   3113.53   0.005305   26.81  0.000532  ( 0.006089 -0.017205 -0.014095)
 80:   3137.93   0.001412    7.13  0.000140  ( 0.002163 -0.001153  0.011593)
 81:   3153.46   0.005331   26.94  0.000528  ( 0.013746 -0.018400  0.000056)
 82:   3158.44   0.001839    9.30  0.000182  (-0.011782  0.005155  0.004044)
 83:   3174.68   0.001667    8.42  0.000164  ( 0.005811  0.000059  0.011405)
 84:   3184.67   0.000513    2.59  0.000050  ( 0.001178 -0.006962 -0.000630)
 85:   3191.37   0.000998    5.04  0.000098  (-0.006388  0.004258 -0.006216)
 86:   3739.34   0.012084   61.07  0.001008  (-0.026168 -0.012445  0.012991)

* The epsilon (eps) is given for a Dirac delta lineshape.
** The dipole moment derivative (T) already includes vibrational overlap.

The first frequency considered to be a vibration is 6
The total number of vibrations considered is 81


--------------------------
THERMOCHEMISTRY AT 298.15K
--------------------------

Temperature         ... 298.15 K
Pressure            ... 1.00 atm
Total Mass          ... 188.23 AMU

Throughout the following assumptions are being made:
  (1) The electronic state is orbitally nondegenerate
  (2) There are no thermally accessible electronically excited states
  (3) Hindered rotations indicated by low frequency modes are not
      treated as such but are treated as vibrations and this may
      cause some error
  (4) All equations used are the standard statistical mechanics
      equations for an ideal gas
  (5) All vibrations are strictly harmonic

freq.      47.66  E(vib)   ...       0.53 
freq.      67.89  E(vib)   ...       0.50 
freq.      72.49  E(vib)   ...       0.49 
freq.      84.57  E(vib)   ...       0.48 
freq.     104.29  E(vib)   ...       0.46 
freq.     114.95  E(vib)   ...       0.44 
freq.     139.70  E(vib)   ...       0.42 
freq.     160.38  E(vib)   ...       0.39 
freq.     195.15  E(vib)   ...       0.36 
freq.     213.46  E(vib)   ...       0.34 
freq.     220.22  E(vib)   ...       0.33 
freq.     248.59  E(vib)   ...       0.31 
freq.     263.86  E(vib)   ...       0.29 
freq.     278.26  E(vib)   ...       0.28 
freq.     304.21  E(vib)   ...       0.26 
freq.     358.63  E(vib)   ...       0.22 
freq.     400.43  E(vib)   ...       0.19 
freq.     433.77  E(vib)   ...       0.17 
freq.     457.05  E(vib)   ...       0.16 
freq.     492.61  E(vib)   ...       0.14 
freq.     511.33  E(vib)   ...       0.14 
freq.     582.52  E(vib)   ...       0.11 
freq.     595.91  E(vib)   ...       0.10 
freq.     619.96  E(vib)   ...       0.09 
freq.     687.19  E(vib)   ...       0.07 
freq.     757.26  E(vib)   ...       0.06 
freq.     801.77  E(vib)   ...       0.05 
freq.     880.65  E(vib)   ...       0.04 
freq.     923.64  E(vib)   ...       0.03 
freq.     979.52  E(vib)   ...       0.03 
freq.    1005.83  E(vib)   ...       0.02 
freq.    1016.39  E(vib)   ...       0.02 
freq.    1066.66  E(vib)   ...       0.02 
freq.    1073.70  E(vib)   ...       0.02 
freq.    1092.22  E(vib)   ...       0.02 
freq.    1101.76  E(vib)   ...       0.02 
freq.    1119.41  E(vib)   ...       0.01 
freq.    1136.36  E(vib)   ...       0.01 
freq.    1180.79  E(vib)   ...       0.01 
freq.    1187.50  E(vib)   ...       0.01 
freq.    1225.86  E(vib)   ...       0.01 
freq.    1243.37  E(vib)   ...       0.01 
freq.    1265.77  E(vib)   ...       0.01 
freq.    1289.89  E(vib)   ...       0.01 
freq.    1297.31  E(vib)   ...       0.01 
freq.    1336.94  E(vib)   ...       0.01 
freq.    1371.75  E(vib)   ...       0.01 
freq.    1406.33  E(vib)   ...       0.00 
freq.    1420.65  E(vib)   ...       0.00 
freq.    1440.68  E(vib)   ...       0.00 
freq.    1455.97  E(vib)   ...       0.00 
freq.    1465.50  E(vib)   ...       0.00 
freq.    1478.20  E(vib)   ...       0.00 
freq.    1488.88  E(vib)   ...       0.00 
freq.    1491.31  E(vib)   ...       0.00 
freq.    1502.04  E(vib)   ...       0.00 
freq.    1506.23  E(vib)   ...       0.00 
freq.    1512.37  E(vib)   ...       0.00 
freq.    1518.50  E(vib)   ...       0.00 
freq.    1525.08  E(vib)   ...       0.00 
freq.    1530.14  E(vib)   ...       0.00 
freq.    1545.96  E(vib)   ...       0.00 
freq.    1555.52  E(vib)   ...       0.00 
freq.    1707.77  E(vib)   ...       0.00 
freq.    1713.47  E(vib)   ...       0.00 
freq.    3013.88  E(vib)   ...       0.00 
freq.    3030.86  E(vib)   ...       0.00 
freq.    3051.79  E(vib)   ...       0.00 
freq.    3063.00  E(vib)   ...       0.00 
freq.    3077.08  E(vib)   ...       0.00 
freq.    3082.27  E(vib)   ...       0.00 
freq.    3082.76  E(vib)   ...       0.00 
freq.    3102.02  E(vib)   ...       0.00 
freq.    3113.53  E(vib)   ...       0.00 
freq.    3137.93  E(vib)   ...       0.00 
freq.    3153.46  E(vib)   ...       0.00 
freq.    3158.44  E(vib)   ...       0.00 
freq.    3174.68  E(vib)   ...       0.00 
freq.    3184.67  E(vib)   ...       0.00 
freq.    3191.37  E(vib)   ...       0.00 
freq.    3739.34  E(vib)   ...       0.00 

------------
INNER ENERGY
------------

The inner energy is: U= E(el) + E(ZPE) + E(vib) + E(rot) + E(trans)
    E(el)   - is the total energy from the electronic structure calculation
              = E(kin-el) + E(nuc-el) + E(el-el) + E(nuc-nuc)
    E(ZPE)  - the the zero temperature vibrational energy from the frequency calculation
    E(vib)  - the the finite temperature correction to E(ZPE) due to population
              of excited vibrational states
    E(rot)  - is the rotational thermal energy
    E(trans)- is the translational thermal energy

Summary of contributions to the inner energy U:
Electronic energy                ...   -649.34405010 Eh
Zero point energy                ...      0.24975801 Eh     156.73 kcal/mol
Thermal vibrational correction   ...      0.01235402 Eh       7.75 kcal/mol
Thermal rotational correction    ...      0.00141627 Eh       0.89 kcal/mol
Thermal translational correction ...      0.00141627 Eh       0.89 kcal/mol
-----------------------------------------------------------------------
Total thermal energy                   -649.07910553 Eh


Summary of corrections to the electronic energy:
(perhaps to be used in another calculation)
Total thermal correction                  0.01518656 Eh       9.53 kcal/mol
Non-thermal (ZPE) correction              0.24975801 Eh     156.73 kcal/mol
-----------------------------------------------------------------------
Total correction                          0.26494457 Eh     166.25 kcal/mol


--------
ENTHALPY
--------

The enthalpy is H = U + kB*T
                kB is Boltzmann's constant
Total free energy                 ...   -649.07910553 Eh 
Thermal Enthalpy correction       ...      0.00094421 Eh       0.59 kcal/mol
-----------------------------------------------------------------------
Total Enthalpy                    ...   -649.07816132 Eh


Note: Only C1 symmetry has been detected, increase convergence thresholds 
      if your molecule has a higher symmetry. Symmetry factor of 1.0 is   
      used for the rotational entropy correction. 
 

Note: Rotational entropy computed according to Herzberg 
Infrared and Raman Spectra, Chapter V,1, Van Nostrand Reinhold, 1945 
Point Group:  C1, Symmetry Number:   1  
Rotational constants in cm-1:     0.035366     0.020660     0.018660 

Vibrational entropy computed according to the QRRHO of S. Grimme
Chem.Eur.J. 2012 18 9955


-------
ENTROPY
-------

The entropy contributions are T*S = T*(S(el)+S(vib)+S(rot)+S(trans))
     S(el)   - electronic entropy
     S(vib)  - vibrational entropy
     S(rot)  - rotational entropy
     S(trans)- translational entropy
The entropies will be listed as multiplied by the temperature to get
units of energy

Electronic entropy                ...      0.00000000 Eh      0.00 kcal/mol
Vibrational entropy               ...      0.02195481 Eh     13.78 kcal/mol
Rotational entropy                ...      0.01479961 Eh      9.29 kcal/mol
Translational entropy             ...      0.01976700 Eh     12.40 kcal/mol
-----------------------------------------------------------------------
Final entropy term                ...      0.05652143 Eh     35.47 kcal/mol

In case the symmetry of your molecule has not been determined correctly
or in case you have a reason to use a different symmetry number we print 
out the resulting rotational entropy values for sn=1,12 :
 --------------------------------------------------------
|  sn= 1 | S(rot)=       0.01479961 Eh      9.29 kcal/mol|
|  sn= 2 | S(rot)=       0.01414515 Eh      8.88 kcal/mol|
|  sn= 3 | S(rot)=       0.01376232 Eh      8.64 kcal/mol|
|  sn= 4 | S(rot)=       0.01349070 Eh      8.47 kcal/mol|
|  sn= 5 | S(rot)=       0.01328001 Eh      8.33 kcal/mol|
|  sn= 6 | S(rot)=       0.01310786 Eh      8.23 kcal/mol|
|  sn= 7 | S(rot)=       0.01296232 Eh      8.13 kcal/mol|
|  sn= 8 | S(rot)=       0.01283624 Eh      8.05 kcal/mol|
|  sn= 9 | S(rot)=       0.01272503 Eh      7.99 kcal/mol|
|  sn=10 | S(rot)=       0.01262555 Eh      7.92 kcal/mol|
|  sn=11 | S(rot)=       0.01253556 Eh      7.87 kcal/mol|
|  sn=12 | S(rot)=       0.01245341 Eh      7.81 kcal/mol|
 --------------------------------------------------------


-------------------
GIBBS FREE ENERGY
-------------------

The Gibbs free energy is G = H - T*S

Total enthalpy                    ...   -649.07816132 Eh 
Total entropy correction          ...     -0.05652143 Eh    -35.47 kcal/mol
-----------------------------------------------------------------------
Final Gibbs free energy         ...   -649.13468274 Eh

For completeness - the Gibbs free energy minus the electronic energy
G-E(el)                           ...      0.20936736 Eh    131.38 kcal/mol


Timings for individual modules:

Sum of individual times         ...     1303.957 sec (=  21.733 min)
GTO integral calculation        ...       15.256 sec (=   0.254 min)   1.2 %
SCF iterations                  ...      636.089 sec (=  10.601 min)  48.8 %
SCF Gradient evaluation         ...      185.332 sec (=   3.089 min)  14.2 %
Geometry relaxation             ...        1.298 sec (=   0.022 min)   0.1 %
Analytical frequency calculation...      465.982 sec (=   7.766 min)  35.7 %
                             ****ORCA TERMINATED NORMALLY****
TOTAL RUN TIME: 0 days 0 hours 21 minutes 49 seconds 987 msec
