
                                 *****************
                                 * O   R   C   A *
                                 *****************

                                            #,                                       
                                            ###                                      
                                            ####                                     
                                            #####                                    
                                            ######                                   
                                           ########,                                 
                                     ,,################,,,,,                         
                               ,,#################################,,                 
                          ,,##########################################,,             
                       ,#########################################, ''#####,          
                    ,#############################################,,   '####,        
                  ,##################################################,,,,####,       
                ,###########''''           ''''###############################       
              ,#####''   ,,,,##########,,,,          '''####'''          '####       
            ,##' ,,,,###########################,,,                        '##       
           ' ,,###''''                  '''############,,,                           
         ,,##''                                '''############,,,,        ,,,,,,###''
      ,#''                                            '''#######################'''  
     '                                                          ''''####''''         
             ,#######,   #######,   ,#######,      ##                                
            ,#'     '#,  ##    ##  ,#'     '#,    #''#        ######   ,####,        
            ##       ##  ##   ,#'  ##            #'  '#       #        #'  '#        
            ##       ##  #######   ##           ,######,      #####,   #    #        
            '#,     ,#'  ##    ##  '#,     ,#' ,#      #,         ##   #,  ,#        
             '#######'   ##     ##  '#######'  #'      '#     #####' # '####'        



                  #######################################################
                  #                        -***-                        #
                  #          Department of theory and spectroscopy      #
                  #    Directorship and core code : Frank Neese         #
                  #        Max Planck Institute fuer Kohlenforschung    #
                  #                Kaiser Wilhelm Platz 1               #
                  #                 D-45470 Muelheim/Ruhr               #
                  #                      Germany                        #
                  #                                                     #
                  #                  All rights reserved                #
                  #                        -***-                        #
                  #######################################################


                         Program Version 5.0.4 -  RELEASE  -


 With contributions from (in alphabetic order):
   Daniel Aravena         : Magnetic Suceptibility
   Michael Atanasov       : Ab Initio Ligand Field Theory (pilot matlab implementation)
   Alexander A. Auer      : GIAO ZORA, VPT2 properties, NMR spectrum
   Ute Becker             : Parallelization
   Giovanni Bistoni       : ED, misc. LED, open-shell LED, HFLD
   Martin Brehm           : Molecular dynamics
   Dmytro Bykov           : SCF Hessian
   Vijay G. Chilkuri      : MRCI spin determinant printing, contributions to CSF-ICE
   Dipayan Datta          : RHF DLPNO-CCSD density
   Achintya Kumar Dutta   : EOM-CC, STEOM-CC
   Dmitry Ganyushin       : Spin-Orbit,Spin-Spin,Magnetic field MRCI
   Miquel Garcia          : C-PCM and meta-GGA Hessian, CC/C-PCM, Gaussian charge scheme
   Yang Guo               : DLPNO-NEVPT2, F12-NEVPT2, CIM, IAO-localization
   Andreas Hansen         : Spin unrestricted coupled pair/coupled cluster methods
   Benjamin Helmich-Paris : MC-RPA, TRAH-SCF, COSX integrals
   Lee Huntington         : MR-EOM, pCC
   Robert Izsak           : Overlap fitted RIJCOSX, COSX-SCS-MP3, EOM
   Marcus Kettner         : VPT2
   Christian Kollmar      : KDIIS, OOCD, Brueckner-CCSD(T), CCSD density, CASPT2, CASPT2-K
   Simone Kossmann        : Meta GGA functionals, TD-DFT gradient, OOMP2, MP2 Hessian
   Martin Krupicka        : Initial AUTO-CI
   Lucas Lang             : DCDCAS
   Marvin Lechner         : AUTO-CI (C++ implementation), FIC-MRCC
   Dagmar Lenk            : GEPOL surface, SMD
   Dimitrios Liakos       : Extrapolation schemes; Compound Job, initial MDCI parallelization
   Dimitrios Manganas     : Further ROCIS development; embedding schemes
   Dimitrios Pantazis     : SARC Basis sets
   Anastasios Papadopoulos: AUTO-CI, single reference methods and gradients
   Taras Petrenko         : DFT Hessian,TD-DFT gradient, ASA, ECA, R-Raman, ABS, FL, XAS/XES, NRVS
   Peter Pinski           : DLPNO-MP2, DLPNO-MP2 Gradient
   Christoph Reimann      : Effective Core Potentials
   Marius Retegan         : Local ZFS, SOC
   Christoph Riplinger    : Optimizer, TS searches, QM/MM, DLPNO-CCSD(T), (RO)-DLPNO pert. Triples
   Tobias Risthaus        : Range-separated hybrids, TD-DFT gradient, RPA, STAB
   Michael Roemelt        : Original ROCIS implementation
   Masaaki Saitow         : Open-shell DLPNO-CCSD energy and density
   Barbara Sandhoefer     : DKH picture change effects
   Avijit Sen             : IP-ROCIS
   Kantharuban Sivalingam : CASSCF convergence, NEVPT2, FIC-MRCI
   Bernardo de Souza      : ESD, SOC TD-DFT
   Georgi Stoychev        : AutoAux, RI-MP2 NMR, DLPNO-MP2 response
   Willem Van den Heuvel  : Paramagnetic NMR
   Boris Wezisla          : Elementary symmetry handling
   Frank Wennmohs         : Technical directorship


 We gratefully acknowledge several colleagues who have allowed us to
 interface, adapt or use parts of their codes:
   Stefan Grimme, W. Hujo, H. Kruse, P. Pracht,  : VdW corrections, initial TS optimization,
                  C. Bannwarth, S. Ehlert          DFT functionals, gCP, sTDA/sTD-DF
   Ed Valeev, F. Pavosevic, A. Kumar             : LibInt (2-el integral package), F12 methods
   Garnet Chan, S. Sharma, J. Yang, R. Olivares  : DMRG
   Ulf Ekstrom                                   : XCFun DFT Library
   Mihaly Kallay                                 : mrcc  (arbitrary order and MRCC methods)
   Jiri Pittner, Ondrej Demel                    : Mk-CCSD
   Frank Weinhold                                : gennbo (NPA and NBO analysis)
   Christopher J. Cramer and Donald G. Truhlar   : smd solvation model
   Lars Goerigk                                  : TD-DFT with DH, B97 family of functionals
   V. Asgeirsson, H. Jonsson                     : NEB implementation
   FAccTs GmbH                                   : IRC, NEB, NEB-TS, DLPNO-Multilevel, CI-OPT
                                                   MM, QMMM, 2- and 3-layer-ONIOM, Crystal-QMMM,
                                                   LR-CPCM, SF, NACMEs, symmetry and pop. for TD-DFT,
                                                   nearIR, NL-DFT gradient (VV10), updates on ESD,
                                                   ML-optimized integration grids
   S Lehtola, MJT Oliveira, MAL Marques          : LibXC Library
   Liviu Ungur et al                             : ANISO software


 Your calculation uses the libint2 library for the computation of 2-el integrals
 For citations please refer to: http://libint.valeyev.net

 Your ORCA version has been built with support for libXC version: 5.1.0
 For citations please refer to: https://tddft.org/programs/libxc/

 This ORCA versions uses:
   CBLAS   interface :  Fast vector & matrix operations
   LAPACKE interface :  Fast linear algebra routines
   SCALAPACK package :  Parallel linear algebra routines
   Shared memory     :  Shared parallel matrices
   BLAS/LAPACK       :  OpenBLAS 0.3.15  USE64BITINT DYNAMIC_ARCH NO_AFFINITY SkylakeX SINGLE_THREADED
        Core in use  :  SkylakeX
   Copyright (c) 2011-2014, The OpenBLAS Project




***************************************
The coordinates will be read from file: /users/fjb15167/WWenergy/structures/Ne.xyz
***************************************


Your calculation utilizes the atom-pairwise dispersion correction
based on tight binding partial charges (D4)
Cite in your paper:
E.Caldeweyher, C.Bannwarth, S.Grimme, J.Chem.Phys., (2017), 147, 034112.
E.Caldeweyher, S.Ehlert, A.Hansen, H.Neugebauer, S.Grimme, J.Chem.Phys., (2018), in progress.
   

================================================================================

----- Orbital basis set information -----
Your calculation utilizes the basis: 6-31+G(d)
   H-He, Li-Ne : W. J. Hehre, R. Ditchfield and J.A. Pople, J. Chem. Phys. 56, 2257 (1972).
                 Note: He and Ne are unpublished basis sets taken from the Gaussian program.
                 Note: Li and B from J. D. Dill and J. A. Pople, J. Chem. Phys. 62, 2921 (1975).
   Na - Ar     : M. M. Francl, W. J. Pietro, W. J. Hehre, J. S. Binkley, M. S. Gordon, 
                 D. J. DeFrees and J. A. Pople, J. Chem. Phys. 77, 3654 (1982).
   K - Zn      : V. A. Rassolov, J. A. Pople, M. A. Ratner, and T. L. Windus, J. Chem. Phys. 109, 1223 (1998).
   Additional Pol./Diff. from the 6-311G equivalent.

----- AuxJ basis set information -----
Your calculation utilizes the AutoAux generation procedure.
  G. L. Stoychev, A. A. Auer, F. Neese, J. Chem. Theory Comput. 13, 554 (2017)

----- AuxC basis set information -----
Your calculation utilizes the AutoAux generation procedure.
  G. L. Stoychev, A. A. Auer, F. Neese, J. Chem. Theory Comput. 13, 554 (2017)

----- AuxJK basis set information -----
Your calculation utilizes the AutoAux generation procedure.
  G. L. Stoychev, A. A. Auer, F. Neese, J. Chem. Theory Comput. 13, 554 (2017)

================================================================================
                                        WARNINGS
                       Please study these warnings very carefully!
================================================================================


WARNING: Geometry Optimization
  ===> : Switching off AutoStart
         For restart on a previous wavefunction, please use MOREAD

INFO   : the flag for use of the SHARK integral package has been found!

================================================================================
                                       INPUT FILE
================================================================================
NAME = Ne_water.inp
|  1> ! OPT FREQ B3LYP 6-31+G(d) D4 AUTOAUX CPCM(water)
|  2> 
|  3> %PAL NPROCS 4 END
|  4> 
|  5> %maxcore 3375
|  6> 
|  7> *xyzfile -1 1 /users/fjb15167/WWenergy/structures/Ne.xyz
|  8> 
|  9>                          ****END OF INPUT****
================================================================================

                       *****************************
                       * Geometry Optimization Run *
                       *****************************

Geometry optimization settings:
Update method            Update   .... BFGS
Choice of coordinates    CoordSys .... Z-matrix Internals
Initial Hessian          InHess   .... Almoef's Model

Convergence Tolerances:
Energy Change            TolE     ....  5.0000e-06 Eh
Max. Gradient            TolMAXG  ....  3.0000e-04 Eh/bohr
RMS Gradient             TolRMSG  ....  1.0000e-04 Eh/bohr
Max. Displacement        TolMAXD  ....  4.0000e-03 bohr
RMS Displacement         TolRMSD  ....  2.0000e-03 bohr
Strict Convergence                ....  False
------------------------------------------------------------------------------
                        ORCA OPTIMIZATION COORDINATE SETUP
------------------------------------------------------------------------------

The optimization will be done in new redundant internal coordinates
Making redundant internal coordinates   ...  (new redundants) done
Evaluating the initial hessian          ...  (Almloef) done
Evaluating the coordinates              ...  done
Calculating the B-matrix                .... done
Calculating the G-matrix                .... done
Diagonalizing the G-matrix              .... done
Small eigenvalue found = 5.135e-03
Small eigenvalue found = 7.696e-03
Small eigenvalue found = 1.393e-02
Small eigenvalue found = 1.560e-02
The first mode is                       ....   55
The number of degrees of freedom        ....   84

    -----------------------------------------------------------------
                    Redundant Internal Coordinates


    -----------------------------------------------------------------
         Definition                    Initial Value    Approx d2E/dq
    -----------------------------------------------------------------
      1. B(H   1,C   0)                  1.0941         0.354704   
      2. B(H   2,C   0)                  1.0972         0.350753   
      3. B(H   3,C   0)                  1.0919         0.357574   
      4. B(C   4,C   0)                  1.5334         0.368962   
      5. B(O   5,C   4)                  1.2283         1.013542   
      6. B(N   6,C   4)                  1.3709         0.600290   
      7. B(C   7,N   6)                  1.4564         0.438411   
      8. B(H   8,C   7)                  1.0956         0.352729   
      9. B(H   9,C   7)                  1.0937         0.355292   
     10. B(C  10,N   6)                  1.4759         0.408168   
     11. B(H  11,C  10)                  1.0926         0.356629   
     12. B(H  12,C  10)                  1.0962         0.352041   
     13. B(C  13,C  10)                  1.5308         0.372487   
     14. B(H  14,C  13)                  1.0945         0.354201   
     15. B(H  15,C  13)                  1.0978         0.349881   
     16. B(C  16,C   7)                  1.5260         0.379172   
     17. B(N  17,C  16)                  1.3670         0.608823   
     18. B(O  18,C  16)                  1.2459         0.950282   
     19. B(C  19,N  17)                  1.4566         0.438098   
     20. B(H  20,C  19)                  1.0980         0.349710   
     21. B(H  21,C  19)                  1.0967         0.351328   
     22. B(H  22,C  19)                  1.0889         0.361600   
     23. B(C  23,N  17)                  1.4561         0.438970   
     24. B(H  24,C  23)                  1.0980         0.349696   
     25. B(H  25,C  23)                  1.0896         0.360614   
     26. B(H  26,C  23)                  1.0952         0.353339   
     27. B(C  27,C  13)                  1.5641         0.329640   
     28. B(O  28,C  27)                  1.2725         0.861769   
     29. B(O  29,C  27)                  1.2640         0.888964   
     30. A(H   1,C   0,C   4)          114.6610         0.322857   
     31. A(H   3,C   0,C   4)          106.6071         0.323284   
     32. A(H   2,C   0,H   3)          108.4109         0.289322   
     33. A(H   1,C   0,H   3)          110.9775         0.289831   
     34. A(H   1,C   0,H   2)          106.5435         0.288957   
     35. A(H   2,C   0,C   4)          109.5166         0.322265   
     36. A(C   0,C   4,O   5)          121.1031         0.429100   
     37. A(O   5,C   4,N   6)          123.5163         0.465584   
     38. A(C   0,C   4,N   6)          115.3805         0.391078   
     39. A(C   4,N   6,C  10)          124.3524         0.395519   
     40. A(C   7,N   6,C  10)          117.1963         0.374474   
     41. A(C   4,N   6,C   7)          118.4476         0.400518   
     42. A(H   8,C   7,H   9)          108.9955         0.289287   
     43. A(N   6,C   7,H   9)          108.0662         0.330256   
     44. A(H   9,C   7,C  16)          112.6502         0.324395   
     45. A(H   8,C   7,C  16)          105.3065         0.324010   
     46. A(N   6,C   7,C  16)          112.0243         0.372082   
     47. A(N   6,C   7,H   8)          109.7328         0.329861   
     48. A(H  12,C  10,C  13)          111.1349         0.322962   
     49. A(H  11,C  10,C  13)          107.8370         0.323649   
     50. A(N   6,C  10,C  13)          114.2168         0.366420   
     51. A(H  11,C  10,H  12)          107.7461         0.289368   
     52. A(N   6,C  10,H  12)          106.5347         0.325891   
     53. A(N   6,C  10,H  11)          109.1907         0.326586   
     54. A(H  14,C  13,H  15)          107.0423         0.288780   
     55. A(H  15,C  13,C  27)          105.6180         0.316263   
     56. A(C  10,C  13,H  15)          109.1713         0.322636   
     57. A(C  10,C  13,H  14)          112.2067         0.323286   
     58. A(H  14,C  13,C  27)          108.8358         0.316895   
     59. A(C  10,C  13,C  27)          113.5634         0.355515   
     60. A(N  17,C  16,O  18)          122.3309         0.461318   
     61. A(C   7,C  16,O  18)          119.4952         0.426252   
     62. A(C   7,C  16,N  17)          118.1710         0.393923   
     63. A(C  16,N  17,C  19)          124.6576         0.401465   
     64. A(C  19,N  17,C  23)          115.0433         0.379167   
     65. A(C  16,N  17,C  23)          118.2167         0.401605   
     66. A(H  21,C  19,H  22)          108.5533         0.289905   
     67. A(H  20,C  19,H  22)          108.7932         0.289695   
     68. A(N  17,C  19,H  22)          111.6905         0.331180   
     69. A(H  20,C  19,H  21)          108.4009         0.288390   
     70. A(N  17,C  19,H  21)          108.2452         0.329605   
     71. A(N  17,C  19,H  20)          111.0706         0.329354   
     72. A(H  25,C  23,H  26)          109.9787         0.290040   
     73. A(H  24,C  23,H  26)          109.1140         0.288646   
     74. A(N  17,C  23,H  26)          109.1496         0.330025   
     75. A(H  24,C  23,H  25)          109.2687         0.289569   
     76. A(N  17,C  23,H  25)          108.9966         0.331139   
     77. A(N  17,C  23,H  24)          110.3235         0.329460   
     78. A(O  28,C  27,O  29)          129.3008         0.485745   
     79. A(C  13,C  27,O  29)          114.9460         0.410838   
     80. A(C  13,C  27,O  28)          115.6701         0.408583   
     81. D(O   5,C   4,C   0,H   2)     99.6537         0.010198   
     82. D(O   5,C   4,C   0,H   1)   -140.6664         0.010198   
     83. D(N   6,C   4,C   0,H   1)     39.2071         0.010198   
     84. D(N   6,C   4,C   0,H   2)    -80.4728         0.010198   
     85. D(O   5,C   4,C   0,H   3)    -17.4357         0.010198   
     86. D(N   6,C   4,C   0,H   3)    162.4377         0.010198   
     87. D(C   7,N   6,C   4,C   0)    177.4987         0.029038   
     88. D(C  10,N   6,C   4,C   0)     -1.7794         0.029038   
     89. D(C   7,N   6,C   4,O   5)     -2.6312         0.029038   
     90. D(C  10,N   6,C   4,O   5)    178.0907         0.029038   
     91. D(C  16,C   7,N   6,C   4)    125.1810         0.016389   
     92. D(H   9,C   7,N   6,C   4)      0.5063         0.016389   
     93. D(H   8,C   7,N   6,C  10)     61.1025         0.016389   
     94. D(H   9,C   7,N   6,C  10)    179.8363         0.016389   
     95. D(H   8,C   7,N   6,C   4)   -118.2274         0.016389   
     96. D(C  16,C   7,N   6,C  10)    -55.4891         0.016389   
     97. D(C  13,C  10,N   6,C   7)     91.9125         0.014214   
     98. D(C  13,C  10,N   6,C   4)    -88.8011         0.014214   
     99. D(H  12,C  10,N   6,C   7)    -31.1760         0.014214   
    100. D(H  12,C  10,N   6,C   4)    148.1104         0.014214   
    101. D(H  11,C  10,N   6,C   7)   -147.2788         0.014214   
    102. D(H  11,C  10,N   6,C   4)     32.0076         0.014214   
    103. D(C  27,C  13,C  10,H  11)     16.6742         0.011083   
    104. D(C  27,C  13,C  10,N   6)    138.2319         0.011083   
    105. D(H  15,C  13,C  10,H  12)    141.2368         0.011083   
    106. D(H  15,C  13,C  10,H  11)   -100.8801         0.011083   
    107. D(H  15,C  13,C  10,N   6)     20.6776         0.011083   
    108. D(H  14,C  13,C  10,H  12)     22.7422         0.011083   
    109. D(H  14,C  13,C  10,H  11)    140.6253         0.011083   
    110. D(C  27,C  13,C  10,H  12)   -101.2089         0.011083   
    111. D(H  14,C  13,C  10,N   6)    -97.8170         0.011083   
    112. D(O  18,C  16,C   7,H   9)   -125.7583         0.010731   
    113. D(O  18,C  16,C   7,H   8)     -7.0810         0.010731   
    114. D(O  18,C  16,C   7,N   6)    112.1492         0.010731   
    115. D(N  17,C  16,C   7,H   9)     53.6396         0.010731   
    116. D(N  17,C  16,C   7,H   8)    172.3169         0.010731   
    117. D(N  17,C  16,C   7,N   6)    -68.4528         0.010731   
    118. D(C  23,N  17,C  16,O  18)    -13.2034         0.029931   
    119. D(C  23,N  17,C  16,C   7)    167.4168         0.029931   
    120. D(C  19,N  17,C  16,O  18)   -175.9428         0.029931   
    121. D(C  19,N  17,C  16,C   7)      4.6774         0.029931   
    122. D(H  22,C  19,N  17,C  16)    -22.4952         0.016365   
    123. D(H  21,C  19,N  17,C  23)     54.8271         0.016365   
    124. D(H  21,C  19,N  17,C  16)   -141.9464         0.016365   
    125. D(H  20,C  19,N  17,C  23)    -64.0675         0.016365   
    126. D(H  22,C  19,N  17,C  23)    174.2783         0.016365   
    127. D(H  20,C  19,N  17,C  16)     99.1590         0.016365   
    128. D(H  26,C  23,N  17,C  19)    -51.3920         0.016431   
    129. D(H  26,C  23,N  17,C  16)    144.2364         0.016431   
    130. D(H  25,C  23,N  17,C  19)   -171.5284         0.016431   
    131. D(H  25,C  23,N  17,C  16)     24.0999         0.016431   
    132. D(H  24,C  23,N  17,C  19)     68.4926         0.016431   
    133. D(H  24,C  23,N  17,C  16)    -95.8791         0.016431   
    134. D(O  29,C  27,C  13,H  14)     30.2797         0.008312   
    135. D(O  29,C  27,C  13,C  10)    156.0428         0.008312   
    136. D(O  28,C  27,C  13,H  15)     92.6390         0.008312   
    137. D(O  28,C  27,C  13,H  14)   -152.7224         0.008312   
    138. D(O  29,C  27,C  13,H  15)    -84.3588         0.008312   
    139. D(O  28,C  27,C  13,C  10)    -26.9594         0.008312   
    -----------------------------------------------------------------

Number of atoms                         .... 30
Number of degrees of freedom            .... 139

         *************************************************************
         *                GEOMETRY OPTIMIZATION CYCLE   1            *
         *************************************************************
---------------------------------
CARTESIAN COORDINATES (ANGSTROEM)
---------------------------------
  C     -0.487000    2.819000    0.493000
  H     -1.263000    2.069000    0.673000
  H     -0.837000    3.436000   -0.344000
  H     -0.356000    3.463000    1.365000
  C      0.895000    2.243000    0.162000
  O      1.919000    2.755000    0.607000
  N      0.892000    1.137000   -0.648000
  C      2.171000    0.568000   -1.050000
  H      2.271000    0.616000   -2.140000
  H      2.966000    1.164000   -0.593000
  C     -0.328000    0.483000   -1.160000
  H     -1.105000    1.237000   -1.307000
  H     -0.072000    0.071000   -2.143000
  C     -0.894000   -0.600000   -0.238000
  H     -0.585000   -1.605000   -0.542000
  H     -0.515000   -0.441000    0.780000
  C      2.273000   -0.914000   -0.701000
  N      2.341000   -1.263000    0.619000
  O      2.303000   -1.759000   -1.616000
  C      2.226000   -0.328000    1.730000
  H      1.212000   -0.338000    2.151000
  H      2.929000   -0.637000    2.513000
  H      2.470000    0.689000    1.427000
  C      2.158000   -2.664000    0.971000
  H      1.115000   -2.852000    1.258000
  H      2.411000   -3.282000    0.110000
  H      2.812000   -2.911000    1.814000
  C     -2.453000   -0.566000   -0.117000
  O     -2.996000    0.569000   -0.307000
  O     -2.986000   -1.663000    0.215000

----------------------------
CARTESIAN COORDINATES (A.U.)
----------------------------
  NO LB      ZA    FRAG     MASS         X           Y           Z
   0 C     6.0000    0    12.011   -0.920297    5.327138    0.931635
   1 H     1.0000    0     1.008   -2.386724    3.909843    1.271786
   2 H     1.0000    0     1.008   -1.581701    6.493099   -0.650066
   3 H     1.0000    0     1.008   -0.672743    6.544122    2.579476
   4 C     6.0000    0    12.011    1.691305    4.238656    0.306136
   5 O     8.0000    0    15.999    3.626384    5.206195    1.147064
   6 N     7.0000    0    14.007    1.685636    2.148619   -1.224543
   7 C     6.0000    0    12.011    4.102595    1.073364   -1.984212
   8 H     1.0000    0     1.008    4.291568    1.164071   -4.044014
   9 H     1.0000    0     1.008    5.604928    2.199641   -1.120608
  10 C     6.0000    0    12.011   -0.619830    0.912738   -2.192082
  11 H     1.0000    0     1.008   -2.088147    2.337591   -2.469872
  12 H     1.0000    0     1.008   -0.136060    0.134171   -4.049683
  13 C     6.0000    0    12.011   -1.689415   -1.133836   -0.449755
  14 H     1.0000    0     1.008   -1.105490   -3.033010   -1.024232
  15 H     1.0000    0     1.008   -0.973209   -0.833369    1.473986
  16 C     6.0000    0    12.011    4.295348   -1.727210   -1.324698
  17 N     7.0000    0    14.007    4.423849   -2.386724    1.169740
  18 O     8.0000    0    15.999    4.352039   -3.324028   -3.053797
  19 C     6.0000    0    12.011    4.206530   -0.619830    3.269226
  20 H     1.0000    0     1.008    2.290348   -0.638727    4.064801
  21 H     1.0000    0     1.008    5.535008   -1.203756    4.748882
  22 H     1.0000    0     1.008    4.667624    1.302021    2.696639
  23 C     6.0000    0    12.011    4.078029   -5.034230    1.834924
  24 H     1.0000    0     1.008    2.107045   -5.389499    2.377275
  25 H     1.0000    0     1.008    4.556130   -6.202081    0.207870
  26 H     1.0000    0     1.008    5.313910   -5.500993    3.427963
  27 C     6.0000    0    12.011   -4.635498   -1.069585   -0.221098
  28 O     8.0000    0    15.999   -5.661619    1.075254   -0.580146
  29 O     8.0000    0    15.999   -5.642722   -3.142615    0.406291

--------------------------------
INTERNAL COORDINATES (ANGSTROEM)
--------------------------------
 C      0   0   0     0.000000000000     0.00000000     0.00000000
 H      1   0   0     1.094109683715     0.00000000     0.00000000
 H      1   2   0     1.097159058660   106.54353617     0.00000000
 H      1   2   3     1.091916205576   110.97752046   117.82321123
 C      1   2   3     1.533382209366   114.66096006   238.67700323
 O      5   1   2     1.228309814338   121.10308337   219.33361627
 N      5   1   2     1.370892045349   115.38053461    39.20708700
 C      7   5   1     1.456436061075   118.44756805   177.49873195
 H      8   7   5     1.095629499420   109.73281261   241.77260311
 H      8   7   5     1.093658996214   108.06623895     0.50634326
 C      7   5   1     1.475892950048   124.35237581   358.22063216
 H     11   7   5     1.092636261525   109.19070715    32.00761218
 H     11   7   5     1.096161028317   106.53469897   148.11037411
 C     11   7   5     1.530793585040   114.21679524   271.19891660
 H     14  11   7     1.094496231149   112.20666629   262.18302678
 H     14  11   7     1.097836964216   109.17127604    20.67759348
 C      8   7   5     1.525951834102   112.02427864   125.18098510
 N     17   8   7     1.367049743060   118.17097349   291.54715886
 O     17   8   7     1.245853121359   119.49524689   112.14921984
 C     18  17   8     1.456630014794   124.65755266     4.67738052
 H     20  18  17     1.097969489558   111.07064250    99.15904384
 H     20  18  17     1.096712815645   108.24517797   218.05362443
 H     20  18  17     1.088868219758   111.69046529   337.50483035
 C     18  17   8     1.456088596206   118.21669685   167.41678705
 H     24  18  17     1.097980874150   110.32350345   264.12094861
 H     24  18  17     1.089611857498   108.99655791    24.09992856
 H     24  18  17     1.095159349136   109.14956281   144.23639082
 C     14  11   7     1.564058183061   113.56339839   138.23190813
 O     28  14  11     1.272467681318   115.67006218   333.04060846
 O     28  14  11     1.264010284768   114.94599464   156.04277832

---------------------------
INTERNAL COORDINATES (A.U.)
---------------------------
 C      0   0   0     0.000000000000     0.00000000     0.00000000
 H      1   0   0     2.067567662693     0.00000000     0.00000000
 H      1   2   0     2.073330146219   106.54353617     0.00000000
 H      1   2   3     2.063422589730   110.97752046   117.82321123
 C      1   2   3     2.897672434329   114.66096006   238.67700323
 O      5   1   2     2.321169156707   121.10308337   219.33361627
 N      5   1   2     2.590610524880   115.38053461    39.20708700
 C      7   5   1     2.752265286999   118.44756805   177.49873195
 H      8   7   5     2.070439698150   109.73281261   241.77260311
 H      8   7   5     2.066715986744   108.06623895     0.50634326
 C      7   5   1     2.789033478575   124.35237581   358.22063216
 H     11   7   5     2.064783298274   109.19070715    32.00761218
 H     11   7   5     2.071444142196   106.53469897   148.11037411
 C     11   7   5     2.892780643289   114.21679524   271.19891660
 H     14  11   7     2.068298131481   112.20666629   262.18302678
 H     14  11   7     2.074611202065   109.17127604    20.67759348
 C      8   7   5     2.883631060008   112.02427864   125.18098510
 N     17   8   7     2.583349625831   118.17097349   291.54715886
 O     17   8   7     2.354321202459   119.49524689   112.14921984
 C     18  17   8     2.752631806411   124.65755266     4.67738052
 H     20  18  17     2.074861638666   111.07064250    99.15904384
 H     20  18  17     2.072486869131   108.24517797   218.05362443
 H     20  18  17     2.057662731274   111.69046529   337.50483035
 C     18  17   8     2.751608673554   118.21669685   167.41678705
 H     24  18  17     2.074883152428   110.32350345   264.12094861
 H     24  18  17     2.059068002944   108.99655791    24.09992856
 H     24  18  17     2.069551242870   109.14956281   144.23639082
 C     14  11   7     2.955641623504   113.56339839   138.23190813
 O     28  14  11     2.404615431958   115.67006218   333.04060846
 O     28  14  11     2.388633268672   114.94599464   156.04277832

---------------------
BASIS SET INFORMATION
---------------------
There are 4 groups of distinct atoms

 Group   1 Type C   : 11s5p1d contracted to 4s3p1d pattern {6311/311/1}
 Group   2 Type H   : 4s contracted to 2s pattern {31}
 Group   3 Type O   : 11s5p1d contracted to 4s3p1d pattern {6311/311/1}
 Group   4 Type N   : 11s5p1d contracted to 4s3p1d pattern {6311/311/1}

Atom   0C    basis set group =>   1
Atom   1H    basis set group =>   2
Atom   2H    basis set group =>   2
Atom   3H    basis set group =>   2
Atom   4C    basis set group =>   1
Atom   5O    basis set group =>   3
Atom   6N    basis set group =>   4
Atom   7C    basis set group =>   1
Atom   8H    basis set group =>   2
Atom   9H    basis set group =>   2
Atom  10C    basis set group =>   1
Atom  11H    basis set group =>   2
Atom  12H    basis set group =>   2
Atom  13C    basis set group =>   1
Atom  14H    basis set group =>   2
Atom  15H    basis set group =>   2
Atom  16C    basis set group =>   1
Atom  17N    basis set group =>   4
Atom  18O    basis set group =>   3
Atom  19C    basis set group =>   1
Atom  20H    basis set group =>   2
Atom  21H    basis set group =>   2
Atom  22H    basis set group =>   2
Atom  23C    basis set group =>   1
Atom  24H    basis set group =>   2
Atom  25H    basis set group =>   2
Atom  26H    basis set group =>   2
Atom  27C    basis set group =>   1
Atom  28O    basis set group =>   3
Atom  29O    basis set group =>   3
---------------------------------
AUXILIARY/J BASIS SET INFORMATION
---------------------------------
There are 4 groups of distinct atoms

 Group   1 Type C   : 16s13p12d2f contracted to 16s13p12d2f pattern {1111111111111111/1111111111111/111111111111/11}
 Group   2 Type H   : 9s2p contracted to 9s2p pattern {111111111/11}
 Group   3 Type O   : 16s13p12d3f contracted to 16s13p12d3f pattern {1111111111111111/1111111111111/111111111111/111}
 Group   4 Type N   : 16s13p12d3f contracted to 16s13p12d3f pattern {1111111111111111/1111111111111/111111111111/111}

Atom   0C    basis set group =>   1
Atom   1H    basis set group =>   2
Atom   2H    basis set group =>   2
Atom   3H    basis set group =>   2
Atom   4C    basis set group =>   1
Atom   5O    basis set group =>   3
Atom   6N    basis set group =>   4
Atom   7C    basis set group =>   1
Atom   8H    basis set group =>   2
Atom   9H    basis set group =>   2
Atom  10C    basis set group =>   1
Atom  11H    basis set group =>   2
Atom  12H    basis set group =>   2
Atom  13C    basis set group =>   1
Atom  14H    basis set group =>   2
Atom  15H    basis set group =>   2
Atom  16C    basis set group =>   1
Atom  17N    basis set group =>   4
Atom  18O    basis set group =>   3
Atom  19C    basis set group =>   1
Atom  20H    basis set group =>   2
Atom  21H    basis set group =>   2
Atom  22H    basis set group =>   2
Atom  23C    basis set group =>   1
Atom  24H    basis set group =>   2
Atom  25H    basis set group =>   2
Atom  26H    basis set group =>   2
Atom  27C    basis set group =>   1
Atom  28O    basis set group =>   3
Atom  29O    basis set group =>   3
---------------------------------
AUXILIARY/C BASIS SET INFORMATION
---------------------------------
There are 4 groups of distinct atoms

 Group   1 Type C   : 16s13p12d2f contracted to 16s13p12d2f pattern {1111111111111111/1111111111111/111111111111/11}
 Group   2 Type H   : 9s2p contracted to 9s2p pattern {111111111/11}
 Group   3 Type O   : 16s13p12d3f contracted to 16s13p12d3f pattern {1111111111111111/1111111111111/111111111111/111}
 Group   4 Type N   : 16s13p12d3f contracted to 16s13p12d3f pattern {1111111111111111/1111111111111/111111111111/111}

Atom   0C    basis set group =>   1
Atom   1H    basis set group =>   2
Atom   2H    basis set group =>   2
Atom   3H    basis set group =>   2
Atom   4C    basis set group =>   1
Atom   5O    basis set group =>   3
Atom   6N    basis set group =>   4
Atom   7C    basis set group =>   1
Atom   8H    basis set group =>   2
Atom   9H    basis set group =>   2
Atom  10C    basis set group =>   1
Atom  11H    basis set group =>   2
Atom  12H    basis set group =>   2
Atom  13C    basis set group =>   1
Atom  14H    basis set group =>   2
Atom  15H    basis set group =>   2
Atom  16C    basis set group =>   1
Atom  17N    basis set group =>   4
Atom  18O    basis set group =>   3
Atom  19C    basis set group =>   1
Atom  20H    basis set group =>   2
Atom  21H    basis set group =>   2
Atom  22H    basis set group =>   2
Atom  23C    basis set group =>   1
Atom  24H    basis set group =>   2
Atom  25H    basis set group =>   2
Atom  26H    basis set group =>   2
Atom  27C    basis set group =>   1
Atom  28O    basis set group =>   3
Atom  29O    basis set group =>   3
----------------------------------
AUXILIARY/JK BASIS SET INFORMATION
----------------------------------
There are 4 groups of distinct atoms

 Group   1 Type C   : 16s13p12d2f contracted to 16s13p12d2f pattern {1111111111111111/1111111111111/111111111111/11}
 Group   2 Type H   : 9s2p contracted to 9s2p pattern {111111111/11}
 Group   3 Type O   : 16s13p12d3f contracted to 16s13p12d3f pattern {1111111111111111/1111111111111/111111111111/111}
 Group   4 Type N   : 16s13p12d3f contracted to 16s13p12d3f pattern {1111111111111111/1111111111111/111111111111/111}

Atom   0C    basis set group =>   1
Atom   1H    basis set group =>   2
Atom   2H    basis set group =>   2
Atom   3H    basis set group =>   2
Atom   4C    basis set group =>   1
Atom   5O    basis set group =>   3
Atom   6N    basis set group =>   4
Atom   7C    basis set group =>   1
Atom   8H    basis set group =>   2
Atom   9H    basis set group =>   2
Atom  10C    basis set group =>   1
Atom  11H    basis set group =>   2
Atom  12H    basis set group =>   2
Atom  13C    basis set group =>   1
Atom  14H    basis set group =>   2
Atom  15H    basis set group =>   2
Atom  16C    basis set group =>   1
Atom  17N    basis set group =>   4
Atom  18O    basis set group =>   3
Atom  19C    basis set group =>   1
Atom  20H    basis set group =>   2
Atom  21H    basis set group =>   2
Atom  22H    basis set group =>   2
Atom  23C    basis set group =>   1
Atom  24H    basis set group =>   2
Atom  25H    basis set group =>   2
Atom  26H    basis set group =>   2
Atom  27C    basis set group =>   1
Atom  28O    basis set group =>   3
Atom  29O    basis set group =>   3


           ************************************************************
           *        Program running with 4 parallel MPI-processes     *
           *              working on a common directory               *
           ************************************************************
------------------------------------------------------------------------------
                           ORCA GTO INTEGRAL CALCULATION
                           -- RI-GTO INTEGRALS CHOSEN --
------------------------------------------------------------------------------
------------------------------------------------------------------------------
                   ___                                                        
                  /   \      - P O W E R E D   B Y -                         
                 /     \                                                     
                 |  |  |   _    _      __       _____    __    __             
                 |  |  |  | |  | |    /  \     |  _  \  |  |  /  |          
                  \  \/   | |  | |   /    \    | | | |  |  | /  /          
                 / \  \   | |__| |  /  /\  \   | |_| |  |  |/  /          
                |  |  |   |  __  | /  /__\  \  |    /   |      \           
                |  |  |   | |  | | |   __   |  |    \   |  |\   \          
                \     /   | |  | | |  |  |  |  | |\  \  |  | \   \       
                 \___/    |_|  |_| |__|  |__|  |_| \__\ |__|  \__/        
                                                                              
                      - O R C A' S   B I G   F R I E N D -                    
                                      &                                       
                       - I N T E G R A L  F E E D E R -                       
                                                                              
 v1 FN, 2020, v2 2021                                                         
------------------------------------------------------------------------------


Reading SHARK input file Ne_water.SHARKINP.tmp ... ok
----------------------
SHARK INTEGRAL PACKAGE
----------------------

Number of atoms                             ...     30
Number of basis functions                   ...    300
Number of shells                            ...    150
Maximum angular momentum                    ...      2
Integral batch strategy                     ... SHARK/LIBINT Hybrid
RI-J (if used) integral strategy            ... SPLIT-RIJ (Revised 2003 algorithm where possible)
Printlevel                                  ...      1
Contraction scheme used                     ... SEGMENTED contraction
Coulomb Range Separation                    ... NOT USED
Exchange Range Separation                   ... NOT USED
Finite Nucleus Model                        ... NOT USED
Auxiliary Coulomb fitting basis             ... AVAILABLE
   # of basis functions in Aux-J            ...   2202
   # of shells in Aux-J                     ...    816
   Maximum angular momentum in Aux-J        ...      3
Auxiliary J/K fitting basis                 ... AVAILABLE
   # of basis functions in Aux-JK           ...   2202
   # of shells in Aux-JK                    ...    816
   Maximum angular momentum in Aux-JK       ...      3
Auxiliary Correlation fitting basis         ... AVAILABLE
   # of basis functions in Aux-C            ...   2202
   # of shells in Aux-C                     ...    816
   Maximum angular momentum in Aux-C        ...      3
Auxiliary 'external' fitting basis          ... NOT available
Integral threshold                          ...     2.500000e-11
Primitive cut-off                           ...     2.500000e-12
Primitive pair pre-selection threshold      ...     2.500000e-12

Calculating pre-screening integrals         ... done (  0.0 sec) Dimension = 150
Organizing shell pair data                  ... done (  0.1 sec)
Shell pair information
Total number of shell pairs                 ...     11325
Shell pairs after pre-screening             ...     10344
Total number of primitive shell pairs       ...     50130
Primitive shell pairs kept                  ...     29693
          la=0 lb=0:   3646 shell pairs
          la=1 lb=0:   3837 shell pairs
          la=1 lb=1:   1010 shell pairs
          la=2 lb=0:   1134 shell pairs
          la=2 lb=1:    626 shell pairs
          la=2 lb=2:     91 shell pairs

Calculating one electron integrals          ... done (  0.0 sec)
Calculating RI/J V-Matrix + Cholesky decomp.... done (  0.4 sec)
Calculating RI/JK V-Matrix + Cholesky decomp... done (  0.4 sec)
Calculating RI/C V-Matrix + Cholesky decomp.... done (  0.4 sec)
Calculating Nuclear repulsion               ... done (  0.0 sec) ENN=   1078.445512131213 Eh

SHARK setup successfully completed in   1.9 seconds

Maximum memory used throughout the entire GTOINT-calculation: 43.3 MB


           ************************************************************
           *        Program running with 4 parallel MPI-processes     *
           *              working on a common directory               *
           ************************************************************
-------------------------------------------------------------------------------
                                 ORCA SCF
-------------------------------------------------------------------------------

------------
SCF SETTINGS
------------
Hamiltonian:
 Density Functional     Method          .... DFT(GTOs)
 Exchange Functional    Exchange        .... B88
   X-Alpha parameter    XAlpha          ....  0.666667
   Becke's b parameter  XBeta           ....  0.004200
 Correlation Functional Correlation     .... LYP
 LDA part of GGA corr.  LDAOpt          .... VWN-5
 Gradients option       PostSCFGGA      .... off
 Hybrid DFT is turned on
   Fraction HF Exchange ScalHFX         ....  0.200000
   Scaling of DF-GGA-X  ScalDFX         ....  0.720000
   Scaling of DF-GGA-C  ScalDFC         ....  0.810000
   Scaling of DF-LDA-C  ScalLDAC        ....  1.000000
   Perturbative correction              ....  0.000000
   Density functional embedding theory  .... OFF
   NL short-range parameter             ....  4.800000
 RI-approximation to the Coulomb term is turned on
   Number of AuxJ basis functions       .... 2202
   RIJ-COSX (HFX calculated with COS-X)).... on


General Settings:
 Integral files         IntName         .... Ne_water
 Hartree-Fock type      HFTyp           .... RHF
 Total Charge           Charge          ....   -1
 Multiplicity           Mult            ....    1
 Number of Electrons    NEL             ....  116
 Basis Dimension        Dim             ....  300
 Nuclear Repulsion      ENuc            ....   1078.4455121312 Eh

Convergence Acceleration:
 DIIS                   CNVDIIS         .... on
   Start iteration      DIISMaxIt       ....    12
   Startup error        DIISStart       ....  0.200000
   # of expansion vecs  DIISMaxEq       ....     5
   Bias factor          DIISBfac        ....   1.050
   Max. coefficient     DIISMaxC        ....  10.000
 Trust-Rad. Augm. Hess. CNVTRAH         .... auto
   Auto Start mean grad. ratio tolernc. ....  1.125000
   Auto Start start iteration           ....    20
   Auto Start num. interpolation iter.  ....    10
   Max. Number of Micro iterations      ....    16
   Max. Number of Macro iterations      .... Maxiter - #DIIS iter
   Number of Davidson start vectors     ....     2
   Converg. threshold I  (grad. norm)   ....   1.000e-05
   Converg. threshold II (energy diff.) ....   1.000e-08
   Grad. Scal. Fac. for Micro threshold ....   0.100
   Minimum threshold for Micro iter.    ....   0.010
   NR start threshold (gradient norm)   ....   0.001
   Initial trust radius                 ....   0.400
   Minimum AH scaling param. (alpha)    ....   1.000
   Maximum AH scaling param. (alpha)    .... 1000.000
   Orbital update algorithm             .... Taylor
   White noise on init. David. guess    .... on
   Maximum white noise                  ....   0.010
   Quad. conv. algorithm                .... NR
 SOSCF                  CNVSOSCF        .... on
   Start iteration      SOSCFMaxIt      ....   150
   Startup grad/error   SOSCFStart      ....  0.003300
 Level Shifting         CNVShift        .... on
   Level shift para.    LevelShift      ....    0.2500
   Turn off err/grad.   ShiftErr        ....    0.0010
 Zerner damping         CNVZerner       .... off
 Static damping         CNVDamp         .... on
   Fraction old density DampFac         ....    0.7000
   Max. Damping (<1)    DampMax         ....    0.9800
   Min. Damping (>=0)   DampMin         ....    0.0000
   Turn off err/grad.   DampErr         ....    0.1000
 Fernandez-Rico         CNVRico         .... off

SCF Procedure:
 Maximum # iterations   MaxIter         ....   125
 SCF integral mode      SCFMode         .... Direct
   Integral package                     .... SHARK and LIBINT hybrid scheme
 Reset frequency        DirectResetFreq ....    20
 Integral Threshold     Thresh          ....  2.500e-11 Eh
 Primitive CutOff       TCut            ....  2.500e-12 Eh

Convergence Tolerance:
 Convergence Check Mode ConvCheckMode   .... Total+1el-Energy
 Convergence forced     ConvForced      .... 0
 Energy Change          TolE            ....  1.000e-08 Eh
 1-El. energy change                    ....  1.000e-05 Eh
 Orbital Gradient       TolG            ....  1.000e-05
 Orbital Rotation angle TolX            ....  1.000e-05
 DIIS Error             TolErr          ....  5.000e-07


Diagonalization of the overlap matrix:
Smallest eigenvalue                        ... 1.238e-05
Time for diagonalization                   ...    0.240 sec
Threshold for overlap eigenvalues          ... 1.000e-08
Number of eigenvalues below threshold      ... 0
Time for construction of square roots      ...    0.007 sec
Total time needed                          ...    0.248 sec

Time for model grid setup =    0.335 sec

------------------------------
INITIAL GUESS: MODEL POTENTIAL
------------------------------
Loading Hartree-Fock densities                     ... done
Calculating cut-offs                               ... done
Initializing the effective Hamiltonian             ... done
Setting up the integral package (SHARK)            ... done
Starting the Coulomb interaction                   ... done (   0.4 sec)
Reading the grid                                   ... done
Mapping shells                                     ... done
Starting the XC term evaluation                    ... done (   0.3 sec)
  promolecular density results
     # of electrons  =    114.996744764
     EX              =    -96.621579722
     EC              =     -3.941197601
     EX+EC           =   -100.562777322
Transforming the Hamiltonian                       ... done (   0.0 sec)
Diagonalizing the Hamiltonian                      ... done (   0.0 sec)
Back transforming the eigenvectors                 ... done (   0.0 sec)
Now organizing SCF variables                       ... done
                      ------------------
                      INITIAL GUESS DONE (   1.1 sec)
                      ------------------
-------------------
DFT GRID GENERATION
-------------------

General Integration Accuracy     IntAcc      ... 4.388
Radial Grid Type                 RadialGrid  ... OptM3 with GC (2021)
Angular Grid (max. ang.)         AngularGrid ... 4 (Lebedev-302)
Angular grid pruning method      GridPruning ... 4 (adaptive)
Weight generation scheme         WeightScheme... Becke
Basis function cutoff            BFCut       ... 1.0000e-11
Integration weight cutoff        WCut        ... 1.0000e-14
Angular grids for H and He will be reduced by one unit
Partially contracted basis set               ... off
Rotationally invariant grid construction     ... off

Total number of grid points                  ...   141041
Total number of batches                      ...     2221
Average number of points per batch           ...       63
Average number of grid points per atom       ...     4701
Time for grid setup =    1.268 sec

--------------------
COSX GRID GENERATION
--------------------

GRIDX 1
-------
General Integration Accuracy     IntAcc      ... 3.816
Radial Grid Type                 RadialGrid  ... OptM3 with GC (2021)
Angular Grid (max. ang.)         AngularGrid ... 1 (Lebedev-50)
Angular grid pruning method      GridPruning ... 4 (adaptive)
Weight generation scheme         WeightScheme... Becke
Basis function cutoff            BFCut       ... 1.0000e-11
Integration weight cutoff        WCut        ... 1.0000e-14
Angular grids for H and He will be reduced by one unit
Partially contracted basis set               ... on
Rotationally invariant grid construction     ... off

Total number of grid points                  ...    17918
Total number of batches                      ...      295
Average number of points per batch           ...       60
Average number of grid points per atom       ...      597
UseSFitting                                  ... on

GRIDX 2
-------
General Integration Accuracy     IntAcc      ... 4.020
Radial Grid Type                 RadialGrid  ... OptM3 with GC (2021)
Angular Grid (max. ang.)         AngularGrid ... 2 (Lebedev-110)
Angular grid pruning method      GridPruning ... 4 (adaptive)
Weight generation scheme         WeightScheme... Becke
Basis function cutoff            BFCut       ... 1.0000e-11
Integration weight cutoff        WCut        ... 1.0000e-14
Angular grids for H and He will be reduced by one unit
Partially contracted basis set               ... on
Rotationally invariant grid construction     ... off

Total number of grid points                  ...    41412
Total number of batches                      ...      660
Average number of points per batch           ...       62
Average number of grid points per atom       ...     1380
UseSFitting                                  ... on

GRIDX 3
-------
General Integration Accuracy     IntAcc      ... 4.338
Radial Grid Type                 RadialGrid  ... OptM3 with GC (2021)
Angular Grid (max. ang.)         AngularGrid ... 3 (Lebedev-194)
Angular grid pruning method      GridPruning ... 4 (adaptive)
Weight generation scheme         WeightScheme... Becke
Basis function cutoff            BFCut       ... 1.0000e-11
Integration weight cutoff        WCut        ... 1.0000e-14
Angular grids for H and He will be reduced by one unit
Partially contracted basis set               ... on
Rotationally invariant grid construction     ... off

Total number of grid points                  ...    89207
Total number of batches                      ...     1410
Average number of points per batch           ...       63
Average number of grid points per atom       ...     2974
UseSFitting                                  ... on

Time for X-Grid setup             =    3.484 sec


--------------------
CPCM SOLVATION MODEL
--------------------
CPCM parameters:
  Epsilon                                         ...      80.4000
  Refrac                                          ...       1.3300
  Rsolv                                           ...       1.3000
  Surface type                                    ... GAUSSIAN VDW
  Epsilon function type                           ...         CPCM
Radii:
 Radius for C  used is    3.8550 Bohr (=   2.0400 Ang.)
 Radius for H  used is    2.4944 Bohr (=   1.3200 Ang.)
 Radius for O  used is    3.4469 Bohr (=   1.8240 Ang.)
 Radius for N  used is    3.5149 Bohr (=   1.8600 Ang.)
Calculating surface                               ...        done! (  0.0s)
GEPOL surface points                              ...         1560
GEPOL Volume                                      ...    1747.5268
GEPOL Surface-area                                ...     912.5115
Calculating surface distance matrix               ...        done! (  0.0s)
Performing Cholesky decomposition & store         ...        done! (  0.1s)
Overall time for CPCM initialization              ...                 0.1s
--------------
SCF ITERATIONS
--------------
ITER       Energy         Delta-E        Max-DP      RMS-DP      [F,P]     Damp
               ***  Starting incremental Fock matrix formation  ***
  0   -761.6348723710   0.000000000000 0.31646572  0.00398860  0.2934250 0.7000
  1   -761.8983492222  -0.263476851117 0.45286709  0.00403395  0.1213777 0.7000
                               ***Turning on DIIS***
  2   -761.9910881885  -0.092738966349 0.95806164  0.00810983  0.0376407 0.0000
  3   -762.1466658569  -0.155577668403 0.40407661  0.00315295  0.0667446 0.0000
  4   -762.1784376527  -0.031771795844 0.23881516  0.00175269  0.0132432 0.0000
  5   -762.1808015128  -0.002363860074 0.12677036  0.00084601  0.0036364 0.0000
                      *** Initiating the SOSCF procedure ***
                           *** Shutting down DIIS ***
                      *** Re-Reading the Fockian *** 
                      *** Removing any level shift *** 
ITER      Energy       Delta-E        Grad      Rot      Max-DP    RMS-DP
  6   -762.18090108  -0.0000995693  0.000239  0.000239  0.056669  0.000378
               *** Restarting incremental Fock matrix formation ***
  7   -762.18092335  -0.0000222712  0.000136  0.000473  0.046833  0.000313
  8   -762.18092232   0.0000010353  0.000305  0.000479  0.009628  0.000072
  9   -762.18092648  -0.0000041654  0.000055  0.000135  0.007563  0.000048
 10   -762.18092631   0.0000001712  0.000074  0.000073  0.001286  0.000012
 11   -762.18092666  -0.0000003525  0.000012  0.000022  0.001827  0.000014
 12   -762.18092667  -0.0000000092  0.000016  0.000010  0.001246  0.000009
                  ***Gradient check signals convergence***
              ***Rediagonalizing the Fockian in SOSCF/NRSCF***

               *****************************************************
               *                     SUCCESS                       *
               *           SCF CONVERGED AFTER  13 CYCLES          *
               *****************************************************

Old exchange energy                            =    -19.660432834 Eh
New exchange energy                            =    -19.660406142 Eh
Exchange energy change after final integration =      0.000026692 Eh
Total energy after final integration           =   -762.180899996 Eh
Final COS-X integration done in                =    16.150 sec

----------------
TOTAL SCF ENERGY
----------------

Total Energy       :         -762.18090000 Eh          -20739.99669 eV

Components:
Nuclear Repulsion  :         1078.44551213 Eh           29345.99431 eV
Electronic Energy  :        -1840.62641213 Eh          -50085.99100 eV
One Electron Energy:        -3196.04508846 Eh          -86968.80827 eV
Two Electron Energy:         1355.41867634 Eh           36882.81727 eV
Max COSX asymmetry :            0.00001122 Eh               0.00031 eV
CPCM Dielectric    :           -0.11290435 Eh              -3.07228 eV

Virial components:
Potential Energy   :        -1519.56862109 Eh          -41349.56435 eV
Kinetic Energy     :          757.38772110 Eh           20609.56766 eV
Virial Ratio       :            2.00632857


DFT components:
N(Alpha)           :       58.000223706556 electrons
N(Beta)            :       58.000223706556 electrons
N(Total)           :      116.000447413112 electrons
E(X)               :      -78.167424545155 Eh       
E(C)               :       -4.670139397631 Eh       
E(XC)              :      -82.837563942786 Eh       
DFET-embed. en.    :        0.000000000000 Eh       
CPCM Solvation Model Properties:
Surface-charge          :            0.96166281
Charge-correction       :           -0.00482174 Eh              -0.13121 eV
Free-energy (cav+disp)  :  This term is not implemented in the current solvation scheme

---------------
SCF CONVERGENCE
---------------

  Last Energy change         ...   -1.4301e-08  Tolerance :   1.0000e-08
  Last MAX-Density change    ...    3.1086e-15  Tolerance :   1.0000e-07
  Last RMS-Density change    ...    4.6062e-17  Tolerance :   5.0000e-09
  Last Orbital Gradient      ...    1.3051e-06  Tolerance :   1.0000e-05
  Last Orbital Rotation      ...    2.3015e-06  Tolerance :   1.0000e-05

             **** THE GBW FILE WAS UPDATED (Ne_water.gbw) ****
             **** DENSITY Ne_water.scfp WAS UPDATED ****
             **** ENERGY FILE WAS UPDATED (Ne_water.en.tmp) ****
             **** THE GBW FILE WAS UPDATED (Ne_water.gbw) ****
             **** DENSITY Ne_water.scfp WAS UPDATED ****
----------------
ORBITAL ENERGIES
----------------

  NO   OCC          E(Eh)            E(eV) 
   0   2.0000     -19.125593      -520.4338 
   1   2.0000     -19.124698      -520.4095 
   2   2.0000     -19.092340      -519.5290 
   3   2.0000     -19.091620      -519.5094 
   4   2.0000     -14.369205      -391.0059 
   5   2.0000     -14.366431      -390.9305 
   6   2.0000     -10.291110      -280.0353 
   7   2.0000     -10.290925      -280.0303 
   8   2.0000     -10.269372      -279.4438 
   9   2.0000     -10.216873      -278.0153 
  10   2.0000     -10.205958      -277.7182 
  11   2.0000     -10.202821      -277.6329 
  12   2.0000     -10.199347      -277.5384 
  13   2.0000     -10.171087      -276.7693 
  14   2.0000     -10.165826      -276.6262 
  15   2.0000      -1.047534       -28.5049 
  16   2.0000      -1.038295       -28.2534 
  17   2.0000      -1.016042       -27.6479 
  18   2.0000      -0.942829       -25.6557 
  19   2.0000      -0.934446       -25.4276 
  20   2.0000      -0.932472       -25.3739 
  21   2.0000      -0.768630       -20.9155 
  22   2.0000      -0.750103       -20.4113 
  23   2.0000      -0.720406       -19.6032 
  24   2.0000      -0.709661       -19.3109 
  25   2.0000      -0.674250       -18.3473 
  26   2.0000      -0.646758       -17.5992 
  27   2.0000      -0.554875       -15.0989 
  28   2.0000      -0.541698       -14.7403 
  29   2.0000      -0.516630       -14.0582 
  30   2.0000      -0.495886       -13.4937 
  31   2.0000      -0.490584       -13.3495 
  32   2.0000      -0.479265       -13.0415 
  33   2.0000      -0.469841       -12.7850 
  34   2.0000      -0.461661       -12.5624 
  35   2.0000      -0.453114       -12.3299 
  36   2.0000      -0.438039       -11.9197 
  37   2.0000      -0.425060       -11.5665 
  38   2.0000      -0.416627       -11.3370 
  39   2.0000      -0.410376       -11.1669 
  40   2.0000      -0.407292       -11.0830 
  41   2.0000      -0.399255       -10.8643 
  42   2.0000      -0.397248       -10.8097 
  43   2.0000      -0.394808       -10.7433 
  44   2.0000      -0.389803       -10.6071 
  45   2.0000      -0.382787       -10.4162 
  46   2.0000      -0.376847       -10.2545 
  47   2.0000      -0.367201        -9.9921 
  48   2.0000      -0.357732        -9.7344 
  49   2.0000      -0.352598        -9.5947 
  50   2.0000      -0.335862        -9.1393 
  51   2.0000      -0.272472        -7.4143 
  52   2.0000      -0.266167        -7.2428 
  53   2.0000      -0.254260        -6.9188 
  54   2.0000      -0.250237        -6.8093 
  55   2.0000      -0.247323        -6.7300 
  56   2.0000      -0.235315        -6.4032 
  57   2.0000      -0.229136        -6.2351 
  58   0.0000      -0.001201        -0.0327 
  59   0.0000       0.010291         0.2800 
  60   0.0000       0.015718         0.4277 
  61   0.0000       0.021276         0.5789 
  62   0.0000       0.023970         0.6523 
  63   0.0000       0.028602         0.7783 
  64   0.0000       0.042081         1.1451 
  65   0.0000       0.045705         1.2437 
  66   0.0000       0.046656         1.2696 
  67   0.0000       0.049308         1.3417 
  68   0.0000       0.056145         1.5278 
  69   0.0000       0.062725         1.7068 
  70   0.0000       0.070111         1.9078 
  71   0.0000       0.072476         1.9722 
  72   0.0000       0.077130         2.0988 
  73   0.0000       0.083343         2.2679 
  74   0.0000       0.086809         2.3622 
  75   0.0000       0.087617         2.3842 
  76   0.0000       0.094123         2.5612 
  77   0.0000       0.102414         2.7868 
  78   0.0000       0.109258         2.9731 
  79   0.0000       0.111341         3.0298 
  80   0.0000       0.113984         3.1017 
  81   0.0000       0.120798         3.2871 
  82   0.0000       0.124341         3.3835 
  83   0.0000       0.126053         3.4301 
  84   0.0000       0.135198         3.6789 
  85   0.0000       0.150006         4.0819 
  86   0.0000       0.156598         4.2613 
  87   0.0000       0.158026         4.3001 
  88   0.0000       0.160729         4.3737 
  89   0.0000       0.165032         4.4907 
  90   0.0000       0.171026         4.6539 
  91   0.0000       0.174221         4.7408 
  92   0.0000       0.181812         4.9473 
  93   0.0000       0.184463         5.0195 
  94   0.0000       0.190664         5.1882 
  95   0.0000       0.194753         5.2995 
  96   0.0000       0.198705         5.4070 
  97   0.0000       0.202579         5.5125 
  98   0.0000       0.204207         5.5568 
  99   0.0000       0.209529         5.7016 
 100   0.0000       0.217895         5.9292 
 101   0.0000       0.225087         6.1249 
 102   0.0000       0.229281         6.2391 
 103   0.0000       0.230765         6.2794 
 104   0.0000       0.235012         6.3950 
 105   0.0000       0.241824         6.5804 
 106   0.0000       0.247915         6.7461 
 107   0.0000       0.253309         6.8929 
 108   0.0000       0.258417         7.0319 
 109   0.0000       0.263281         7.1642 
 110   0.0000       0.268022         7.2932 
 111   0.0000       0.275311         7.4916 
 112   0.0000       0.277343         7.5469 
 113   0.0000       0.279947         7.6177 
 114   0.0000       0.288052         7.8383 
 115   0.0000       0.290751         7.9117 
 116   0.0000       0.295725         8.0471 
 117   0.0000       0.304337         8.2814 
 118   0.0000       0.306497         8.3402 
 119   0.0000       0.311148         8.4668 
 120   0.0000       0.311765         8.4836 
 121   0.0000       0.313161         8.5215 
 122   0.0000       0.319249         8.6872 
 123   0.0000       0.324541         8.8312 
 124   0.0000       0.329283         8.9603 
 125   0.0000       0.336438         9.1549 
 126   0.0000       0.341915         9.3040 
 127   0.0000       0.343018         9.3340 
 128   0.0000       0.351391         9.5618 
 129   0.0000       0.353763         9.6264 
 130   0.0000       0.361778         9.8445 
 131   0.0000       0.367446         9.9987 
 132   0.0000       0.377754        10.2792 
 133   0.0000       0.380205        10.3459 
 134   0.0000       0.384034        10.4501 
 135   0.0000       0.391858        10.6630 
 136   0.0000       0.395264        10.7557 
 137   0.0000       0.406086        11.0502 
 138   0.0000       0.412993        11.2381 
 139   0.0000       0.421284        11.4637 
 140   0.0000       0.429380        11.6840 
 141   0.0000       0.437746        11.9117 
 142   0.0000       0.451207        12.2780 
 143   0.0000       0.467991        12.7347 
 144   0.0000       0.478974        13.0335 
 145   0.0000       0.490593        13.3497 
 146   0.0000       0.507548        13.8111 
 147   0.0000       0.516877        14.0649 
 148   0.0000       0.522627        14.2214 
 149   0.0000       0.553841        15.0708 
 150   0.0000       0.664553        18.0834 
 151   0.0000       0.669973        18.2309 
 152   0.0000       0.682129        18.5617 
 153   0.0000       0.692361        18.8401 
 154   0.0000       0.704303        19.1651 
 155   0.0000       0.717863        19.5341 
 156   0.0000       0.719145        19.5689 
 157   0.0000       0.722115        19.6498 
 158   0.0000       0.735259        20.0074 
 159   0.0000       0.755183        20.5496 
 160   0.0000       0.776040        21.1171 
 161   0.0000       0.793486        21.5919 
 162   0.0000       0.799019        21.7424 
 163   0.0000       0.804983        21.9047 
 164   0.0000       0.810047        22.0425 
 165   0.0000       0.821211        22.3463 
 166   0.0000       0.842530        22.9264 
 167   0.0000       0.858942        23.3730 
 168   0.0000       0.863287        23.4912 
 169   0.0000       0.887944        24.1622 
 170   0.0000       0.896171        24.3861 
 171   0.0000       0.905765        24.6471 
 172   0.0000       0.913538        24.8586 
 173   0.0000       0.925352        25.1801 
 174   0.0000       0.945649        25.7324 
 175   0.0000       0.955635        26.0042 
 176   0.0000       0.977444        26.5976 
 177   0.0000       0.983510        26.7627 
 178   0.0000       0.992873        27.0174 
 179   0.0000       1.003154        27.2972 
 180   0.0000       1.009949        27.4821 
 181   0.0000       1.023101        27.8400 
 182   0.0000       1.034272        28.1440 
 183   0.0000       1.038480        28.2585 
 184   0.0000       1.065636        28.9974 
 185   0.0000       1.068330        29.0707 
 186   0.0000       1.090073        29.6624 
 187   0.0000       1.105374        30.0788 
 188   0.0000       1.124051        30.5870 
 189   0.0000       1.136784        30.9335 
 190   0.0000       1.145540        31.1717 
 191   0.0000       1.155441        31.4412 
 192   0.0000       1.160096        31.5678 
 193   0.0000       1.177745        32.0481 
 194   0.0000       1.178681        32.0736 
 195   0.0000       1.200124        32.6570 
 196   0.0000       1.225081        33.3362 
 197   0.0000       1.248606        33.9763 
 198   0.0000       1.255453        34.1626 
 199   0.0000       1.278961        34.8023 
 200   0.0000       1.282017        34.8855 
 201   0.0000       1.304163        35.4881 
 202   0.0000       1.312444        35.7134 
 203   0.0000       1.330741        36.2113 
 204   0.0000       1.342112        36.5207 
 205   0.0000       1.346215        36.6324 
 206   0.0000       1.350144        36.7393 
 207   0.0000       1.362597        37.0781 
 208   0.0000       1.370500        37.2932 
 209   0.0000       1.377394        37.4808 
 210   0.0000       1.398714        38.0609 
 211   0.0000       1.405732        38.2519 
 212   0.0000       1.416704        38.5505 
 213   0.0000       1.425838        38.7990 
 214   0.0000       1.434604        39.0376 
 215   0.0000       1.447389        39.3855 
 216   0.0000       1.453548        39.5531 
 217   0.0000       1.467006        39.9193 
 218   0.0000       1.487496        40.4768 
 219   0.0000       1.493256        40.6336 
 220   0.0000       1.530242        41.6400 
 221   0.0000       1.558203        42.4009 
 222   0.0000       1.575427        42.8695 
 223   0.0000       1.591003        43.2934 
 224   0.0000       1.651449        44.9382 
 225   0.0000       1.670652        45.4607 
 226   0.0000       1.686951        45.9043 
 227   0.0000       1.702777        46.3349 
 228   0.0000       1.742913        47.4271 
 229   0.0000       1.755463        47.7686 
 230   0.0000       1.773647        48.2634 
 231   0.0000       1.786130        48.6031 
 232   0.0000       1.804484        49.1025 
 233   0.0000       1.811135        49.2835 
 234   0.0000       1.820421        49.5362 
 235   0.0000       1.838635        50.0318 
 236   0.0000       1.852400        50.4064 
 237   0.0000       1.856452        50.5166 
 238   0.0000       1.861386        50.6509 
 239   0.0000       1.869029        50.8589 
 240   0.0000       1.871041        50.9136 
 241   0.0000       1.895289        51.5734 
 242   0.0000       1.910464        51.9864 
 243   0.0000       1.917234        52.1706 
 244   0.0000       1.946659        52.9713 
 245   0.0000       1.952992        53.1436 
 246   0.0000       1.960909        53.3590 
 247   0.0000       1.973513        53.7020 
 248   0.0000       1.988396        54.1070 
 249   0.0000       2.028707        55.2039 
 250   0.0000       2.030459        55.2516 
 251   0.0000       2.035341        55.3844 
 252   0.0000       2.046809        55.6965 
 253   0.0000       2.068412        56.2844 
 254   0.0000       2.072030        56.3828 
 255   0.0000       2.087537        56.8048 
 256   0.0000       2.107461        57.3469 
 257   0.0000       2.115966        57.5784 
 258   0.0000       2.127128        57.8821 
 259   0.0000       2.138530        58.1924 
 260   0.0000       2.183057        59.4040 
 261   0.0000       2.194140        59.7056 
 262   0.0000       2.217316        60.3362 
 263   0.0000       2.223419        60.5023 
 264   0.0000       2.269567        61.7581 
 265   0.0000       2.277471        61.9731 
 266   0.0000       2.298770        62.5527 
 267   0.0000       2.314777        62.9883 
 268   0.0000       2.317602        63.0652 
 269   0.0000       2.339325        63.6563 
 270   0.0000       2.370338        64.5002 
 271   0.0000       2.388379        64.9911 
 272   0.0000       2.410245        65.5861 
 273   0.0000       2.440756        66.4163 
 274   0.0000       2.458124        66.8890 
 275   0.0000       2.467256        67.1374 
 276   0.0000       2.477654        67.4204 
 277   0.0000       2.481585        67.5274 
 278   0.0000       2.549391        69.3725 
 279   0.0000       2.596376        70.6510 
 280   0.0000       2.617530        71.2266 
 281   0.0000       2.646057        72.0029 
 282   0.0000       2.655843        72.2692 
 283   0.0000       2.671640        72.6990 
 284   0.0000       2.683479        73.0212 
 285   0.0000       2.689891        73.1957 
 286   0.0000       2.742309        74.6220 
 287   0.0000       2.747802        74.7715 
 288   0.0000       2.763320        75.1938 
 289   0.0000       2.793805        76.0233 
 290   0.0000       2.913035        79.2677 
 291   0.0000       2.961401        80.5838 
 292   0.0000       2.977400        81.0192 
 293   0.0000       3.028682        82.4146 
 294   0.0000       3.092594        84.1538 
 295   0.0000       3.117354        84.8275 
 296   0.0000       3.143455        85.5378 
 297   0.0000       3.196252        86.9744 
 298   0.0000       3.218539        87.5809 
 299   0.0000       3.222823        87.6975 

                    ********************************
                    * MULLIKEN POPULATION ANALYSIS *
                    ********************************

-----------------------
MULLIKEN ATOMIC CHARGES
-----------------------
   0 C :   -0.958967
   1 H :    0.269140
   2 H :    0.256080
   3 H :    0.232095
   4 C :    0.659480
   5 O :   -0.581582
   6 N :   -0.015239
   7 C :   -0.731331
   8 H :    0.244868
   9 H :    0.268291
  10 C :   -0.606239
  11 H :    0.253006
  12 H :    0.241841
  13 C :   -0.419799
  14 H :    0.233348
  15 H :    0.242358
  16 C :    0.644342
  17 N :   -0.084033
  18 O :   -0.583284
  19 C :   -0.489021
  20 H :    0.230950
  21 H :    0.226732
  22 H :    0.235348
  23 C :   -0.557719
  24 H :    0.232974
  25 H :    0.240776
  26 H :    0.223479
  27 C :    0.515643
  28 O :   -0.704670
  29 O :   -0.718869
Sum of atomic charges:   -1.0000000

--------------------------------
MULLIKEN REDUCED ORBITAL CHARGES
--------------------------------
  0 C s       :     3.697321  s :     3.697321
      pz      :     1.134198  p :     3.230268
      px      :     0.990568
      py      :     1.105501
      dz2     :     0.005641  d :     0.031378
      dxz     :     0.003684
      dyz     :     0.009417
      dx2y2   :     0.003881
      dxy     :     0.008755
  1 H s       :     0.730860  s :     0.730860
  2 H s       :     0.743920  s :     0.743920
  3 H s       :     0.767905  s :     0.767905
  4 C s       :     2.960495  s :     2.960495
      pz      :     0.773152  p :     2.267990
      px      :     0.742685
      py      :     0.752153
      dz2     :     0.019271  d :     0.112035
      dxz     :     0.019010
      dyz     :     0.016616
      dx2y2   :     0.033692
      dxy     :     0.023446
  5 O s       :     3.927456  s :     3.927456
      pz      :     1.572564  p :     4.630141
      px      :     1.438433
      py      :     1.619144
      dz2     :     0.003687  d :     0.023985
      dxz     :     0.006397
      dyz     :     0.002094
      dx2y2   :     0.005394
      dxy     :     0.006412
  6 N s       :     3.171207  s :     3.171207
      pz      :     1.451466  p :     3.807130
      px      :     1.066132
      py      :     1.289532
      dz2     :     0.006090  d :     0.036902
      dxz     :     0.006576
      dyz     :     0.005472
      dx2y2   :     0.009663
      dxy     :     0.009102
  7 C s       :     3.760337  s :     3.760337
      pz      :     1.144501  p :     2.919230
      px      :     0.868844
      py      :     0.905885
      dz2     :     0.013971  d :     0.051764
      dxz     :     0.009143
      dyz     :     0.004998
      dx2y2   :     0.011302
      dxy     :     0.012350
  8 H s       :     0.755132  s :     0.755132
  9 H s       :     0.731709  s :     0.731709
 10 C s       :     3.760907  s :     3.760907
      pz      :     0.971884  p :     2.793056
      px      :     0.837947
      py      :     0.983225
      dz2     :     0.011422  d :     0.052276
      dxz     :     0.009241
      dyz     :     0.008573
      dx2y2   :     0.006557
      dxy     :     0.016483
 11 H s       :     0.746994  s :     0.746994
 12 H s       :     0.758159  s :     0.758159
 13 C s       :     3.010398  s :     3.010398
      pz      :     1.015574  p :     3.373150
      px      :     1.340254
      py      :     1.017322
      dz2     :     0.009040  d :     0.036252
      dxz     :     0.005563
      dyz     :     0.005430
      dx2y2   :     0.010353
      dxy     :     0.005865
 14 H s       :     0.766652  s :     0.766652
 15 H s       :     0.757642  s :     0.757642
 16 C s       :     3.065280  s :     3.065280
      pz      :     0.717413  p :     2.181900
      px      :     0.752208
      py      :     0.712279
      dz2     :     0.037244  d :     0.108478
      dxz     :     0.023362
      dyz     :     0.026696
      dx2y2   :     0.012610
      dxy     :     0.008566
 17 N s       :     3.278139  s :     3.278139
      pz      :     1.099031  p :     3.767918
      px      :     1.594466
      py      :     1.074421
      dz2     :     0.009813  d :     0.037976
      dxz     :     0.006648
      dyz     :     0.011236
      dx2y2   :     0.005323
      dxy     :     0.004956
 18 O s       :     3.921773  s :     3.921773
      pz      :     1.548134  p :     4.638482
      px      :     1.516447
      py      :     1.573901
      dz2     :     0.005100  d :     0.023029
      dxz     :     0.004799
      dyz     :     0.006459
      dx2y2   :     0.002685
      dxy     :     0.003987
 19 C s       :     3.399993  s :     3.399993
      pz      :     0.916293  p :     3.041021
      px      :     1.132581
      py      :     0.992147
      dz2     :     0.006788  d :     0.048007
      dxz     :     0.013677
      dyz     :     0.012044
      dx2y2   :     0.011229
      dxy     :     0.004269
 20 H s       :     0.769050  s :     0.769050
 21 H s       :     0.773268  s :     0.773268
 22 H s       :     0.764652  s :     0.764652
 23 C s       :     3.462131  s :     3.462131
      pz      :     1.129453  p :     3.047983
      px      :     1.131582
      py      :     0.786948
      dz2     :     0.006828  d :     0.047605
      dxz     :     0.007988
      dyz     :     0.010159
      dx2y2   :     0.014164
      dxy     :     0.008466
 24 H s       :     0.767026  s :     0.767026
 25 H s       :     0.759224  s :     0.759224
 26 H s       :     0.776521  s :     0.776521
 27 C s       :     2.973562  s :     2.973562
      pz      :     0.746855  p :     2.375383
      px      :     0.937437
      py      :     0.691091
      dz2     :     0.009390  d :     0.135412
      dxz     :     0.008347
      dyz     :     0.029158
      dx2y2   :     0.049108
      dxy     :     0.039409
 28 O s       :     3.919326  s :     3.919326
      pz      :     1.613537  p :     4.765047
      px      :     1.749313
      py      :     1.402197
      dz2     :     0.002102  d :     0.020297
      dxz     :     0.001634
      dyz     :     0.005617
      dx2y2   :     0.005517
      dxy     :     0.005427
 29 O s       :     3.933630  s :     3.933630
      pz      :     1.582259  p :     4.764884
      px      :     1.755062
      py      :     1.427564
      dz2     :     0.002606  d :     0.020355
      dxz     :     0.001655
      dyz     :     0.005691
      dx2y2   :     0.005227
      dxy     :     0.005176


                     *******************************
                     * LOEWDIN POPULATION ANALYSIS *
                     *******************************

----------------------
LOEWDIN ATOMIC CHARGES
----------------------
   0 C :   -0.476867
   1 H :    0.236756
   2 H :    0.224494
   3 H :    0.213647
   4 C :    0.097089
   5 O :   -0.468893
   6 N :   -0.320277
   7 C :   -0.215807
   8 H :    0.237682
   9 H :    0.259493
  10 C :   -0.247428
  11 H :    0.244396
  12 H :    0.230284
  13 C :   -0.360385
  14 H :    0.222308
  15 H :    0.241339
  16 C :    0.093873
  17 N :   -0.326664
  18 O :   -0.464321
  19 C :   -0.358821
  20 H :    0.217066
  21 H :    0.208840
  22 H :    0.241053
  23 C :   -0.359236
  24 H :    0.214614
  25 H :    0.229929
  26 H :    0.208611
  27 C :    0.131942
  28 O :   -0.584141
  29 O :   -0.570575

-------------------------------
LOEWDIN REDUCED ORBITAL CHARGES
-------------------------------
  0 C s       :     2.989618  s :     2.989618
      pz      :     1.172885  p :     3.426002
      px      :     1.090196
      py      :     1.162921
      dz2     :     0.010682  d :     0.061246
      dxz     :     0.007324
      dyz     :     0.016969
      dx2y2   :     0.008763
      dxy     :     0.017509
  1 H s       :     0.763244  s :     0.763244
  2 H s       :     0.775506  s :     0.775506
  3 H s       :     0.786353  s :     0.786353
  4 C s       :     2.798354  s :     2.798354
      pz      :     0.853706  p :     2.845919
      px      :     1.069064
      py      :     0.923149
      dz2     :     0.041516  d :     0.258639
      dxz     :     0.041350
      dyz     :     0.041973
      dx2y2   :     0.079945
      dxy     :     0.053854
  5 O s       :     3.560305  s :     3.560305
      pz      :     1.593774  p :     4.855223
      px      :     1.595923
      py      :     1.665525
      dz2     :     0.007219  d :     0.053365
      dxz     :     0.013249
      dyz     :     0.004637
      dx2y2   :     0.013352
      dxy     :     0.014909
  6 N s       :     3.107915  s :     3.107915
      pz      :     1.487882  p :     4.116211
      px      :     1.265155
      py      :     1.363174
      dz2     :     0.012711  d :     0.096150
      dxz     :     0.017356
      dyz     :     0.015628
      dx2y2   :     0.026112
      dxy     :     0.024342
[...]
     44      -0.000092  -0.000613   0.009122   0.008789  -0.000210  -0.000206
     45      -0.001840   0.000043   0.003457   0.004352  -0.000014  -0.000043
     46       0.010304   0.000449  -0.013962  -0.018794   0.000495   0.000057
     47       0.019351   0.000960  -0.038673  -0.046592   0.001220   0.000126
     48       0.000003  -0.000175   0.000043   0.000068  -0.000254  -0.000104
     49       0.000041   0.001100  -0.000036  -0.000028   0.000142  -0.001029
     50       0.000011   0.001359   0.000134   0.000080   0.000101  -0.000794
     51       0.000000   0.000034  -0.000071  -0.000062  -0.000121   0.000018
     52      -0.000006   0.000155   0.000028   0.000012  -0.000323   0.000076
     53       0.000007   0.000128  -0.000034  -0.000033  -0.000535  -0.000163
     54      -0.000004   0.000233  -0.000030  -0.000035   0.000034  -0.000059
     55      -0.000014  -0.000476   0.000014   0.000013   0.000120   0.000808
     56      -0.000010  -0.000670  -0.000036  -0.000015  -0.000069  -0.000236
     57       0.000144  -0.002660   0.000024  -0.000055   0.023314  -0.007143
     58      -0.000164  -0.007338  -0.000223  -0.000001   0.074086  -0.020500
     59       0.000075   0.003951   0.000219   0.000090  -0.040037   0.011330
     60      -0.001207   0.017452   0.000490   0.001043  -0.144254   0.043697
     61       0.000129  -0.002336  -0.000091  -0.000114   0.023691  -0.006632
     62       0.000529  -0.005958  -0.000066  -0.000378   0.048420  -0.014980
     63      -0.000899  -0.014882  -0.001416  -0.000362   0.159422  -0.040654
     64       0.000454   0.006216   0.000754   0.000245  -0.082256   0.022172
     65      -0.001000  -0.014507  -0.001543  -0.000427   0.169139  -0.042591
     66       0.000395   0.026954   0.000741   0.000108  -0.287640   0.082371
     67       0.001355   0.079169   0.002062   0.000053  -0.816375   0.232468
     68      -0.000474  -0.027413  -0.000700   0.000017   0.276031  -0.078090
     69      -0.000042  -0.000043  -0.000147  -0.000136   0.000842   0.004235
     70       0.000010   0.000280  -0.000106  -0.000102  -0.011074  -0.037806
     71      -0.000020  -0.000282  -0.000020  -0.000047  -0.022440  -0.078490
     72       0.000142  -0.002147   0.001699   0.001421  -0.033624  -0.124655
     73       0.000014  -0.000818   0.000411   0.000326  -0.008357  -0.029748
     74      -0.000072   0.001131  -0.000778  -0.000656   0.011157   0.044219
     75      -0.000011   0.000036  -0.000139  -0.000158  -0.032459  -0.116601
     76      -0.000020  -0.000644   0.000577   0.000699   0.146393   0.522184
     77      -0.000017  -0.000396   0.000834   0.000978   0.208709   0.740650
     78       0.000341   0.002605   0.000174   0.000328   0.058609   0.190469
     79      -0.000090  -0.000875  -0.000003  -0.000056  -0.015570  -0.047051
     80       0.000321   0.002411   0.000126   0.000269   0.049846   0.162255
     81       0.000015   0.000002  -0.000324  -0.000224  -0.000010  -0.000001
     82      -0.000000  -0.000029   0.000410   0.000436  -0.000001   0.000000
     83      -0.000028   0.000022  -0.000530  -0.000470  -0.000003   0.000001
     84      -0.000012   0.000006  -0.000082  -0.000108   0.000003   0.000000
     85      -0.000017   0.000024  -0.000375  -0.000362   0.000000   0.000002
     86      -0.000000  -0.000009   0.000197   0.000174   0.000001  -0.000000
     87      -0.000010   0.000001   0.000094   0.000061   0.000003  -0.000000
     88      -0.000007   0.000018  -0.000051  -0.000087   0.000006   0.000001
     89       0.000008  -0.000003   0.000094   0.000092   0.000001  -0.000003


-----------
IR SPECTRUM
-----------

 Mode   freq       eps      Int      T**2         TX        TY        TZ
       cm**-1   L/(mol*cm) km/mol    a.u.
----------------------------------------------------------------------------
  7:     37.04   0.002906   14.69  0.024484  ( 0.034407 -0.133200 -0.074549)
  8:     43.96   0.001856    9.38  0.013176  ( 0.090783 -0.057443 -0.040437)
  9:     49.42   0.001861    9.41  0.011753  (-0.080454 -0.033772 -0.064336)
 10:     72.42   0.000209    1.06  0.000902  ( 0.014758  0.005898  0.025490)
 11:     80.87   0.002533   12.80  0.009775  (-0.065599  0.038283  0.063297)
 12:     97.50   0.006116   30.91  0.019576  ( 0.015238 -0.095555  0.101059)
 13:    117.05   0.000369    1.87  0.000985  (-0.017270  0.018704  0.018343)
 14:    143.35   0.000969    4.90  0.002110  ( 0.007868 -0.042481  0.015599)
 15:    159.48   0.000107    0.54  0.000209  ( 0.014339  0.001740 -0.000714)
 16:    174.80   0.000240    1.21  0.000428  ( 0.019226  0.002714 -0.007117)
 17:    190.40   0.000560    2.83  0.000918  ( 0.029412  0.006237  0.003765)
 18:    225.52   0.000988    4.99  0.001367  (-0.025186 -0.026883  0.003088)
 19:    262.35   0.003722   18.81  0.004427  (-0.065831  0.005895 -0.007675)
 20:    274.54   0.000334    1.69  0.000380  (-0.000703 -0.003106  0.019237)
 21:    345.64   0.002723   13.76  0.002458  ( 0.008957  0.003537 -0.048637)
 22:    356.32   0.001423    7.19  0.001246  (-0.023564  0.025469 -0.006506)
 23:    388.30   0.001918    9.69  0.001541  (-0.005224 -0.023426  0.031067)
 24:    428.66   0.001148    5.80  0.000835  ( 0.006231  0.028174 -0.001687)
 25:    457.09   0.003054   15.43  0.002085  ( 0.030487  0.028428  0.018632)
 26:    471.89   0.002686   13.58  0.001777  (-0.001630 -0.033184  0.025937)
 27:    504.12   0.005969   30.16  0.003695  (-0.057199  0.007929  0.018977)
 28:    573.98   0.005293   26.75  0.002877  (-0.012836 -0.051408  0.008360)
 29:    596.60   0.000830    4.20  0.000434  (-0.000557 -0.010892 -0.017758)
 30:    600.12   0.004756   24.03  0.002473  ( 0.028104  0.037208  0.017283)
 31:    622.00   0.004678   23.64  0.002347  ( 0.020199 -0.002273  0.043977)
 32:    677.38   0.004173   21.09  0.001922  ( 0.039162  0.010091 -0.016939)
 33:    714.57   0.004890   24.71  0.002136  (-0.038756 -0.008036 -0.023852)
 34:    760.11   0.003205   16.19  0.001316  ( 0.016853 -0.017688  0.026810)
 35:    788.55   0.003936   19.89  0.001558  (-0.029558  0.025835  0.004054)
 36:    831.29   0.004585   23.17  0.001721  (-0.010217  0.013519  0.037869)
 37:    923.17   0.006025   30.45  0.002037  ( 0.029100  0.027590  0.020703)
 38:    954.88   0.003707   18.74  0.001212  (-0.021829 -0.021884 -0.016006)
 39:    998.41   0.008113   41.00  0.002536  (-0.006499 -0.025250  0.043081)
 40:   1011.04   0.007711   38.97  0.002380  ( 0.027412  0.039686  0.007320)
 41:   1044.26   0.006227   31.47  0.001861  (-0.004800  0.038501  0.018852)
 42:   1061.11   0.001465    7.40  0.000431  (-0.006365  0.011215 -0.016266)
 43:   1068.51   0.001330    6.72  0.000389  ( 0.009589  0.005552 -0.016303)
 44:   1084.05   0.003866   19.54  0.001113  ( 0.004909  0.030256  0.013169)
 45:   1107.03   0.004859   24.55  0.001370  (-0.013097 -0.003555 -0.034430)
 46:   1128.20   0.000747    3.78  0.000207  (-0.003655  0.013654  0.002631)
 47:   1168.19   0.011191   56.56  0.002990  (-0.026434  0.005384 -0.047558)
 48:   1178.25   0.000666    3.36  0.000176  (-0.003105  0.002522  0.012662)
 49:   1214.44   0.011928   60.28  0.003065  (-0.019916  0.002480  0.051598)
 50:   1249.01   0.017538   88.63  0.004382  ( 0.014688  0.057164  0.029973)
 51:   1279.45   0.009081   45.89  0.002215  ( 0.008444  0.031073 -0.034323)
 52:   1285.15   0.028707  145.07  0.006971  ( 0.026384 -0.069803 -0.037444)
 53:   1298.01   0.010276   51.93  0.002471  ( 0.003726  0.047918 -0.012670)
 54:   1331.65   0.011844   59.86  0.002776  (-0.028968 -0.044002 -0.000542)
 55:   1369.28   0.002316   11.70  0.000528  ( 0.011988  0.017013  0.009729)
 56:   1394.27   0.074371  375.84  0.016646  ( 0.115658  0.044290  0.036155)
 57:   1398.55   0.022512  113.77  0.005023  (-0.056318 -0.031394 -0.029428)
 58:   1411.51   0.002587   13.08  0.000572  (-0.011702  0.012648  0.016587)
 59:   1439.99   0.020605  104.13  0.004465  ( 0.008030 -0.027399  0.060417)
 60:   1453.72   0.010841   54.79  0.002327  ( 0.012064 -0.037745  0.027513)
 61:   1471.58   0.042010  212.30  0.008909  (-0.010432 -0.082237 -0.045131)
 62:   1476.48   0.004629   23.39  0.000978  (-0.025756 -0.017744  0.000279)
 63:   1480.05   0.006745   34.09  0.001422  (-0.011812  0.035719  0.002615)
 64:   1484.43   0.012470   63.02  0.002621  (-0.027269  0.043310 -0.001449)
 65:   1495.36   0.004102   20.73  0.000856  ( 0.020631 -0.018725 -0.008937)
 66:   1498.97   0.007805   39.44  0.001625  (-0.012884  0.008980  0.037125)
 67:   1501.30   0.001307    6.60  0.000272  (-0.008768 -0.010928 -0.008679)
 68:   1507.90   0.001586    8.01  0.000328  (-0.011081 -0.000026 -0.014331)
 69:   1523.49   0.010683   53.99  0.002188  (-0.045305 -0.011150  0.003378)
 70:   1526.35   0.007005   35.40  0.001432  ( 0.016968  0.001301 -0.033802)
 71:   1545.85   0.018753   94.77  0.003786  (-0.002378  0.052767 -0.031553)
 72:   1576.54   0.239216  1208.90  0.047351  (-0.024778  0.174006 -0.128293)
 73:   1648.66   0.212402  1073.39  0.040204  (-0.113570 -0.118101 -0.115578)
 74:   1656.59   0.120156  607.22  0.022635  (-0.031451  0.031633  0.143683)
 75:   3036.85   0.009208   46.54  0.000946  ( 0.008399  0.027485 -0.010966)
 76:   3044.55   0.014479   73.17  0.001484  ( 0.014082 -0.000463 -0.035855)
 77:   3048.91   0.004956   25.04  0.000507  ( 0.002394  0.001220 -0.022361)
 78:   3061.28   0.000871    4.40  0.000089  ( 0.007594 -0.004995 -0.002481)
 79:   3082.43   0.002114   10.69  0.000214  ( 0.012716 -0.005265 -0.004966)
 80:   3086.04   0.014533   73.45  0.001470  (-0.000466 -0.006111 -0.037843)
 81:   3105.27   0.008665   43.79  0.000871  (-0.026391  0.006693 -0.011380)
 82:   3110.86   0.006391   32.30  0.000641  (-0.021675  0.004761 -0.012191)
 83:   3115.05   0.005022   25.38  0.000503  ( 0.011218 -0.019164 -0.003157)
 84:   3128.53   0.001810    9.15  0.000181  ( 0.004991  0.003693 -0.011915)
 85:   3151.88   0.002500   12.64  0.000248  ( 0.004248 -0.014051  0.005664)
 86:   3161.71   0.005427   27.43  0.000536  (-0.004404  0.021798  0.006413)
 87:   3166.04   0.002054   10.38  0.000202  (-0.013293  0.001217 -0.004926)
 88:   3186.76   0.000570    2.88  0.000056  ( 0.006704 -0.000771 -0.003204)
 89:   3188.23   0.000945    4.78  0.000093  (-0.000645 -0.008438 -0.004573)

* The epsilon (eps) is given for a Dirac delta lineshape.
** The dipole moment derivative (T) already includes vibrational overlap.

The first frequency considered to be a vibration is 7
The total number of vibrations considered is 83


--------------------------
THERMOCHEMISTRY AT 298.15K
--------------------------

Temperature         ... 298.15 K
Pressure            ... 1.00 atm
Total Mass          ... 215.23 AMU

Throughout the following assumptions are being made:
  (1) The electronic state is orbitally nondegenerate
  (2) There are no thermally accessible electronically excited states
  (3) Hindered rotations indicated by low frequency modes are not
      treated as such but are treated as vibrations and this may
      cause some error
  (4) All equations used are the standard statistical mechanics
      equations for an ideal gas
  (5) All vibrations are strictly harmonic

freq.      37.04  E(vib)   ...       0.54 
freq.      43.96  E(vib)   ...       0.53 
freq.      49.42  E(vib)   ...       0.52 
freq.      72.42  E(vib)   ...       0.49 
freq.      80.87  E(vib)   ...       0.48 
freq.      97.50  E(vib)   ...       0.46 
freq.     117.05  E(vib)   ...       0.44 
freq.     143.35  E(vib)   ...       0.41 
freq.     159.48  E(vib)   ...       0.39 
freq.     174.80  E(vib)   ...       0.38 
freq.     190.40  E(vib)   ...       0.36 
freq.     225.52  E(vib)   ...       0.33 
freq.     262.35  E(vib)   ...       0.29 
freq.     274.54  E(vib)   ...       0.28 
freq.     345.64  E(vib)   ...       0.23 
freq.     356.32  E(vib)   ...       0.22 
freq.     388.30  E(vib)   ...       0.20 
freq.     428.66  E(vib)   ...       0.18 
freq.     457.09  E(vib)   ...       0.16 
freq.     471.89  E(vib)   ...       0.15 
freq.     504.12  E(vib)   ...       0.14 
freq.     573.98  E(vib)   ...       0.11 
freq.     596.60  E(vib)   ...       0.10 
freq.     600.12  E(vib)   ...       0.10 
freq.     622.00  E(vib)   ...       0.09 
freq.     677.38  E(vib)   ...       0.08 
freq.     714.57  E(vib)   ...       0.07 
freq.     760.11  E(vib)   ...       0.06 
freq.     788.55  E(vib)   ...       0.05 
freq.     831.29  E(vib)   ...       0.04 
freq.     923.17  E(vib)   ...       0.03 
freq.     954.88  E(vib)   ...       0.03 
freq.     998.41  E(vib)   ...       0.02 
freq.    1011.04  E(vib)   ...       0.02 
freq.    1044.26  E(vib)   ...       0.02 
freq.    1061.11  E(vib)   ...       0.02 
freq.    1068.51  E(vib)   ...       0.02 
freq.    1084.05  E(vib)   ...       0.02 
freq.    1107.03  E(vib)   ...       0.02 
freq.    1128.20  E(vib)   ...       0.01 
freq.    1168.19  E(vib)   ...       0.01 
freq.    1178.25  E(vib)   ...       0.01 
freq.    1214.44  E(vib)   ...       0.01 
freq.    1249.01  E(vib)   ...       0.01 
freq.    1279.45  E(vib)   ...       0.01 
freq.    1285.15  E(vib)   ...       0.01 
freq.    1298.01  E(vib)   ...       0.01 
freq.    1331.65  E(vib)   ...       0.01 
freq.    1369.28  E(vib)   ...       0.01 
freq.    1394.27  E(vib)   ...       0.00 
freq.    1398.55  E(vib)   ...       0.00 
freq.    1411.51  E(vib)   ...       0.00 
freq.    1439.99  E(vib)   ...       0.00 
freq.    1453.72  E(vib)   ...       0.00 
freq.    1471.58  E(vib)   ...       0.00 
freq.    1476.48  E(vib)   ...       0.00 
freq.    1480.05  E(vib)   ...       0.00 
freq.    1484.43  E(vib)   ...       0.00 
freq.    1495.36  E(vib)   ...       0.00 
freq.    1498.97  E(vib)   ...       0.00 
freq.    1501.30  E(vib)   ...       0.00 
freq.    1507.90  E(vib)   ...       0.00 
freq.    1523.49  E(vib)   ...       0.00 
freq.    1526.35  E(vib)   ...       0.00 
freq.    1545.85  E(vib)   ...       0.00 
freq.    1576.54  E(vib)   ...       0.00 
freq.    1648.66  E(vib)   ...       0.00 
freq.    1656.59  E(vib)   ...       0.00 
freq.    3036.85  E(vib)   ...       0.00 
freq.    3044.55  E(vib)   ...       0.00 
freq.    3048.91  E(vib)   ...       0.00 
freq.    3061.28  E(vib)   ...       0.00 
freq.    3082.43  E(vib)   ...       0.00 
freq.    3086.04  E(vib)   ...       0.00 
freq.    3105.27  E(vib)   ...       0.00 
freq.    3110.86  E(vib)   ...       0.00 
freq.    3115.05  E(vib)   ...       0.00 
freq.    3128.53  E(vib)   ...       0.00 
freq.    3151.88  E(vib)   ...       0.00 
freq.    3161.71  E(vib)   ...       0.00 
freq.    3166.04  E(vib)   ...       0.00 
freq.    3186.76  E(vib)   ...       0.00 
freq.    3188.23  E(vib)   ...       0.00 

------------
INNER ENERGY
------------

The inner energy is: U= E(el) + E(ZPE) + E(vib) + E(rot) + E(trans)
    E(el)   - is the total energy from the electronic structure calculation
              = E(kin-el) + E(nuc-el) + E(el-el) + E(nuc-nuc)
    E(ZPE)  - the the zero temperature vibrational energy from the frequency calculation
    E(vib)  - the the finite temperature correction to E(ZPE) due to population
              of excited vibrational states
    E(rot)  - is the rotational thermal energy
    E(trans)- is the translational thermal energy

Summary of contributions to the inner energy U:
Electronic energy                ...   -762.24286088 Eh
Zero point energy                ...      0.24596327 Eh     154.34 kcal/mol
Thermal vibrational correction   ...      0.01316212 Eh       8.26 kcal/mol
Thermal rotational correction    ...      0.00141627 Eh       0.89 kcal/mol
Thermal translational correction ...      0.00141627 Eh       0.89 kcal/mol
-----------------------------------------------------------------------
Total thermal energy                   -761.98090294 Eh


Summary of corrections to the electronic energy:
(perhaps to be used in another calculation)
Total thermal correction                  0.01599467 Eh      10.04 kcal/mol
Non-thermal (ZPE) correction              0.24596327 Eh     154.34 kcal/mol
-----------------------------------------------------------------------
Total correction                          0.26195794 Eh     164.38 kcal/mol


--------
ENTHALPY
--------

The enthalpy is H = U + kB*T
                kB is Boltzmann's constant
Total free energy                 ...   -761.98090294 Eh 
Thermal Enthalpy correction       ...      0.00094421 Eh       0.59 kcal/mol
-----------------------------------------------------------------------
Total Enthalpy                    ...   -761.97995873 Eh


Note: Only C1 symmetry has been detected, increase convergence thresholds 
      if your molecule has a higher symmetry. Symmetry factor of 1.0 is   
      used for the rotational entropy correction. 
 

Note: Rotational entropy computed according to Herzberg 
Infrared and Raman Spectra, Chapter V,1, Van Nostrand Reinhold, 1945 
Point Group:  C1, Symmetry Number:   1  
Rotational constants in cm-1:     0.020627     0.016121     0.011166 

Vibrational entropy computed according to the QRRHO of S. Grimme
Chem.Eur.J. 2012 18 9955


-------
ENTROPY
-------

The entropy contributions are T*S = T*(S(el)+S(vib)+S(rot)+S(trans))
     S(el)   - electronic entropy
     S(vib)  - vibrational entropy
     S(rot)  - rotational entropy
     S(trans)- translational entropy
The entropies will be listed as multiplied by the temperature to get
units of energy

Electronic entropy                ...      0.00000000 Eh      0.00 kcal/mol
Vibrational entropy               ...      0.02368847 Eh     14.86 kcal/mol
Rotational entropy                ...      0.01541368 Eh      9.67 kcal/mol
Translational entropy             ...      0.01995686 Eh     12.52 kcal/mol
-----------------------------------------------------------------------
Final entropy term                ...      0.05905901 Eh     37.06 kcal/mol

In case the symmetry of your molecule has not been determined correctly
or in case you have a reason to use a different symmetry number we print 
out the resulting rotational entropy values for sn=1,12 :
 --------------------------------------------------------
|  sn= 1 | S(rot)=       0.01541368 Eh      9.67 kcal/mol|
|  sn= 2 | S(rot)=       0.01475923 Eh      9.26 kcal/mol|
|  sn= 3 | S(rot)=       0.01437640 Eh      9.02 kcal/mol|
|  sn= 4 | S(rot)=       0.01410477 Eh      8.85 kcal/mol|
|  sn= 5 | S(rot)=       0.01389408 Eh      8.72 kcal/mol|
|  sn= 6 | S(rot)=       0.01372194 Eh      8.61 kcal/mol|
|  sn= 7 | S(rot)=       0.01357639 Eh      8.52 kcal/mol|
|  sn= 8 | S(rot)=       0.01345031 Eh      8.44 kcal/mol|
|  sn= 9 | S(rot)=       0.01333911 Eh      8.37 kcal/mol|
|  sn=10 | S(rot)=       0.01323963 Eh      8.31 kcal/mol|
|  sn=11 | S(rot)=       0.01314964 Eh      8.25 kcal/mol|
|  sn=12 | S(rot)=       0.01306748 Eh      8.20 kcal/mol|
 --------------------------------------------------------


-------------------
GIBBS FREE ENERGY
-------------------

The Gibbs free energy is G = H - T*S

Total enthalpy                    ...   -761.97995873 Eh 
Total entropy correction          ...     -0.05905901 Eh    -37.06 kcal/mol
-----------------------------------------------------------------------
Final Gibbs free energy         ...   -762.03901774 Eh

For completeness - the Gibbs free energy minus the electronic energy
G-E(el)                           ...      0.20384314 Eh    127.91 kcal/mol


Timings for individual modules:

Sum of individual times         ...     3216.925 sec (=  53.615 min)
GTO integral calculation        ...       30.734 sec (=   0.512 min)   1.0 %
SCF iterations                  ...     1819.690 sec (=  30.328 min)  56.6 %
SCF Gradient evaluation         ...      487.745 sec (=   8.129 min)  15.2 %
Geometry relaxation             ...        1.438 sec (=   0.024 min)   0.0 %
Analytical frequency calculation...      877.318 sec (=  14.622 min)  27.3 %
                             ****ORCA TERMINATED NORMALLY****
TOTAL RUN TIME: 0 days 0 hours 53 minutes 45 seconds 346 msec
