
                                 *****************
                                 * O   R   C   A *
                                 *****************

                                            #,                                       
                                            ###                                      
                                            ####                                     
                                            #####                                    
                                            ######                                   
                                           ########,                                 
                                     ,,################,,,,,                         
                               ,,#################################,,                 
                          ,,##########################################,,             
                       ,#########################################, ''#####,          
                    ,#############################################,,   '####,        
                  ,##################################################,,,,####,       
                ,###########''''           ''''###############################       
              ,#####''   ,,,,##########,,,,          '''####'''          '####       
            ,##' ,,,,###########################,,,                        '##       
           ' ,,###''''                  '''############,,,                           
         ,,##''                                '''############,,,,        ,,,,,,###''
      ,#''                                            '''#######################'''  
     '                                                          ''''####''''         
             ,#######,   #######,   ,#######,      ##                                
            ,#'     '#,  ##    ##  ,#'     '#,    #''#        ######   ,####,        
            ##       ##  ##   ,#'  ##            #'  '#       #        #'  '#        
            ##       ##  #######   ##           ,######,      #####,   #    #        
            '#,     ,#'  ##    ##  '#,     ,#' ,#      #,         ##   #,  ,#        
             '#######'   ##     ##  '#######'  #'      '#     #####' # '####'        



                  #######################################################
                  #                        -***-                        #
                  #          Department of theory and spectroscopy      #
                  #    Directorship and core code : Frank Neese         #
                  #        Max Planck Institute fuer Kohlenforschung    #
                  #                Kaiser Wilhelm Platz 1               #
                  #                 D-45470 Muelheim/Ruhr               #
                  #                      Germany                        #
                  #                                                     #
                  #                  All rights reserved                #
                  #                        -***-                        #
                  #######################################################


                         Program Version 5.0.4 -  RELEASE  -


 With contributions from (in alphabetic order):
   Daniel Aravena         : Magnetic Suceptibility
   Michael Atanasov       : Ab Initio Ligand Field Theory (pilot matlab implementation)
   Alexander A. Auer      : GIAO ZORA, VPT2 properties, NMR spectrum
   Ute Becker             : Parallelization
   Giovanni Bistoni       : ED, misc. LED, open-shell LED, HFLD
   Martin Brehm           : Molecular dynamics
   Dmytro Bykov           : SCF Hessian
   Vijay G. Chilkuri      : MRCI spin determinant printing, contributions to CSF-ICE
   Dipayan Datta          : RHF DLPNO-CCSD density
   Achintya Kumar Dutta   : EOM-CC, STEOM-CC
   Dmitry Ganyushin       : Spin-Orbit,Spin-Spin,Magnetic field MRCI
   Miquel Garcia          : C-PCM and meta-GGA Hessian, CC/C-PCM, Gaussian charge scheme
   Yang Guo               : DLPNO-NEVPT2, F12-NEVPT2, CIM, IAO-localization
   Andreas Hansen         : Spin unrestricted coupled pair/coupled cluster methods
   Benjamin Helmich-Paris : MC-RPA, TRAH-SCF, COSX integrals
   Lee Huntington         : MR-EOM, pCC
   Robert Izsak           : Overlap fitted RIJCOSX, COSX-SCS-MP3, EOM
   Marcus Kettner         : VPT2
   Christian Kollmar      : KDIIS, OOCD, Brueckner-CCSD(T), CCSD density, CASPT2, CASPT2-K
   Simone Kossmann        : Meta GGA functionals, TD-DFT gradient, OOMP2, MP2 Hessian
   Martin Krupicka        : Initial AUTO-CI
   Lucas Lang             : DCDCAS
   Marvin Lechner         : AUTO-CI (C++ implementation), FIC-MRCC
   Dagmar Lenk            : GEPOL surface, SMD
   Dimitrios Liakos       : Extrapolation schemes; Compound Job, initial MDCI parallelization
   Dimitrios Manganas     : Further ROCIS development; embedding schemes
   Dimitrios Pantazis     : SARC Basis sets
   Anastasios Papadopoulos: AUTO-CI, single reference methods and gradients
   Taras Petrenko         : DFT Hessian,TD-DFT gradient, ASA, ECA, R-Raman, ABS, FL, XAS/XES, NRVS
   Peter Pinski           : DLPNO-MP2, DLPNO-MP2 Gradient
   Christoph Reimann      : Effective Core Potentials
   Marius Retegan         : Local ZFS, SOC
   Christoph Riplinger    : Optimizer, TS searches, QM/MM, DLPNO-CCSD(T), (RO)-DLPNO pert. Triples
   Tobias Risthaus        : Range-separated hybrids, TD-DFT gradient, RPA, STAB
   Michael Roemelt        : Original ROCIS implementation
   Masaaki Saitow         : Open-shell DLPNO-CCSD energy and density
   Barbara Sandhoefer     : DKH picture change effects
   Avijit Sen             : IP-ROCIS
   Kantharuban Sivalingam : CASSCF convergence, NEVPT2, FIC-MRCI
   Bernardo de Souza      : ESD, SOC TD-DFT
   Georgi Stoychev        : AutoAux, RI-MP2 NMR, DLPNO-MP2 response
   Willem Van den Heuvel  : Paramagnetic NMR
   Boris Wezisla          : Elementary symmetry handling
   Frank Wennmohs         : Technical directorship


 We gratefully acknowledge several colleagues who have allowed us to
 interface, adapt or use parts of their codes:
   Stefan Grimme, W. Hujo, H. Kruse, P. Pracht,  : VdW corrections, initial TS optimization,
                  C. Bannwarth, S. Ehlert          DFT functionals, gCP, sTDA/sTD-DF
   Ed Valeev, F. Pavosevic, A. Kumar             : LibInt (2-el integral package), F12 methods
   Garnet Chan, S. Sharma, J. Yang, R. Olivares  : DMRG
   Ulf Ekstrom                                   : XCFun DFT Library
   Mihaly Kallay                                 : mrcc  (arbitrary order and MRCC methods)
   Jiri Pittner, Ondrej Demel                    : Mk-CCSD
   Frank Weinhold                                : gennbo (NPA and NBO analysis)
   Christopher J. Cramer and Donald G. Truhlar   : smd solvation model
   Lars Goerigk                                  : TD-DFT with DH, B97 family of functionals
   V. Asgeirsson, H. Jonsson                     : NEB implementation
   FAccTs GmbH                                   : IRC, NEB, NEB-TS, DLPNO-Multilevel, CI-OPT
                                                   MM, QMMM, 2- and 3-layer-ONIOM, Crystal-QMMM,
                                                   LR-CPCM, SF, NACMEs, symmetry and pop. for TD-DFT,
                                                   nearIR, NL-DFT gradient (VV10), updates on ESD,
                                                   ML-optimized integration grids
   S Lehtola, MJT Oliveira, MAL Marques          : LibXC Library
   Liviu Ungur et al                             : ANISO software


 Your calculation uses the libint2 library for the computation of 2-el integrals
 For citations please refer to: http://libint.valeyev.net

 Your ORCA version has been built with support for libXC version: 5.1.0
 For citations please refer to: https://tddft.org/programs/libxc/

 This ORCA versions uses:
   CBLAS   interface :  Fast vector & matrix operations
   LAPACKE interface :  Fast linear algebra routines
   SCALAPACK package :  Parallel linear algebra routines
   Shared memory     :  Shared parallel matrices
   BLAS/LAPACK       :  OpenBLAS 0.3.15  USE64BITINT DYNAMIC_ARCH NO_AFFINITY SkylakeX SINGLE_THREADED
        Core in use  :  SkylakeX
   Copyright (c) 2011-2014, The OpenBLAS Project




***************************************
The coordinates will be read from file: /users/fjb15167/WWenergy/structures/Nd.xyz
***************************************


Your calculation utilizes the atom-pairwise dispersion correction
based on tight binding partial charges (D4)
Cite in your paper:
E.Caldeweyher, C.Bannwarth, S.Grimme, J.Chem.Phys., (2017), 147, 034112.
E.Caldeweyher, S.Ehlert, A.Hansen, H.Neugebauer, S.Grimme, J.Chem.Phys., (2018), in progress.
   

================================================================================

----- Orbital basis set information -----
Your calculation utilizes the basis: 6-31+G(d)
   H-He, Li-Ne : W. J. Hehre, R. Ditchfield and J.A. Pople, J. Chem. Phys. 56, 2257 (1972).
                 Note: He and Ne are unpublished basis sets taken from the Gaussian program.
                 Note: Li and B from J. D. Dill and J. A. Pople, J. Chem. Phys. 62, 2921 (1975).
   Na - Ar     : M. M. Francl, W. J. Pietro, W. J. Hehre, J. S. Binkley, M. S. Gordon, 
                 D. J. DeFrees and J. A. Pople, J. Chem. Phys. 77, 3654 (1982).
   K - Zn      : V. A. Rassolov, J. A. Pople, M. A. Ratner, and T. L. Windus, J. Chem. Phys. 109, 1223 (1998).
   Additional Pol./Diff. from the 6-311G equivalent.

----- AuxJ basis set information -----
Your calculation utilizes the AutoAux generation procedure.
  G. L. Stoychev, A. A. Auer, F. Neese, J. Chem. Theory Comput. 13, 554 (2017)

----- AuxC basis set information -----
Your calculation utilizes the AutoAux generation procedure.
  G. L. Stoychev, A. A. Auer, F. Neese, J. Chem. Theory Comput. 13, 554 (2017)

----- AuxJK basis set information -----
Your calculation utilizes the AutoAux generation procedure.
  G. L. Stoychev, A. A. Auer, F. Neese, J. Chem. Theory Comput. 13, 554 (2017)

================================================================================
                                        WARNINGS
                       Please study these warnings very carefully!
================================================================================


WARNING: Geometry Optimization
  ===> : Switching off AutoStart
         For restart on a previous wavefunction, please use MOREAD

INFO   : the flag for use of the SHARK integral package has been found!

================================================================================
                                       INPUT FILE
================================================================================
NAME = Nd_octanol.inp
|  1> ! OPT FREQ B3LYP 6-31+G(d) D4 AUTOAUX
|  2> ! CPCM
|  3> 
|  4> %cpcm
|  5> epsilon 9.8629 
|  6> refrac  1.4295 
|  7> end
|  8> 
|  9> %PAL NPROCS 4 END
| 10> 
| 11> %maxcore 3375
| 12> 
| 13> *xyzfile -1 1 /users/fjb15167/WWenergy/structures/Nd.xyz
| 14> 
| 15>                          ****END OF INPUT****
================================================================================

                       *****************************
                       * Geometry Optimization Run *
                       *****************************

Geometry optimization settings:
Update method            Update   .... BFGS
Choice of coordinates    CoordSys .... Z-matrix Internals
Initial Hessian          InHess   .... Almoef's Model

Convergence Tolerances:
Energy Change            TolE     ....  5.0000e-06 Eh
Max. Gradient            TolMAXG  ....  3.0000e-04 Eh/bohr
RMS Gradient             TolRMSG  ....  1.0000e-04 Eh/bohr
Max. Displacement        TolMAXD  ....  4.0000e-03 bohr
RMS Displacement         TolRMSD  ....  2.0000e-03 bohr
Strict Convergence                ....  False
------------------------------------------------------------------------------
                        ORCA OPTIMIZATION COORDINATE SETUP
------------------------------------------------------------------------------

The optimization will be done in new redundant internal coordinates
Making redundant internal coordinates   ...  (new redundants) done
Evaluating the initial hessian          ...  (Almloef) done
Evaluating the coordinates              ...  done
Calculating the B-matrix                .... done
Calculating the G-matrix                .... done
Diagonalizing the G-matrix              .... done
Small eigenvalue found = 8.650e-03
Small eigenvalue found = 1.381e-02
Small eigenvalue found = 1.970e-02
Small eigenvalue found = 2.568e-02
The first mode is                       ....   46
The number of degrees of freedom        ....   75

    -----------------------------------------------------------------
                    Redundant Internal Coordinates


    -----------------------------------------------------------------
         Definition                    Initial Value    Approx d2E/dq
    -----------------------------------------------------------------
      1. B(H   1,C   0)                  1.0955         0.352920   
      2. B(H   2,C   0)                  1.0914         0.358260   
      3. B(H   3,C   0)                  1.0937         0.355276   
      4. B(C   4,C   0)                  1.5351         0.366621   
      5. B(O   5,C   4)                  1.2246         1.027418   
      6. B(N   6,C   4)                  1.3673         0.608191   
      7. B(C   7,N   6)                  1.4408         0.464264   
      8. B(H   8,C   7)                  1.0958         0.352560   
      9. B(H   9,C   7)                  1.0976         0.350237   
     10. B(C  10,N   6)                  1.4615         0.430290   
     11. B(H  11,C  10)                  1.0921         0.357343   
     12. B(C  12,C   7)                  1.5239         0.381979   
     13. B(N  13,C  12)                  1.3836         0.572924   
     14. B(O  14,C  12)                  1.2376         0.979388   
     15. B(C  15,N  13)                  1.4550         0.440709   
     16. B(H  16,C  15)                  1.0949         0.353692   
     17. B(H  17,C  15)                  1.1008         0.346068   
     18. B(H  18,C  15)                  1.0890         0.361411   
     19. B(C  19,N  13)                  1.4568         0.437812   
     20. B(H  20,C  19)                  1.0942         0.354570   
     21. B(H  21,C  19)                  1.0898         0.360428   
     22. B(H  22,C  19)                  1.1002         0.346841   
     23. B(C  23,C  10)                  1.5627         0.331289   
     24. B(O  24,C  23)                  1.2675         0.877556   
     25. B(H  25,C  10)                  1.0962         0.352035   
     26. B(O  26,C  23)                  1.2658         0.883239   
     27. A(H   1,C   0,C   4)          111.8798         0.322255   
     28. A(H   2,C   0,C   4)          106.6196         0.323049   
     29. A(H   3,C   0,C   4)          110.8846         0.322606   
     30. A(H   1,C   0,H   2)          109.0818         0.289689   
     31. A(H   2,C   0,H   3)          109.8838         0.289991   
     32. A(H   1,C   0,H   3)          108.4634         0.289309   
     33. A(C   0,C   4,O   5)          121.0118         0.429657   
     34. A(O   5,C   4,N   6)          124.1665         0.467864   
     35. A(C   0,C   4,N   6)          114.8201         0.391537   
     36. A(C   7,N   6,C  10)          115.1484         0.381676   
     37. A(C   4,N   6,C  10)          124.7929         0.400122   
     38. A(C   4,N   6,C   7)          116.5620         0.405520   
     39. A(N   6,C   7,C  12)          112.5570         0.376256   
     40. A(H   8,C   7,H   9)          108.0014         0.288616   
     41. A(N   6,C   7,H   9)          107.5462         0.332614   
     42. A(N   6,C   7,H   8)          107.7235         0.332978   
     43. A(H   9,C   7,C  12)          111.1511         0.324025   
     44. A(H   8,C   7,C  12)          109.6921         0.324377   
     45. A(N   6,C  10,H  25)          107.5498         0.328737   
     46. A(H  11,C  10,C  23)          109.3096         0.317609   
     47. A(N   6,C  10,C  23)          114.7473         0.362404   
     48. A(C  23,C  10,H  25)          109.0389         0.316836   
     49. A(N   6,C  10,H  11)          109.9156         0.329550   
     50. A(H  11,C  10,H  25)          105.8930         0.289458   
     51. A(N  13,C  12,O  14)          121.6302         0.458748   
     52. A(C   7,C  12,O  14)          122.9509         0.429130   
     53. A(C   7,C  12,N  13)          115.4053         0.390260   
     54. A(C  15,N  13,C  19)          115.4733         0.379384   
     55. A(C  12,N  13,C  19)          121.9158         0.397150   
     56. A(C  12,N  13,C  15)          117.4767         0.397611   
     57. A(H  17,C  15,H  18)          108.7336         0.289196   
     58. A(H  16,C  15,H  18)          109.9391         0.290186   
     59. A(N  13,C  15,H  18)          108.7454         0.331477   
     60. A(H  16,C  15,H  17)          108.8934         0.288221   
     61. A(N  13,C  15,H  17)          111.5079         0.329108   
     62. A(N  13,C  15,H  16)          109.0107         0.330295   
     63. A(H  21,C  19,H  22)          108.8262         0.289174   
     64. A(H  20,C  19,H  22)          108.5955         0.288433   
     65. A(N  13,C  19,H  22)          112.1206         0.328871   
     66. A(H  20,C  19,H  21)          108.1053         0.290175   
     67. A(N  13,C  19,H  21)          110.8164         0.330966   
     68. A(N  13,C  19,H  20)          108.2713         0.330070   
     69. A(O  24,C  23,O  26)          130.3931         0.486797   
     70. A(C  10,C  23,O  26)          113.0344         0.410731   
     71. A(C  10,C  23,O  24)          116.5705         0.410262   
     72. D(N   6,C   4,C   0,H   1)    -63.3691         0.010079   
     73. D(O   5,C   4,C   0,H   1)    116.1998         0.010079   
     74. D(N   6,C   4,C   0,H   2)    177.4531         0.010079   
     75. D(O   5,C   4,C   0,H   2)     -2.9780         0.010079   
     76. D(N   6,C   4,C   0,H   3)     57.8632         0.010079   
     77. D(O   5,C   4,C   0,H   3)   -122.5679         0.010079   
     78. D(C   7,N   6,C   4,C   0)   -166.4312         0.029865   
     79. D(C   7,N   6,C   4,O   5)     14.0153         0.029865   
     80. D(C  10,N   6,C   4,O   5)    171.8219         0.029865   
     81. D(C  10,N   6,C   4,C   0)     -8.6246         0.029865   
     82. D(H   9,C   7,N   6,C  10)    -39.0421         0.018406   
     83. D(H   9,C   7,N   6,C   4)    120.9173         0.018406   
     84. D(C  12,C   7,N   6,C  10)     83.7179         0.018406   
     85. D(C  12,C   7,N   6,C   4)   -116.3227         0.018406   
     86. D(H   8,C   7,N   6,C   4)      4.7291         0.018406   
     87. D(H   8,C   7,N   6,C  10)   -155.2303         0.018406   
     88. D(H  25,C  10,N   6,C   7)    -47.7500         0.015785   
     89. D(H  25,C  10,N   6,C   4)    154.1659         0.015785   
     90. D(C  23,C  10,N   6,C   7)     73.7508         0.015785   
     91. D(H  11,C  10,N   6,C   7)   -162.5883         0.015785   
     92. D(H  11,C  10,N   6,C   4)     39.3276         0.015785   
     93. D(C  23,C  10,N   6,C   4)    -84.3333         0.015785   
     94. D(O  14,C  12,C   7,H   9)    123.0351         0.010881   
     95. D(O  14,C  12,C   7,H   8)   -117.5970         0.010881   
     96. D(O  14,C  12,C   7,N   6)      2.3223         0.010881   
     97. D(N  13,C  12,C   7,H   9)    -58.2847         0.010881   
     98. D(N  13,C  12,C   7,H   8)     61.0831         0.010881   
     99. D(N  13,C  12,C   7,N   6)   -178.9976         0.010881   
    100. D(C  19,N  13,C  12,C   7)     16.2643         0.026286   
    101. D(C  15,N  13,C  12,O  14)    -11.5264         0.026286   
    102. D(C  15,N  13,C  12,C   7)    169.7744         0.026286   
    103. D(C  19,N  13,C  12,O  14)   -165.0364         0.026286   
    104. D(H  18,C  15,N  13,C  19)   -172.9828         0.016562   
    105. D(H  18,C  15,N  13,C  12)     31.8126         0.016562   
    106. D(H  17,C  15,N  13,C  19)     67.1311         0.016562   
    107. D(H  17,C  15,N  13,C  12)    -88.0734         0.016562   
    108. D(H  16,C  15,N  13,C  19)    -53.1268         0.016562   
    109. D(H  16,C  15,N  13,C  12)    151.6687         0.016562   
    110. D(H  22,C  19,N  13,C  15)    -75.2456         0.016344   
    111. D(H  22,C  19,N  13,C  12)     78.7565         0.016344   
    112. D(H  21,C  19,N  13,C  15)    162.9377         0.016344   
    113. D(H  21,C  19,N  13,C  12)    -43.0603         0.016344   
    114. D(H  20,C  19,N  13,C  15)     44.5365         0.016344   
    115. D(H  20,C  19,N  13,C  12)   -161.4615         0.016344   
    116. D(O  26,C  23,C  10,H  25)    -59.1035         0.008386   
    117. D(O  26,C  23,C  10,H  11)     56.2289         0.008386   
    118. D(O  26,C  23,C  10,N   6)   -179.7879         0.008386   
    119. D(O  24,C  23,C  10,H  25)    120.4444         0.008386   
    120. D(O  24,C  23,C  10,H  11)   -124.2232         0.008386   
    121. D(O  24,C  23,C  10,N   6)     -0.2400         0.008386   
    -----------------------------------------------------------------

Number of atoms                         .... 27
Number of degrees of freedom            .... 121

         *************************************************************
         *                GEOMETRY OPTIMIZATION CYCLE   1            *
         *************************************************************
---------------------------------
CARTESIAN COORDINATES (ANGSTROEM)
---------------------------------
  C      1.710000    2.899000    0.090000
  H      1.591000    3.195000    1.138000
  H      1.855000    3.793000   -0.519000
  H      2.586000    2.249000    0.011000
  C      0.457000    2.197000   -0.452000
  O     -0.199000    2.690000   -1.361000
  N      0.150000    1.015000    0.163000
  C     -0.821000    0.179000   -0.496000
  H     -1.072000    0.650000   -1.453000
  H     -0.339000   -0.784000   -0.708000
  C      1.008000    0.329000    1.127000
  H      1.483000    1.058000    1.787000
  C     -2.087000   -0.010000    0.331000
  N     -3.052000   -0.822000   -0.238000
  O     -2.264000    0.539000    1.426000
  C     -4.174000   -1.219000    0.599000
  H     -5.049000   -1.392000   -0.036000
  H     -3.953000   -2.140000    1.160000
  H     -4.382000   -0.419000    1.308000
  C     -2.749000   -1.718000   -1.346000
  H     -3.690000   -1.993000   -1.832000
  H     -2.119000   -1.222000   -2.084000
  H     -2.246000   -2.637000   -1.010000
  C      2.105000   -0.585000    0.492000
  O      2.134000   -0.640000   -0.774000
  H      0.362000   -0.281000    1.769000
  O      2.826000   -1.166000    1.355000

----------------------------
CARTESIAN COORDINATES (A.U.)
----------------------------
  NO LB      ZA    FRAG     MASS         X           Y           Z
   0 C     6.0000    0    12.011    3.231432    5.478316    0.170075
   1 H     1.0000    0     1.008    3.006554    6.037675    2.150508
   2 H     1.0000    0     1.008    3.505442    7.167731   -0.980768
   3 H     1.0000    0     1.008    4.886832    4.249994    0.020787
   4 C     6.0000    0    12.011    0.863605    4.151728   -0.854156
   5 O     8.0000    0    15.999   -0.376056    5.083363   -2.571917
   6 N     7.0000    0    14.007    0.283459    1.918072    0.308025
   7 C     6.0000    0    12.011   -1.551465    0.338261   -0.937304
   8 H     1.0000    0     1.008   -2.025786    1.228322   -2.745772
   9 H     1.0000    0     1.008   -0.640617   -1.481545   -1.337926
  10 C     6.0000    0    12.011    1.904844    0.621720    2.129721
  11 H     1.0000    0     1.008    2.802464    1.999330    3.376941
  12 C     6.0000    0    12.011   -3.943858   -0.018897    0.625499
  13 N     7.0000    0    14.007   -5.767444   -1.553355   -0.449755
  14 O     8.0000    0    15.999   -4.278340    1.018562    2.694749
  15 C     6.0000    0    12.011   -7.887717   -2.303576    1.131946
  16 H     1.0000    0     1.008   -9.541227   -2.630499   -0.068030
  17 H     1.0000    0     1.008   -7.470087   -4.044014    2.192082
  18 H     1.0000    0     1.008   -8.280780   -0.791795    2.471762
  19 C     6.0000    0    12.011   -5.194857   -3.246549   -2.543571
  20 H     1.0000    0     1.008   -6.973089   -3.766224   -3.461978
  21 H     1.0000    0     1.008   -4.004330   -2.309245   -3.938189
  22 H     1.0000    0     1.008   -4.244325   -4.983208   -1.908623
  23 C     6.0000    0    12.011    3.977874   -1.105490    0.929745
  24 O     8.0000    0    15.999    4.032676   -1.209425   -1.462648
  25 H     1.0000    0     1.008    0.684081   -0.531013    3.342926
  26 O     8.0000    0    15.999    5.340366   -2.203421    2.560579

--------------------------------
INTERNAL COORDINATES (ANGSTROEM)
--------------------------------
 C      0   0   0     0.000000000000     0.00000000     0.00000000
 H      1   0   0     1.095482085659     0.00000000     0.00000000
 H      1   2   0     1.091394520785   109.08175670     0.00000000
 H      1   2   3     1.093671340029   108.46339948   119.66432947
 C      1   2   3     1.535114653699   111.87984024   242.28609443
 O      5   1   2     1.224608508871   121.01182227   116.19977182
 N      5   1   2     1.367332439460   114.82014886   296.63086080
 C      7   5   1     1.440839338719   116.56198332   193.56879744
 H      8   7   5     1.095760466525   107.72347135     4.72909582
 H      8   7   5     1.097559565582   107.54619095   120.91727837
 C      7   5   1     1.461525230709   124.79292022   351.37537697
 H     11   7   5     1.092092486926   109.91562052    39.32760984
 C      8   7   5     1.523944224701   112.55696502   243.67729116
 N     13   8   7     1.383593148292   115.40533090   181.00242993
 O     13   8   7     1.237640901069   122.95092094     2.32227587
 C     14  13   8     1.455012714721   117.47670147   169.77435665
 H     16  14  13     1.094887665471   109.01070260   151.66869025
 H     16  14  13     1.100819240384   111.50787374   271.92655163
 H     16  14  13     1.089011019228   108.74542422    31.81263976
 C     14  13   8     1.456807811621   121.91584551    16.26431922
 H     20  14  13     1.094212959163   108.27133697   198.53845949
 H     20  14  13     1.089752265425   110.81639050   316.93974935
 H     20  14  13     1.100211797792   112.12059762    78.75645872
 C     11   7   5     1.562699587253   114.74730977   275.66671521
 O     24  11   7     1.267525936618   116.57052294   359.75999024
 H     11   7   5     1.096166045816   107.54976646   154.16590830
 O     24  11   7     1.265768936260   113.03440954   180.21211308

---------------------------
INTERNAL COORDINATES (A.U.)
---------------------------
 C      0   0   0     0.000000000000     0.00000000     0.00000000
 H      1   0   0     2.070161126513     0.00000000     0.00000000
 H      1   2   0     2.062436748346   109.08175670     0.00000000
 H      1   2   3     2.066739313173   108.46339948   119.66432947
 C      1   2   3     2.900946279660   111.87984024   242.28609443
 O      5   1   2     2.314174703036   121.01182227   116.19977182
 N      5   1   2     2.583883844606   114.82014886   296.63086080
 C      7   5   1     2.722791753159   116.56198332   193.56879744
 H      8   7   5     2.070687190111   107.72347135     4.72909582
 H      8   7   5     2.074086994615   107.54619095   120.91727837
 C      7   5   1     2.761882423857   124.79292022   351.37537697
 H     11   7   5     2.063755713203   109.91562052    39.32760984
 C      8   7   5     2.879837228056   112.55696502   243.67729116
 N     13   8   7     2.614612131041   115.40533090   181.00242993
 O     13   8   7     2.338802355161   122.95092094     2.32227587
 C     14  13   8     2.749575552196   117.47670147   169.77435665
 H     16  14  13     2.069037835148   109.01070260   151.66869025
 H     16  14  13     2.080246887277   111.50787374   271.92655163
 H     16  14  13     2.057932583163   108.74542422    31.81263976
 C     14  13   8     2.752967793721   121.91584551    16.26431922
 H     20  14  13     2.067762825005   108.27133697   198.53845949
 H     20  14  13     2.059333335474   110.81639050   316.93974935
 H     20  14  13     2.079098987135   112.12059762    78.75645872
 C     11   7   5     2.953074249500   114.74730977   275.66671521
 O     24  11   7     2.395276887851   116.57052294   359.75999024
 H     11   7   5     2.071453623896   107.54976646   154.16590830
 O     24  11   7     2.391956638356   113.03440954   180.21211308

---------------------
BASIS SET INFORMATION
---------------------
There are 4 groups of distinct atoms

 Group   1 Type C   : 11s5p1d contracted to 4s3p1d pattern {6311/311/1}
 Group   2 Type H   : 4s contracted to 2s pattern {31}
 Group   3 Type O   : 11s5p1d contracted to 4s3p1d pattern {6311/311/1}
 Group   4 Type N   : 11s5p1d contracted to 4s3p1d pattern {6311/311/1}

Atom   0C    basis set group =>   1
Atom   1H    basis set group =>   2
Atom   2H    basis set group =>   2
Atom   3H    basis set group =>   2
Atom   4C    basis set group =>   1
Atom   5O    basis set group =>   3
Atom   6N    basis set group =>   4
Atom   7C    basis set group =>   1
Atom   8H    basis set group =>   2
Atom   9H    basis set group =>   2
Atom  10C    basis set group =>   1
Atom  11H    basis set group =>   2
Atom  12C    basis set group =>   1
Atom  13N    basis set group =>   4
Atom  14O    basis set group =>   3
Atom  15C    basis set group =>   1
Atom  16H    basis set group =>   2
Atom  17H    basis set group =>   2
Atom  18H    basis set group =>   2
Atom  19C    basis set group =>   1
Atom  20H    basis set group =>   2
Atom  21H    basis set group =>   2
Atom  22H    basis set group =>   2
Atom  23C    basis set group =>   1
Atom  24O    basis set group =>   3
Atom  25H    basis set group =>   2
Atom  26O    basis set group =>   3
---------------------------------
AUXILIARY/J BASIS SET INFORMATION
---------------------------------
There are 4 groups of distinct atoms

 Group   1 Type C   : 16s13p12d2f contracted to 16s13p12d2f pattern {1111111111111111/1111111111111/111111111111/11}
 Group   2 Type H   : 9s2p contracted to 9s2p pattern {111111111/11}
 Group   3 Type O   : 16s13p12d3f contracted to 16s13p12d3f pattern {1111111111111111/1111111111111/111111111111/111}
 Group   4 Type N   : 16s13p12d3f contracted to 16s13p12d3f pattern {1111111111111111/1111111111111/111111111111/111}

Atom   0C    basis set group =>   1
Atom   1H    basis set group =>   2
Atom   2H    basis set group =>   2
Atom   3H    basis set group =>   2
Atom   4C    basis set group =>   1
Atom   5O    basis set group =>   3
Atom   6N    basis set group =>   4
Atom   7C    basis set group =>   1
Atom   8H    basis set group =>   2
Atom   9H    basis set group =>   2
Atom  10C    basis set group =>   1
Atom  11H    basis set group =>   2
Atom  12C    basis set group =>   1
Atom  13N    basis set group =>   4
Atom  14O    basis set group =>   3
Atom  15C    basis set group =>   1
Atom  16H    basis set group =>   2
Atom  17H    basis set group =>   2
Atom  18H    basis set group =>   2
Atom  19C    basis set group =>   1
Atom  20H    basis set group =>   2
Atom  21H    basis set group =>   2
Atom  22H    basis set group =>   2
Atom  23C    basis set group =>   1
Atom  24O    basis set group =>   3
Atom  25H    basis set group =>   2
Atom  26O    basis set group =>   3
---------------------------------
AUXILIARY/C BASIS SET INFORMATION
---------------------------------
There are 4 groups of distinct atoms

 Group   1 Type C   : 16s13p12d2f contracted to 16s13p12d2f pattern {1111111111111111/1111111111111/111111111111/11}
 Group   2 Type H   : 9s2p contracted to 9s2p pattern {111111111/11}
 Group   3 Type O   : 16s13p12d3f contracted to 16s13p12d3f pattern {1111111111111111/1111111111111/111111111111/111}
 Group   4 Type N   : 16s13p12d3f contracted to 16s13p12d3f pattern {1111111111111111/1111111111111/111111111111/111}

Atom   0C    basis set group =>   1
Atom   1H    basis set group =>   2
Atom   2H    basis set group =>   2
Atom   3H    basis set group =>   2
Atom   4C    basis set group =>   1
Atom   5O    basis set group =>   3
Atom   6N    basis set group =>   4
Atom   7C    basis set group =>   1
Atom   8H    basis set group =>   2
Atom   9H    basis set group =>   2
Atom  10C    basis set group =>   1
Atom  11H    basis set group =>   2
Atom  12C    basis set group =>   1
Atom  13N    basis set group =>   4
Atom  14O    basis set group =>   3
Atom  15C    basis set group =>   1
Atom  16H    basis set group =>   2
Atom  17H    basis set group =>   2
Atom  18H    basis set group =>   2
Atom  19C    basis set group =>   1
Atom  20H    basis set group =>   2
Atom  21H    basis set group =>   2
Atom  22H    basis set group =>   2
Atom  23C    basis set group =>   1
Atom  24O    basis set group =>   3
Atom  25H    basis set group =>   2
Atom  26O    basis set group =>   3
----------------------------------
AUXILIARY/JK BASIS SET INFORMATION
----------------------------------
There are 4 groups of distinct atoms

 Group   1 Type C   : 16s13p12d2f contracted to 16s13p12d2f pattern {1111111111111111/1111111111111/111111111111/11}
 Group   2 Type H   : 9s2p contracted to 9s2p pattern {111111111/11}
 Group   3 Type O   : 16s13p12d3f contracted to 16s13p12d3f pattern {1111111111111111/1111111111111/111111111111/111}
 Group   4 Type N   : 16s13p12d3f contracted to 16s13p12d3f pattern {1111111111111111/1111111111111/111111111111/111}

Atom   0C    basis set group =>   1
Atom   1H    basis set group =>   2
Atom   2H    basis set group =>   2
Atom   3H    basis set group =>   2
Atom   4C    basis set group =>   1
Atom   5O    basis set group =>   3
Atom   6N    basis set group =>   4
Atom   7C    basis set group =>   1
Atom   8H    basis set group =>   2
Atom   9H    basis set group =>   2
Atom  10C    basis set group =>   1
Atom  11H    basis set group =>   2
Atom  12C    basis set group =>   1
Atom  13N    basis set group =>   4
Atom  14O    basis set group =>   3
Atom  15C    basis set group =>   1
Atom  16H    basis set group =>   2
Atom  17H    basis set group =>   2
Atom  18H    basis set group =>   2
Atom  19C    basis set group =>   1
Atom  20H    basis set group =>   2
Atom  21H    basis set group =>   2
Atom  22H    basis set group =>   2
Atom  23C    basis set group =>   1
Atom  24O    basis set group =>   3
Atom  25H    basis set group =>   2
Atom  26O    basis set group =>   3


           ************************************************************
           *        Program running with 4 parallel MPI-processes     *
           *              working on a common directory               *
           ************************************************************
------------------------------------------------------------------------------
                           ORCA GTO INTEGRAL CALCULATION
                           -- RI-GTO INTEGRALS CHOSEN --
------------------------------------------------------------------------------
------------------------------------------------------------------------------
                   ___                                                        
                  /   \      - P O W E R E D   B Y -                         
                 /     \                                                     
                 |  |  |   _    _      __       _____    __    __             
                 |  |  |  | |  | |    /  \     |  _  \  |  |  /  |          
                  \  \/   | |  | |   /    \    | | | |  |  | /  /          
                 / \  \   | |__| |  /  /\  \   | |_| |  |  |/  /          
                |  |  |   |  __  | /  /__\  \  |    /   |      \           
                |  |  |   | |  | | |   __   |  |    \   |  |\   \          
                \     /   | |  | | |  |  |  |  | |\  \  |  | \   \       
                 \___/    |_|  |_| |__|  |__|  |_| \__\ |__|  \__/        
                                                                              
                      - O R C A' S   B I G   F R I E N D -                    
                                      &                                       
                       - I N T E G R A L  F E E D E R -                       
                                                                              
 v1 FN, 2020, v2 2021                                                         
------------------------------------------------------------------------------


Reading SHARK input file Nd_octanol.SHARKINP.tmp ... ok
----------------------
SHARK INTEGRAL PACKAGE
----------------------

Number of atoms                             ...     27
Number of basis functions                   ...    278
Number of shells                            ...    138
Maximum angular momentum                    ...      2
Integral batch strategy                     ... SHARK/LIBINT Hybrid
RI-J (if used) integral strategy            ... SPLIT-RIJ (Revised 2003 algorithm where possible)
Printlevel                                  ...      1
Contraction scheme used                     ... SEGMENTED contraction
Coulomb Range Separation                    ... NOT USED
Exchange Range Separation                   ... NOT USED
Finite Nucleus Model                        ... NOT USED
Auxiliary Coulomb fitting basis             ... AVAILABLE
   # of basis functions in Aux-J            ...   2043
   # of shells in Aux-J                     ...    751
   Maximum angular momentum in Aux-J        ...      3
Auxiliary J/K fitting basis                 ... AVAILABLE
   # of basis functions in Aux-JK           ...   2043
   # of shells in Aux-JK                    ...    751
   Maximum angular momentum in Aux-JK       ...      3
Auxiliary Correlation fitting basis         ... AVAILABLE
   # of basis functions in Aux-C            ...   2043
   # of shells in Aux-C                     ...    751
   Maximum angular momentum in Aux-C        ...      3
Auxiliary 'external' fitting basis          ... NOT available
Integral threshold                          ...     2.500000e-11
Primitive cut-off                           ...     2.500000e-12
Primitive pair pre-selection threshold      ...     2.500000e-12

Calculating pre-screening integrals         ... done (  0.0 sec) Dimension = 138
Organizing shell pair data                  ... done (  0.1 sec)
Shell pair information
Total number of shell pairs                 ...      9591
Shell pairs after pre-screening             ...      8611
Total number of primitive shell pairs       ...     42528
Primitive shell pairs kept                  ...     24858
          la=0 lb=0:   2939 shell pairs
          la=1 lb=0:   3225 shell pairs
          la=1 lb=1:    881 shell pairs
          la=2 lb=0:    938 shell pairs
          la=2 lb=1:    546 shell pairs
          la=2 lb=2:     82 shell pairs

Calculating one electron integrals          ... done (  0.0 sec)
Calculating RI/J V-Matrix + Cholesky decomp.... done (  0.3 sec)
Calculating RI/JK V-Matrix + Cholesky decomp... done (  0.3 sec)
Calculating RI/C V-Matrix + Cholesky decomp.... done (  0.3 sec)
Calculating Nuclear repulsion               ... done (  0.0 sec) ENN=    939.826910035808 Eh

SHARK setup successfully completed in   1.2 seconds

Maximum memory used throughout the entire GTOINT-calculation: 37.3 MB


           ************************************************************
           *        Program running with 4 parallel MPI-processes     *
           *              working on a common directory               *
           ************************************************************
-------------------------------------------------------------------------------
                                 ORCA SCF
-------------------------------------------------------------------------------

------------
SCF SETTINGS
------------
Hamiltonian:
 Density Functional     Method          .... DFT(GTOs)
 Exchange Functional    Exchange        .... B88
   X-Alpha parameter    XAlpha          ....  0.666667
   Becke's b parameter  XBeta           ....  0.004200
 Correlation Functional Correlation     .... LYP
 LDA part of GGA corr.  LDAOpt          .... VWN-5
 Gradients option       PostSCFGGA      .... off
 Hybrid DFT is turned on
   Fraction HF Exchange ScalHFX         ....  0.200000
   Scaling of DF-GGA-X  ScalDFX         ....  0.720000
   Scaling of DF-GGA-C  ScalDFC         ....  0.810000
   Scaling of DF-LDA-C  ScalLDAC        ....  1.000000
   Perturbative correction              ....  0.000000
   Density functional embedding theory  .... OFF
   NL short-range parameter             ....  4.800000
 RI-approximation to the Coulomb term is turned on
   Number of AuxJ basis functions       .... 2043
   RIJ-COSX (HFX calculated with COS-X)).... on


General Settings:
 Integral files         IntName         .... Nd_octanol
 Hartree-Fock type      HFTyp           .... RHF
 Total Charge           Charge          ....   -1
 Multiplicity           Mult            ....    1
 Number of Electrons    NEL             ....  108
 Basis Dimension        Dim             ....  278
 Nuclear Repulsion      ENuc            ....    939.8269100358 Eh

Convergence Acceleration:
 DIIS                   CNVDIIS         .... on
   Start iteration      DIISMaxIt       ....    12
   Startup error        DIISStart       ....  0.200000
   # of expansion vecs  DIISMaxEq       ....     5
   Bias factor          DIISBfac        ....   1.050
   Max. coefficient     DIISMaxC        ....  10.000
 Trust-Rad. Augm. Hess. CNVTRAH         .... auto
   Auto Start mean grad. ratio tolernc. ....  1.125000
   Auto Start start iteration           ....    20
   Auto Start num. interpolation iter.  ....    10
   Max. Number of Micro iterations      ....    16
   Max. Number of Macro iterations      .... Maxiter - #DIIS iter
   Number of Davidson start vectors     ....     2
   Converg. threshold I  (grad. norm)   ....   1.000e-05
   Converg. threshold II (energy diff.) ....   1.000e-08
   Grad. Scal. Fac. for Micro threshold ....   0.100
   Minimum threshold for Micro iter.    ....   0.010
   NR start threshold (gradient norm)   ....   0.001
   Initial trust radius                 ....   0.400
   Minimum AH scaling param. (alpha)    ....   1.000
   Maximum AH scaling param. (alpha)    .... 1000.000
   Orbital update algorithm             .... Taylor
   White noise on init. David. guess    .... on
   Maximum white noise                  ....   0.010
   Quad. conv. algorithm                .... NR
 SOSCF                  CNVSOSCF        .... on
   Start iteration      SOSCFMaxIt      ....   150
   Startup grad/error   SOSCFStart      ....  0.003300
 Level Shifting         CNVShift        .... on
   Level shift para.    LevelShift      ....    0.2500
   Turn off err/grad.   ShiftErr        ....    0.0010
 Zerner damping         CNVZerner       .... off
 Static damping         CNVDamp         .... on
   Fraction old density DampFac         ....    0.7000
   Max. Damping (<1)    DampMax         ....    0.9800
   Min. Damping (>=0)   DampMin         ....    0.0000
   Turn off err/grad.   DampErr         ....    0.1000
 Fernandez-Rico         CNVRico         .... off

SCF Procedure:
 Maximum # iterations   MaxIter         ....   125
 SCF integral mode      SCFMode         .... Direct
   Integral package                     .... SHARK and LIBINT hybrid scheme
 Reset frequency        DirectResetFreq ....    20
 Integral Threshold     Thresh          ....  2.500e-11 Eh
 Primitive CutOff       TCut            ....  2.500e-12 Eh

Convergence Tolerance:
 Convergence Check Mode ConvCheckMode   .... Total+1el-Energy
 Convergence forced     ConvForced      .... 0
 Energy Change          TolE            ....  1.000e-08 Eh
 1-El. energy change                    ....  1.000e-05 Eh
 Orbital Gradient       TolG            ....  1.000e-05
 Orbital Rotation angle TolX            ....  1.000e-05
 DIIS Error             TolErr          ....  5.000e-07


Diagonalization of the overlap matrix:
Smallest eigenvalue                        ... 1.041e-05
Time for diagonalization                   ...    0.013 sec
Threshold for overlap eigenvalues          ... 1.000e-08
Number of eigenvalues below threshold      ... 0
Time for construction of square roots      ...    0.007 sec
Total time needed                          ...    0.021 sec

Time for model grid setup =    0.254 sec

------------------------------
INITIAL GUESS: MODEL POTENTIAL
------------------------------
Loading Hartree-Fock densities                     ... done
Calculating cut-offs                               ... done
Initializing the effective Hamiltonian             ... done
Setting up the integral package (SHARK)            ... done
Starting the Coulomb interaction                   ... done (   0.2 sec)
Reading the grid                                   ... done
Mapping shells                                     ... done
Starting the XC term evaluation                    ... done (   0.2 sec)
  promolecular density results
     # of electrons  =    106.991721915
     EX              =    -90.886329998
     EC              =     -3.676791818
     EX+EC           =    -94.563121816
Transforming the Hamiltonian                       ... done (   0.0 sec)
Diagonalizing the Hamiltonian                      ... done (   0.0 sec)
Back transforming the eigenvectors                 ... done (   0.0 sec)
Now organizing SCF variables                       ... done
                      ------------------
                      INITIAL GUESS DONE (   0.8 sec)
                      ------------------
-------------------
DFT GRID GENERATION
-------------------

General Integration Accuracy     IntAcc      ... 4.388
Radial Grid Type                 RadialGrid  ... OptM3 with GC (2021)
Angular Grid (max. ang.)         AngularGrid ... 4 (Lebedev-302)
Angular grid pruning method      GridPruning ... 4 (adaptive)
Weight generation scheme         WeightScheme... Becke
Basis function cutoff            BFCut       ... 1.0000e-11
Integration weight cutoff        WCut        ... 1.0000e-14
Angular grids for H and He will be reduced by one unit
Partially contracted basis set               ... off
Rotationally invariant grid construction     ... off

Total number of grid points                  ...   129432
Total number of batches                      ...     2038
Average number of points per batch           ...       63
Average number of grid points per atom       ...     4794
Time for grid setup =    1.021 sec

--------------------
COSX GRID GENERATION
--------------------

GRIDX 1
-------
General Integration Accuracy     IntAcc      ... 3.816
Radial Grid Type                 RadialGrid  ... OptM3 with GC (2021)
Angular Grid (max. ang.)         AngularGrid ... 1 (Lebedev-50)
Angular grid pruning method      GridPruning ... 4 (adaptive)
Weight generation scheme         WeightScheme... Becke
Basis function cutoff            BFCut       ... 1.0000e-11
Integration weight cutoff        WCut        ... 1.0000e-14
Angular grids for H and He will be reduced by one unit
Partially contracted basis set               ... on
Rotationally invariant grid construction     ... off

Total number of grid points                  ...    16481
Total number of batches                      ...      271
Average number of points per batch           ...       60
Average number of grid points per atom       ...      610
UseSFitting                                  ... on

GRIDX 2
-------
General Integration Accuracy     IntAcc      ... 4.020
Radial Grid Type                 RadialGrid  ... OptM3 with GC (2021)
Angular Grid (max. ang.)         AngularGrid ... 2 (Lebedev-110)
Angular grid pruning method      GridPruning ... 4 (adaptive)
Weight generation scheme         WeightScheme... Becke
Basis function cutoff            BFCut       ... 1.0000e-11
Integration weight cutoff        WCut        ... 1.0000e-14
Angular grids for H and He will be reduced by one unit
Partially contracted basis set               ... on
Rotationally invariant grid construction     ... off

Total number of grid points                  ...    38636
Total number of batches                      ...      617
Average number of points per batch           ...       62
Average number of grid points per atom       ...     1431
UseSFitting                                  ... on

GRIDX 3
-------
General Integration Accuracy     IntAcc      ... 4.338
Radial Grid Type                 RadialGrid  ... OptM3 with GC (2021)
Angular Grid (max. ang.)         AngularGrid ... 3 (Lebedev-194)
Angular grid pruning method      GridPruning ... 4 (adaptive)
Weight generation scheme         WeightScheme... Becke
Basis function cutoff            BFCut       ... 1.0000e-11
Integration weight cutoff        WCut        ... 1.0000e-14
Angular grids for H and He will be reduced by one unit
Partially contracted basis set               ... on
Rotationally invariant grid construction     ... off

Total number of grid points                  ...    83257
Total number of batches                      ...     1311
Average number of points per batch           ...       63
Average number of grid points per atom       ...     3084
UseSFitting                                  ... on

Time for X-Grid setup             =    2.125 sec


--------------------
CPCM SOLVATION MODEL
--------------------
CPCM parameters:
  Epsilon                                         ...       9.8629
  Refrac                                          ...       1.4295
  Rsolv                                           ...       1.3000
  Surface type                                    ... GAUSSIAN VDW
  Epsilon function type                           ...         CPCM
Radii:
 Radius for C  used is    3.8550 Bohr (=   2.0400 Ang.)
 Radius for H  used is    2.4944 Bohr (=   1.3200 Ang.)
 Radius for O  used is    3.4469 Bohr (=   1.8240 Ang.)
 Radius for N  used is    3.5149 Bohr (=   1.8600 Ang.)
Calculating surface                               ...        done! (  0.0s)
GEPOL surface points                              ...         1454
GEPOL Volume                                      ...    1628.5607
GEPOL Surface-area                                ...     888.0477
Calculating surface distance matrix               ...        done! (  0.0s)
Performing Cholesky decomposition & store         ...        done! (  0.2s)
Overall time for CPCM initialization              ...                 0.2s
--------------
SCF ITERATIONS
--------------
ITER       Energy         Delta-E        Max-DP      RMS-DP      [F,P]     Damp
               ***  Starting incremental Fock matrix formation  ***
  0   -722.3715194969   0.000000000000 0.09318924  0.00279877  0.2899800 0.7000
  1   -722.6252017727  -0.253682275722 0.15511069  0.00208762  0.1178113 0.7000
                               ***Turning on DIIS***
  2   -722.7125026299  -0.087300857264 0.40209288  0.00446741  0.0363314 0.0000
  3   -722.8615546609  -0.149052030991 0.14981755  0.00149481  0.0654910 0.0000
  4   -722.8911027512  -0.029548090262 0.07229498  0.00071678  0.0138112 0.0000
  5   -722.8934998830  -0.002397131800 0.05907739  0.00049219  0.0034922 0.0000
                      *** Initiating the SOSCF procedure ***
                           *** Shutting down DIIS ***
                      *** Re-Reading the Fockian *** 
                      *** Removing any level shift *** 
ITER      Energy       Delta-E        Grad      Rot      Max-DP    RMS-DP
  6   -722.89358707  -0.0000871915  0.000256  0.000256  0.030461  0.000247
               *** Restarting incremental Fock matrix formation ***
  7   -722.89357636   0.0000107165  0.000135  0.000500  0.028117  0.000225
  8   -722.89357654  -0.0000001783  0.000190  0.000291  0.007889  0.000066
  9   -722.89357910  -0.0000025655  0.000040  0.000119  0.006034  0.000050
 10   -722.89357904   0.0000000578  0.000041  0.000053  0.001470  0.000010
 11   -722.89357931  -0.0000002618  0.000016  0.000038  0.002018  0.000018
 12   -722.89357931  -0.0000000055  0.000018  0.000022  0.005640  0.000030
 13   -722.89357932  -0.0000000101  0.000004  0.000012  0.007595  0.000042
 14   -722.89357931   0.0000000120  0.000008  0.000008  0.001242  0.000008
                  ***Gradient check signals convergence***
              ***Rediagonalizing the Fockian in SOSCF/NRSCF***

               *****************************************************
               *                     SUCCESS                       *
               *           SCF CONVERGED AFTER  15 CYCLES          *
               *****************************************************

Old exchange energy                            =    -18.479193379 Eh
New exchange energy                            =    -18.479193030 Eh
Exchange energy change after final integration =      0.000000348 Eh
Total energy after final integration           =   -722.893578977 Eh
Final COS-X integration done in                =    12.812 sec

----------------
TOTAL SCF ENERGY
----------------

Total Energy       :         -722.89357898 Eh          -19670.93433 eV

Components:
Nuclear Repulsion  :          939.82691004 Eh           25573.99038 eV
Electronic Energy  :        -1662.72048901 Eh          -45244.92471 eV
One Electron Energy:        -2867.38474522 Eh          -78025.50566 eV
Two Electron Energy:         1204.66425621 Eh           32780.58094 eV
Max COSX asymmetry :            0.00000560 Eh               0.00015 eV
CPCM Dielectric    :           -0.10557445 Eh              -2.87283 eV

Virial components:
Potential Energy   :        -1441.21574096 Eh          -39217.47409 eV
Kinetic Energy     :          718.32216198 Eh           19546.53975 eV
Virial Ratio       :            2.00636402


DFT components:
N(Alpha)           :       54.000116630552 electrons
N(Beta)            :       54.000116630552 electrons
N(Total)           :      108.000233261103 electrons
E(X)               :      -73.492093231985 Eh       
E(C)               :       -4.361595476273 Eh       
E(XC)              :      -77.853688708258 Eh       
DFET-embed. en.    :        0.000000000000 Eh       
CPCM Solvation Model Properties:
Surface-charge          :            0.96172064
Charge-correction       :           -0.00452001 Eh              -0.12300 eV
Free-energy (cav+disp)  :  This term is not implemented in the current solvation scheme

---------------
SCF CONVERGENCE
---------------

  Last Energy change         ...   -1.5569e-08  Tolerance :   1.0000e-08
  Last MAX-Density change    ...    2.6645e-15  Tolerance :   1.0000e-07
  Last RMS-Density change    ...    3.9589e-17  Tolerance :   5.0000e-09
  Last Orbital Gradient      ...    4.1730e-07  Tolerance :   1.0000e-05
  Last Orbital Rotation      ...    1.0058e-06  Tolerance :   1.0000e-05

             **** THE GBW FILE WAS UPDATED (Nd_octanol.gbw) ****
             **** DENSITY Nd_octanol.scfp WAS UPDATED ****
             **** ENERGY FILE WAS UPDATED (Nd_octanol.en.tmp) ****
             **** THE GBW FILE WAS UPDATED (Nd_octanol.gbw) ****
             **** DENSITY Nd_octanol.scfp WAS UPDATED ****
----------------
ORBITAL ENERGIES
----------------

  NO   OCC          E(Eh)            E(eV) 
   0   2.0000     -19.116595      -520.1890 
   1   2.0000     -19.111665      -520.0549 
   2   2.0000     -19.081135      -519.2241 
   3   2.0000     -19.080256      -519.2002 
   4   2.0000     -14.355470      -390.6322 
   5   2.0000     -14.347190      -390.4069 
   6   2.0000     -10.280814      -279.7552 
   7   2.0000     -10.275852      -279.6201 
   8   2.0000     -10.258092      -279.1369 
   9   2.0000     -10.202084      -277.6128 
  10   2.0000     -10.198778      -277.5228 
  11   2.0000     -10.192262      -277.3455 
  12   2.0000     -10.192023      -277.3391 
  13   2.0000     -10.162390      -276.5327 
  14   2.0000      -1.036528       -28.2054 
  15   2.0000      -1.029181       -28.0054 
  16   2.0000      -1.005216       -27.3533 
  17   2.0000      -0.929007       -25.2796 
  18   2.0000      -0.926255       -25.2047 
  19   2.0000      -0.918930       -25.0054 
  20   2.0000      -0.752440       -20.4749 
  21   2.0000      -0.716802       -19.5052 
  22   2.0000      -0.707154       -19.2426 
  23   2.0000      -0.691746       -18.8234 
  24   2.0000      -0.656589       -17.8667 
  25   2.0000      -0.553247       -15.0546 
  26   2.0000      -0.529162       -14.3992 
  27   2.0000      -0.506230       -13.7752 
  28   2.0000      -0.486044       -13.2259 
  29   2.0000      -0.483489       -13.1564 
  30   2.0000      -0.466472       -12.6933 
  31   2.0000      -0.463446       -12.6110 
  32   2.0000      -0.452897       -12.3240 
  33   2.0000      -0.433992       -11.8095 
  34   2.0000      -0.416286       -11.3277 
  35   2.0000      -0.407335       -11.0842 
  36   2.0000      -0.405514       -11.0346 
  37   2.0000      -0.401339       -10.9210 
  38   2.0000      -0.394703       -10.7404 
  39   2.0000      -0.390904       -10.6370 
  40   2.0000      -0.390705       -10.6316 
  41   2.0000      -0.376956       -10.2575 
  42   2.0000      -0.374607       -10.1936 
  43   2.0000      -0.368732       -10.0337 
  44   2.0000      -0.351992        -9.5782 
  45   2.0000      -0.345231        -9.3942 
  46   2.0000      -0.337981        -9.1969 
  47   2.0000      -0.264157        -7.1881 
  48   2.0000      -0.255674        -6.9572 
  49   2.0000      -0.250752        -6.8233 
  50   2.0000      -0.239717        -6.5230 
  51   2.0000      -0.236846        -6.4449 
  52   2.0000      -0.224843        -6.1183 
  53   2.0000      -0.211311        -5.7501 
  54   0.0000       0.010922         0.2972 
  55   0.0000       0.020418         0.5556 
  56   0.0000       0.028799         0.7836 
  57   0.0000       0.031759         0.8642 
  58   0.0000       0.038275         1.0415 
  59   0.0000       0.039260         1.0683 
  60   0.0000       0.047030         1.2798 
  61   0.0000       0.055442         1.5087 
  62   0.0000       0.058610         1.5949 
  63   0.0000       0.063387         1.7248 
  64   0.0000       0.066186         1.8010 
  65   0.0000       0.075727         2.0606 
  66   0.0000       0.076593         2.0842 
  67   0.0000       0.083055         2.2600 
  68   0.0000       0.086988         2.3671 
  69   0.0000       0.088733         2.4146 
  70   0.0000       0.096907         2.6370 
  71   0.0000       0.104974         2.8565 
  72   0.0000       0.111571         3.0360 
  73   0.0000       0.116715         3.1760 
  74   0.0000       0.120011         3.2657 
  75   0.0000       0.122976         3.3463 
  76   0.0000       0.127761         3.4766 
  77   0.0000       0.128599         3.4994 
  78   0.0000       0.133103         3.6219 
  79   0.0000       0.139606         3.7989 
  80   0.0000       0.154068         4.1924 
  81   0.0000       0.163857         4.4588 
  82   0.0000       0.164200         4.4681 
  83   0.0000       0.169595         4.6149 
  84   0.0000       0.172641         4.6978 
  85   0.0000       0.186217         5.0672 
  86   0.0000       0.191942         5.2230 
  87   0.0000       0.203147         5.5279 
  88   0.0000       0.207194         5.6380 
  89   0.0000       0.213474         5.8089 
  90   0.0000       0.217631         5.9220 
  91   0.0000       0.223267         6.0754 
  92   0.0000       0.231159         6.2902 
  93   0.0000       0.233531         6.3547 
  94   0.0000       0.239149         6.5076 
  95   0.0000       0.242032         6.5860 
  96   0.0000       0.243301         6.6206 
  97   0.0000       0.252311         6.8657 
  98   0.0000       0.255387         6.9494 
  99   0.0000       0.261854         7.1254 
 100   0.0000       0.266667         7.2564 
 101   0.0000       0.271930         7.3996 
 102   0.0000       0.275956         7.5091 
 103   0.0000       0.285109         7.7582 
 104   0.0000       0.287950         7.8355 
 105   0.0000       0.291649         7.9362 
 106   0.0000       0.296056         8.0561 
 107   0.0000       0.303970         8.2714 
 108   0.0000       0.309264         8.4155 
 109   0.0000       0.312232         8.4963 
 110   0.0000       0.315157         8.5759 
 111   0.0000       0.319665         8.6985 
 112   0.0000       0.324938         8.8420 
 113   0.0000       0.329014         8.9529 
 114   0.0000       0.334353         9.0982 
 115   0.0000       0.341204         9.2846 
 116   0.0000       0.344003         9.3608 
 117   0.0000       0.347238         9.4488 
 118   0.0000       0.356773         9.7083 
 119   0.0000       0.364431         9.9167 
 120   0.0000       0.366259         9.9664 
 121   0.0000       0.372210        10.1284 
 122   0.0000       0.376419        10.2429 
 123   0.0000       0.390635        10.6297 
 124   0.0000       0.395793        10.7701 
 125   0.0000       0.400205        10.8901 
 126   0.0000       0.411342        11.1932 
 127   0.0000       0.426657        11.6099 
 128   0.0000       0.429366        11.6836 
 129   0.0000       0.433999        11.8097 
 130   0.0000       0.438920        11.9436 
 131   0.0000       0.460343        12.5266 
 132   0.0000       0.464903        12.6506 
 133   0.0000       0.470407        12.8004 
 134   0.0000       0.481515        13.1027 
 135   0.0000       0.497368        13.5341 
 136   0.0000       0.524105        14.2616 
 137   0.0000       0.530512        14.4360 
 138   0.0000       0.587751        15.9935 
 139   0.0000       0.676694        18.4138 
 140   0.0000       0.682265        18.5654 
 141   0.0000       0.684916        18.6375 
 142   0.0000       0.695921        18.9370 
 143   0.0000       0.698994        19.0206 
 144   0.0000       0.714839        19.4518 
 145   0.0000       0.719914        19.5898 
 146   0.0000       0.748654        20.3719 
 147   0.0000       0.756985        20.5986 
 148   0.0000       0.768410        20.9095 
 149   0.0000       0.782693        21.2982 
 150   0.0000       0.794072        21.6078 
 151   0.0000       0.806817        21.9546 
 152   0.0000       0.811807        22.0904 
 153   0.0000       0.820379        22.3237 
 154   0.0000       0.842955        22.9380 
 155   0.0000       0.853385        23.2218 
 156   0.0000       0.858170        23.3520 
 157   0.0000       0.904220        24.6051 
 158   0.0000       0.907151        24.6848 
 159   0.0000       0.926029        25.1985 
 160   0.0000       0.929295        25.2874 
 161   0.0000       0.947357        25.7789 
 162   0.0000       0.959421        26.1072 
 163   0.0000       0.973290        26.4846 
 164   0.0000       0.983295        26.7568 
 165   0.0000       1.009702        27.4754 
 166   0.0000       1.011243        27.5173 
 167   0.0000       1.028234        27.9797 
 168   0.0000       1.034573        28.1522 
 169   0.0000       1.042847        28.3773 
 170   0.0000       1.050673        28.5903 
 171   0.0000       1.062750        28.9189 
 172   0.0000       1.098319        29.8868 
 173   0.0000       1.106962        30.1220 
 174   0.0000       1.123701        30.5775 
 175   0.0000       1.130637        30.7662 
 176   0.0000       1.137555        30.9544 
 177   0.0000       1.162932        31.6450 
 178   0.0000       1.164493        31.6875 
 179   0.0000       1.174626        31.9632 
 180   0.0000       1.203364        32.7452 
 181   0.0000       1.210643        32.9433 
 182   0.0000       1.233361        33.5615 
 183   0.0000       1.249441        33.9990 
 184   0.0000       1.288856        35.0716 
 185   0.0000       1.293935        35.2098 
 186   0.0000       1.305269        35.5182 
 187   0.0000       1.309017        35.6202 
 188   0.0000       1.336039        36.3555 
 189   0.0000       1.349343        36.7175 
 190   0.0000       1.356670        36.9169 
 191   0.0000       1.365407        37.1546 
 192   0.0000       1.379167        37.5290 
 193   0.0000       1.387145        37.7461 
 194   0.0000       1.392715        37.8977 
 195   0.0000       1.414612        38.4935 
 196   0.0000       1.421759        38.6880 
 197   0.0000       1.427004        38.8308 
 198   0.0000       1.436213        39.0813 
 199   0.0000       1.452668        39.5291 
 200   0.0000       1.471051        40.0293 
 201   0.0000       1.483685        40.3731 
 202   0.0000       1.512757        41.1642 
 203   0.0000       1.521734        41.4085 
 204   0.0000       1.539459        41.8908 
 205   0.0000       1.567822        42.6626 
 206   0.0000       1.592388        43.3311 
 207   0.0000       1.620481        44.0955 
 208   0.0000       1.654588        45.0236 
 209   0.0000       1.674366        45.5618 
 210   0.0000       1.716044        46.6959 
 211   0.0000       1.738898        47.3178 
 212   0.0000       1.777166        48.3592 
 213   0.0000       1.789016        48.6816 
 214   0.0000       1.803513        49.0761 
 215   0.0000       1.816075        49.4179 
 216   0.0000       1.830865        49.8204 
 217   0.0000       1.844840        50.2007 
 218   0.0000       1.848062        50.2883 
 219   0.0000       1.865978        50.7758 
 220   0.0000       1.873198        50.9723 
 221   0.0000       1.883340        51.2483 
 222   0.0000       1.888386        51.3856 
 223   0.0000       1.909500        51.9601 
 224   0.0000       1.920751        52.2663 
 225   0.0000       1.929270        52.4981 
 226   0.0000       1.974044        53.7165 
 227   0.0000       1.983621        53.9771 
 228   0.0000       1.987958        54.0951 
 229   0.0000       2.001770        54.4709 
 230   0.0000       2.016614        54.8749 
 231   0.0000       2.027251        55.1643 
 232   0.0000       2.040839        55.5340 
 233   0.0000       2.053397        55.8758 
 234   0.0000       2.077176        56.5228 
 235   0.0000       2.083487        56.6946 
 236   0.0000       2.092318        56.9349 
 237   0.0000       2.098241        57.0960 
 238   0.0000       2.112972        57.4969 
 239   0.0000       2.129574        57.9486 
 240   0.0000       2.165823        58.9350 
 241   0.0000       2.189413        59.5769 
 242   0.0000       2.211199        60.1698 
 243   0.0000       2.220152        60.4134 
 244   0.0000       2.234140        60.7941 
 245   0.0000       2.264335        61.6157 
 246   0.0000       2.281701        62.0882 
 247   0.0000       2.297470        62.5173 
 248   0.0000       2.309568        62.8465 
 249   0.0000       2.339021        63.6480 
 250   0.0000       2.356448        64.1222 
 251   0.0000       2.388634        64.9980 
 252   0.0000       2.427427        66.0537 
 253   0.0000       2.453694        66.7684 
 254   0.0000       2.478413        67.4411 
 255   0.0000       2.488462        67.7145 
 256   0.0000       2.516185        68.4689 
 257   0.0000       2.535481        68.9939 
 258   0.0000       2.583752        70.3075 
 259   0.0000       2.627141        71.4882 
 260   0.0000       2.635042        71.7031 
 261   0.0000       2.653894        72.2161 
 262   0.0000       2.666722        72.5652 
 263   0.0000       2.704717        73.5991 
 264   0.0000       2.707846        73.6842 
 265   0.0000       2.755813        74.9895 
 266   0.0000       2.794261        76.0357 
 267   0.0000       2.839405        77.2641 
 268   0.0000       2.901686        78.9589 
 269   0.0000       2.970530        80.8322 
 270   0.0000       3.017827        82.1192 
 271   0.0000       3.048406        82.9513 
 272   0.0000       3.092673        84.1559 
 273   0.0000       3.134836        85.3032 
 274   0.0000       3.147757        85.6548 
 275   0.0000       3.208928        87.3194 
 276   0.0000       3.244916        88.2987 
 277   0.0000       3.255034        88.5740 

                    ********************************
                    * MULLIKEN POPULATION ANALYSIS *
                    ********************************

-----------------------
MULLIKEN ATOMIC CHARGES
-----------------------
   0 C :   -0.944456
   1 H :    0.250909
   2 H :    0.230272
   3 H :    0.253875
   4 C :    0.919814
   5 O :   -0.602398
   6 N :    0.175518
   7 C :   -1.432026
   8 H :    0.275171
   9 H :    0.269171
  10 C :   -0.751347
  11 H :    0.239481
  12 C :    1.005295
  13 N :   -0.184679
  14 O :   -0.596617
  15 C :   -0.559588
  16 H :    0.216164
  17 H :    0.222397
  18 H :    0.236001
  19 C :   -0.534167
  20 H :    0.218734
  21 H :    0.232933
  22 H :    0.230257
  23 C :    0.717655
  24 O :   -0.660424
  25 H :    0.243487
  26 O :   -0.671432
Sum of atomic charges:   -1.0000000

--------------------------------
MULLIKEN REDUCED ORBITAL CHARGES
--------------------------------
  0 C s       :     3.705543  s :     3.705543
      pz      :     1.125779  p :     3.207455
      px      :     1.006055
      py      :     1.075621
      dz2     :     0.008355  d :     0.031458
      dxz     :     0.002677
      dyz     :     0.006870
      dx2y2   :     0.004961
      dxy     :     0.008595
  1 H s       :     0.749091  s :     0.749091
  2 H s       :     0.769728  s :     0.769728
  3 H s       :     0.746125  s :     0.746125
  4 C s       :     2.785867  s :     2.785867
      pz      :     0.735614  p :     2.181328
      px      :     0.709453
      py      :     0.736261
      dz2     :     0.023626  d :     0.112990
      dxz     :     0.020025
      dyz     :     0.025137
      dx2y2   :     0.025036
      dxy     :     0.019166
  5 O s       :     3.946044  s :     3.946044
      pz      :     1.389723  p :     4.632234
      px      :     1.572013
      py      :     1.670497
      dz2     :     0.007813  d :     0.024120
      dxz     :     0.005028
      dyz     :     0.004582
      dx2y2   :     0.002835
      dxy     :     0.003863
  6 N s       :     3.051743  s :     3.051743
      pz      :     1.273751  p :     3.734769
      px      :     1.271840
      py      :     1.189177
      dz2     :     0.005954  d :     0.037970
      dxz     :     0.007112
      dyz     :     0.009153
      dx2y2   :     0.007440
      dxy     :     0.008311
  7 C s       :     4.260223  s :     4.260223
      pz      :     1.033890  p :     3.119078
      px      :     0.936259
      py      :     1.148929
      dz2     :     0.008453  d :     0.052725
      dxz     :     0.011224
      dyz     :     0.009343
      dx2y2   :     0.011521
      dxy     :     0.012185
  8 H s       :     0.724829  s :     0.724829
  9 H s       :     0.730829  s :     0.730829
 10 C s       :     3.642500  s :     3.642500
      pz      :     0.999236  p :     3.057670
      px      :     1.006846
      py      :     1.051588
      dz2     :     0.006491  d :     0.051176
      dxz     :     0.013338
      dyz     :     0.013239
      dx2y2   :     0.003929
      dxy     :     0.014181
 11 H s       :     0.760519  s :     0.760519
 12 C s       :     2.759518  s :     2.759518
      pz      :     0.718830  p :     2.127134
      px      :     0.669091
      py      :     0.739212
      dz2     :     0.024150  d :     0.108054
      dxz     :     0.033828
      dyz     :     0.020092
      dx2y2   :     0.015647
      dxy     :     0.014336
 13 N s       :     3.367719  s :     3.367719
      pz      :     1.228508  p :     3.779396
      px      :     1.198672
      py      :     1.352216
      dz2     :     0.006373  d :     0.037563
      dxz     :     0.009867
      dyz     :     0.007440
      dx2y2   :     0.006690
      dxy     :     0.007194
 14 O s       :     3.946861  s :     3.946861
      pz      :     1.327050  p :     4.625952
      px      :     1.759449
      py      :     1.539453
      dz2     :     0.008493  d :     0.023804
      dxz     :     0.005081
      dyz     :     0.006731
      dx2y2   :     0.001745
      dxy     :     0.001753
 15 C s       :     3.449940  s :     3.449940
      pz      :     1.022486  p :     3.061564
      px      :     0.914931
      py      :     1.124147
      dz2     :     0.002994  d :     0.048084
      dxz     :     0.013904
      dyz     :     0.013669
      dx2y2   :     0.012319
      dxy     :     0.005198
 16 H s       :     0.783836  s :     0.783836
 17 H s       :     0.777603  s :     0.777603
 18 H s       :     0.763999  s :     0.763999
 19 C s       :     3.415438  s :     3.415438
      pz      :     0.924811  p :     3.070388
      px      :     1.137462
      py      :     1.008115
      dz2     :     0.008550  d :     0.048341
      dxz     :     0.010359
      dyz     :     0.012803
      dx2y2   :     0.007246
      dxy     :     0.009382
 20 H s       :     0.781266  s :     0.781266
 21 H s       :     0.767067  s :     0.767067
 22 H s       :     0.769743  s :     0.769743
 23 C s       :     2.885303  s :     2.885303
      pz      :     0.721005  p :     2.260525
      px      :     0.769345
      py      :     0.770174
      dz2     :     0.042435  d :     0.136517
      dxz     :     0.038695
      dyz     :     0.034804
      dx2y2   :     0.009441
      dxy     :     0.011142
 24 O s       :     3.901075  s :     3.901075
      pz      :     1.293829  p :     4.738582
      px      :     1.749168
      py      :     1.695585
      dz2     :     0.007874  d :     0.020766
      dxz     :     0.006074
      dyz     :     0.006525
      dx2y2   :     0.000117
      dxy     :     0.000176
 25 H s       :     0.756513  s :     0.756513
 26 O s       :     3.913999  s :     3.913999
      pz      :     1.600936  p :     4.736798
      px      :     1.558357
      py      :     1.577505
      dz2     :     0.004034  d :     0.020634
      dxz     :     0.005048
      dyz     :     0.004479
      dx2y2   :     0.004040
      dxy     :     0.003033


                     *******************************
                     * LOEWDIN POPULATION ANALYSIS *
                     *******************************

----------------------
LOEWDIN ATOMIC CHARGES
----------------------
   0 C :   -0.470938
   1 H :    0.220566
   2 H :    0.211483
   3 H :    0.226163
   4 C :    0.107555
   5 O :   -0.449364
   6 N :   -0.287447
   7 C :   -0.239959
   8 H :    0.264151
   9 H :    0.256588
  10 C :   -0.253537
  11 H :    0.237162
  12 C :    0.124188
  13 N :   -0.346153
  14 O :   -0.432344
  15 C :   -0.356190
  16 H :    0.204213
  17 H :    0.206021
  18 H :    0.226445
  19 C :   -0.364574
  20 H :    0.208792
  21 H :    0.216860
  22 H :    0.209631
  23 C :    0.129614
  24 O :   -0.534247
  25 H :    0.240271
  26 O :   -0.554946

-------------------------------
LOEWDIN REDUCED ORBITAL CHARGES
-------------------------------
  0 C s       :     2.990123  s :     2.990123
      pz      :     1.164466  p :     3.419522
      px      :     1.101523
      py      :     1.153533
      dz2     :     0.015416  d :     0.061292
      dxz     :     0.005884
      dyz     :     0.012714
      dx2y2   :     0.010103
      dxy     :     0.017176
  1 H s       :     0.779434  s :     0.779434
  2 H s       :     0.788517  s :     0.788517
  3 H s       :     0.773837  s :     0.773837
  4 C s       :     2.796807  s :     2.796807
      pz      :     0.910410  p :     2.834935
      px      :     0.966590
      py      :     0.957935
      dz2     :     0.048850  d :     0.260703
      dxz     :     0.047382
      dyz     :     0.063407
      dx2y2   :     0.058908
      dxy     :     0.042156
  5 O s       :     3.559107  s :     3.559107
      pz      :     1.503153  p :     4.836611
      px      :     1.637357
      py      :     1.696101
      dz2     :     0.012738  d :     0.053646
      dxz     :     0.015373
      dyz     :     0.011760
      dx2y2   :     0.005952
      dxy     :     0.007822
  6 N s       :     3.101013  s :     3.101013
      pz      :     1.408568  p :     4.087726
      px      :     1.380703
      py      :     1.298455
      dz2     :     0.014254  d :     0.098707
      dxz     :     0.016770
      dyz     :     0.024865
      dx2y2   :     0.019486
      dxy     :     0.023333
  7 C s       :     2.891098  s :     2.891098
      pz      :     1.111709  p :     3.237150
      px      :     1.025001
      py      :     1.100440
      dz2     :     0.017158  d :     0.111711
      dxz     :     0.025596
      dyz     :     0.018624
      dx2y2   :     0.024946
      dxy     :     0.025388
  8 H s       :     0.735849  s :     0.735849
  9 H s       :     0.743412  s :     0.743412
 10 C s       :     2.916262  s :     2.916262
      pz      :     1.058509  p :     3.229899
      px      :     1.069746
      py      :     1.101644
      dz2     :     0.014027  d :     0.107377
      dxz     :     0.028244
      dyz     :     0.026997
      dx2y2   :     0.007097
      dxy     :     0.031011
 11 H s       :     0.762838  s :     0.762838
 12 C s       :     2.800491  s :     2.800491
      pz      :     0.980317  p :     2.825262
      px      :     0.987710
      py      :     0.857235
      dz2     :     0.053929  d :     0.250058
      dxz     :     0.080643
      dyz     :     0.048130
      dx2y2   :     0.034374
      dxy     :     0.032983
 13 N s       :     3.129530  s :     3.129530
      pz      :     1.357871  p :     4.120282
      px      :     1.338805
      py      :     1.423606
      dz2     :     0.016212  d :     0.096340
      dxz     :     0.024614
      dyz     :     0.019443
      dx2y2   :     0.016551
      dxy     :     0.019521
 14 O s       :     3.556865  s :     3.556865
      pz      :     1.485020  p :     4.823216
      px      :     1.766436
      py      :     1.571760
      dz2     :     0.018750  d :     0.052264
      dxz     :     0.010513
      dyz     :     0.016605
      dx2y2   :     0.003316
      dxy     :     0.003080
 15 C s       :     2.962288  s :     2.962288
      pz      :     1.107557  p :     3.298359
      px      :     1.032317
      py      :     1.158486
      dz2     :     0.005987  d :     0.095543
      dxz     :     0.028559
      dyz     :     0.026447
      dx2y2   :     0.024470
      dxy     :     0.010079
 16 H s       :     0.795787  s :     0.795787
 17 H s       :     0.793979  s :     0.793979
 18 H s       :     0.773555  s :     0.773555
 19 C s       :     2.960990  s :     2.960990
      pz      :     1.042741  p :     3.307492
      px      :     1.178091
      py      :     1.086660
      dz2     :     0.017959  d :     0.096093
      dxz     :     0.020218
      dyz     :     0.026011
      dx2y2   :     0.013819
      dxy     :     0.018086
 20 H s       :     0.791208  s :     0.791208
 21 H s       :     0.783140  s :     0.783140
 22 H s       :     0.790369  s :     0.790369
 23 C s       :     2.790529  s :     2.790529
      pz      :     1.013080  p :     2.769563
      px      :     0.899162
      py      :     0.857322
      dz2     :     0.101663  d :     0.310294
      dxz     :     0.087730
      dyz     :     0.076097
      dx2y2   :     0.018348
      dxy     :     0.026455
 24 O s       :     3.585296  s :     3.585296
      pz      :     1.478601  p :     4.902143
      px      :     1.737005
      py      :     1.686536
      dz2     :     0.024746  d :     0.046809
      dxz     :     0.010739
      dyz     :     0.010825
      dx2y2   :     0.000139
      dxy     :     0.000359
 25 H s       :     0.759729  s :     0.759729
 26 O s       :     3.601919  s :     3.601919
      pz      :     1.661572  p :     4.906284
      px      :     1.623422
      py      :     1.621290
      dz2     :     0.008573  d :     0.046744
      dxz     :     0.013351
      dyz     :     0.010490
      dx2y2   :     0.005724
      dxy     :     0.008606


                      *****************************
[...]
     70       0.000578  -0.000009   0.000014   0.000072   0.000117  -0.000515
     71      -0.000579  -0.000005   0.000006   0.000126  -0.000028  -0.000416
     72       0.000046  -0.000006   0.000006   0.000022   0.000072  -0.000028
     73      -0.000089   0.000002  -0.000004   0.000096   0.000038  -0.000110
     74       0.000258   0.000004  -0.000004  -0.000044  -0.000033   0.000153
     75      -0.311377   0.001749  -0.003780  -0.019240  -0.029108   0.207293
     76      -0.469700   0.002618  -0.005709  -0.029053  -0.040545   0.300866
     77       0.321178  -0.001777   0.003836   0.020289   0.030915  -0.224409
     78       0.000220  -0.000008   0.000014  -0.000001  -0.000042   0.000172
     79      -0.000199   0.000004  -0.000007  -0.000033  -0.000024   0.000119
     80       0.000291  -0.000003   0.000006  -0.000007  -0.000033   0.000167
                 78         79         80    
      0      -0.025777   0.000003  -0.000001
      1       0.074841  -0.000014  -0.000034
      2      -0.047271   0.000012   0.000003
      3      -0.032131   0.000015  -0.000030
      4       0.045042  -0.000008  -0.000003
      5       0.185289  -0.000055   0.000075
      6       0.022570   0.000001   0.000034
      7      -0.787710   0.000179   0.000509
      8       0.439421  -0.000093  -0.000259
      9       0.327962  -0.000057   0.000179
     10      -0.148134   0.000021  -0.000036
     11      -0.053047   0.000005  -0.000005
     12      -0.001409   0.000013   0.000030
     13       0.000816  -0.000006  -0.000040
     14      -0.001450   0.000012   0.000058
     15       0.000339  -0.000007  -0.000017
     16      -0.000451   0.000001   0.000033
     17       0.000527  -0.000005  -0.000015
     18      -0.000145   0.000014  -0.000079
     19      -0.000232   0.000009   0.000127
     20      -0.000059   0.000005   0.000076
     21      -0.000272   0.000126   0.000794
     22       0.000439  -0.000169  -0.001602
     23      -0.000927   0.000479  -0.002656
     24       0.002052  -0.001429   0.009767
     25      -0.002858   0.001180  -0.008065
     26       0.010890  -0.004715   0.038384
     27       0.001506   0.000033  -0.011480
     28      -0.003056   0.000098   0.033813
     29       0.000095  -0.000080   0.000206
     30      -0.003011  -0.000011  -0.000113
     31      -0.006550  -0.000019  -0.000212
     32      -0.003068  -0.000013  -0.000025
     33       0.022125   0.000091   0.000522
     34       0.055394   0.000206   0.001274
     35       0.053971   0.000193   0.001230
     36       0.000001   0.000166   0.000498
     37       0.000029  -0.000406  -0.000366
     38       0.000016  -0.001039  -0.000309
     39       0.000016  -0.000096   0.000078
     40      -0.000002  -0.000214   0.000377
     41      -0.000009  -0.000230   0.000385
     42       0.000007  -0.000656  -0.000146
     43       0.000004   0.000024  -0.000009
     44      -0.000002   0.000392  -0.000021
     45      -0.000020  -0.010132  -0.000469
     46      -0.000013  -0.069434  -0.002975
     47      -0.000013  -0.057745  -0.001588
     48       0.000271   0.215439   0.002465
     49       0.000007  -0.008908   0.000125
     50       0.000202   0.187147   0.003546
     51       0.000014  -0.003738   0.000076
     52       0.000108   0.103861   0.007902
     53      -0.000082  -0.081315  -0.004921
     54      -0.000023  -0.080338  -0.003623
     55       0.000108   0.737917   0.030079
     56       0.000081   0.583316   0.023326
     57      -0.000018  -0.003414   0.073985
     58      -0.000015  -0.000710   0.030453
     59      -0.000005   0.001471  -0.040940
     60       0.000200   0.013978  -0.211492
     61       0.000007   0.000303   0.005253
     62       0.000132   0.010511  -0.139603
     63       0.000021   0.026695  -0.714665
     64       0.000004   0.009811  -0.265622
     65      -0.000018  -0.020449   0.570283
     66      -0.000036  -0.001223   0.039445
     67       0.000155   0.000869  -0.114526
     68      -0.000049  -0.000253   0.044446
     69       0.000077  -0.000001  -0.000017
     70      -0.000133  -0.000000   0.000005
     71      -0.000050  -0.000003  -0.000016
     72      -0.000038  -0.000000   0.000011
     73       0.000057   0.000000   0.000002
     74       0.000041  -0.000000   0.000007
     75       0.015675   0.000068   0.000924
     76       0.022638   0.000063   0.001296
     77      -0.016174  -0.000077  -0.000913
     78      -0.000044   0.000001   0.000007
     79       0.000039  -0.000001  -0.000003
     80       0.000003  -0.000001   0.000007


-----------
IR SPECTRUM
-----------

 Mode   freq       eps      Int      T**2         TX        TY        TZ
       cm**-1   L/(mol*cm) km/mol    a.u.
----------------------------------------------------------------------------
  6:     26.62   0.000204    1.03  0.002395  (-0.048571  0.005989  0.000060)
  7:     41.65   0.001899    9.60  0.014229  ( 0.080263 -0.017190  0.086552)
  8:     49.88   0.005575   28.17  0.034881  (-0.087241 -0.163194  0.025253)
  9:     58.91   0.000835    4.22  0.004424  ( 0.039655 -0.017858  0.050329)
 10:     59.13   0.001589    8.03  0.008388  (-0.067953 -0.060012  0.012982)
 11:     72.45   0.000714    3.61  0.003074  ( 0.054630  0.009415 -0.000954)
 12:     73.60   0.000501    2.53  0.002125  ( 0.024544 -0.034575  0.018099)
 13:    103.90   0.003088   15.60  0.009274  ( 0.032383 -0.026713 -0.086672)
 14:    128.36   0.000440    2.22  0.001070  ( 0.025343 -0.007913  0.019107)
 15:    178.26   0.000074    0.38  0.000130  ( 0.001414 -0.006567  0.009219)
 16:    194.71   0.001586    8.01  0.002541  ( 0.032009 -0.036134  0.014532)
 17:    227.72   0.001781    9.00  0.002441  ( 0.027948 -0.008529  0.039843)
 18:    246.56   0.000452    2.28  0.000572  ( 0.002430 -0.022810 -0.006734)
 19:    316.90   0.002362   11.94  0.002326  ( 0.000162  0.044910 -0.017583)
 20:    360.79   0.001961    9.91  0.001696  ( 0.039834  0.010458  0.000634)
 21:    394.37   0.001685    8.52  0.001333  ( 0.036096  0.005231 -0.001776)
 22:    414.36   0.001211    6.12  0.000912  (-0.005982  0.029175  0.005011)
 23:    436.08   0.003232   16.34  0.002313  ( 0.028563  0.034301 -0.017909)
 24:    453.36   0.000789    3.99  0.000543  (-0.019800  0.009603  0.007662)
 25:    522.00   0.006568   33.19  0.003926  (-0.040451 -0.045483 -0.014880)
 26:    561.01   0.002554   12.91  0.001421  ( 0.030905 -0.005973  0.020737)
 27:    585.43   0.000767    3.87  0.000409  (-0.012694  0.000612 -0.015721)
 28:    595.25   0.000596    3.01  0.000313  ( 0.003735 -0.015406 -0.007836)
 29:    619.37   0.003991   20.17  0.002011  (-0.040212  0.011991  0.015806)
 30:    645.05   0.006723   33.98  0.003253  ( 0.039312 -0.040733 -0.006931)
 31:    702.97   0.006997   35.36  0.003106  (-0.029957  0.000404  0.046997)
 32:    810.28   0.002593   13.10  0.000999  (-0.001177  0.002503  0.031479)
 33:    825.70   0.004653   23.52  0.001759  ( 0.019847 -0.030570 -0.020742)
 34:    891.02   0.006208   31.37  0.002174  ( 0.038189 -0.025315  0.008658)
 35:    959.73   0.000127    0.64  0.000041  ( 0.000876 -0.006185  0.001517)
 36:    975.53   0.002908   14.70  0.000930  ( 0.018920 -0.006374  0.023059)
 37:    995.91   0.011383   57.53  0.003567  (-0.025428 -0.053972 -0.002695)
 38:   1016.25   0.009856   49.81  0.003026  ( 0.018505 -0.042000  0.030332)
 39:   1060.16   0.002312   11.68  0.000681  (-0.019445  0.007304  0.015782)
 40:   1083.13   0.003112   15.73  0.000897  (-0.012069  0.014877  0.023015)
 41:   1114.51   0.001521    7.69  0.000426  ( 0.013134  0.015367  0.004154)
 42:   1127.08   0.000665    3.36  0.000184  ( 0.008587 -0.004451 -0.009519)
 43:   1162.97   0.040676  205.56  0.010915  (-0.081051 -0.057417 -0.032385)
 44:   1178.16   0.002534   12.81  0.000671  (-0.020711 -0.014692  0.005146)
 45:   1226.74   0.003684   18.62  0.000937  ( 0.027313  0.001981  0.013684)
 46:   1275.38   0.021149  106.88  0.005175  (-0.014768 -0.067323  0.020598)
 47:   1283.46   0.011665   58.95  0.002836  ( 0.049054 -0.020712 -0.001018)
 48:   1330.74   0.021264  107.46  0.004986  (-0.035378  0.053325 -0.029854)
 49:   1358.97   0.016932   85.57  0.003888  (-0.059048 -0.013054 -0.015205)
 50:   1382.60   0.013192   66.67  0.002978  (-0.025411 -0.047633 -0.007933)
 51:   1388.91   0.062315  314.91  0.014001  ( 0.093856 -0.063534 -0.033990)
 52:   1405.55   0.002198   11.11  0.000488  ( 0.015416  0.009807  0.012419)
 53:   1439.17   0.022305  112.72  0.004837  (-0.054444 -0.042619 -0.007481)
 54:   1449.76   0.005942   30.03  0.001279  (-0.024627 -0.005362  0.025373)
 55:   1468.21   0.019263   97.35  0.004094  (-0.020340  0.025785 -0.054916)
 56:   1474.11   0.007460   37.70  0.001579  (-0.015278 -0.036270 -0.005502)
 57:   1484.07   0.012632   63.84  0.002656  ( 0.006310 -0.047529 -0.018904)
 58:   1486.38   0.009673   48.89  0.002031  (-0.006844 -0.044068  0.006486)
 59:   1494.78   0.003803   19.22  0.000794  (-0.013132 -0.006353  0.024106)
 60:   1499.90   0.001861    9.41  0.000387  ( 0.005237  0.006550 -0.017802)
 61:   1502.15   0.004614   23.32  0.000959  (-0.030035  0.006102 -0.004375)
 62:   1512.99   0.006473   32.71  0.001335  (-0.020668 -0.024136 -0.018036)
 63:   1518.51   0.020186  102.01  0.004148  (-0.026665 -0.058330  0.005914)
 64:   1544.86   0.021408  108.19  0.004324  ( 0.058491  0.030054  0.000206)
 65:   1617.68   0.205336  1037.69  0.039611  ( 0.054992 -0.047363  0.185320)
 66:   1653.16   0.169516  856.66  0.031999  (-0.087306  0.081985 -0.132873)
 67:   1679.09   0.127276  643.20  0.023655  (-0.019613 -0.124007 -0.088837)
 68:   3031.04   0.008597   43.44  0.000885  ( 0.020806 -0.003034 -0.021048)
 69:   3035.58   0.021868  110.51  0.002248  (-0.016996 -0.044253 -0.000937)
 70:   3057.57   0.001087    5.49  0.000111  ( 0.006086  0.006425  0.005713)
 71:   3081.67   0.004958   25.05  0.000502  ( 0.008660  0.006389  0.019653)
 72:   3089.93   0.006974   35.24  0.000704  ( 0.003664  0.022502 -0.013586)
 73:   3101.64   0.008868   44.82  0.000892  (-0.021754  0.009878 -0.017930)
 74:   3105.25   0.006558   33.14  0.000659  ( 0.016392 -0.004221  0.019302)
 75:   3120.66   0.001701    8.60  0.000170  (-0.009390  0.001516  0.008924)
 76:   3137.40   0.001180    5.96  0.000117  ( 0.007452  0.004340  0.006557)
 77:   3140.80   0.002521   12.74  0.000250  (-0.008471 -0.011370 -0.007031)
 78:   3160.74   0.003244   16.39  0.000320  (-0.003333  0.015232 -0.008783)
 79:   3180.44   0.001048    5.30  0.000103  ( 0.002606 -0.007464 -0.006350)
 80:   3183.76   0.002649   13.39  0.000260  ( 0.012815  0.004540 -0.008648)

* The epsilon (eps) is given for a Dirac delta lineshape.
** The dipole moment derivative (T) already includes vibrational overlap.

The first frequency considered to be a vibration is 6
The total number of vibrations considered is 75


--------------------------
THERMOCHEMISTRY AT 298.15K
--------------------------

Temperature         ... 298.15 K
Pressure            ... 1.00 atm
Total Mass          ... 201.20 AMU

Throughout the following assumptions are being made:
  (1) The electronic state is orbitally nondegenerate
  (2) There are no thermally accessible electronically excited states
  (3) Hindered rotations indicated by low frequency modes are not
      treated as such but are treated as vibrations and this may
      cause some error
  (4) All equations used are the standard statistical mechanics
      equations for an ideal gas
  (5) All vibrations are strictly harmonic

freq.      26.62  E(vib)   ...       0.56 
freq.      41.65  E(vib)   ...       0.53 
freq.      49.88  E(vib)   ...       0.52 
freq.      58.91  E(vib)   ...       0.51 
freq.      59.13  E(vib)   ...       0.51 
freq.      72.45  E(vib)   ...       0.49 
freq.      73.60  E(vib)   ...       0.49 
freq.     103.90  E(vib)   ...       0.46 
freq.     128.36  E(vib)   ...       0.43 
freq.     178.26  E(vib)   ...       0.37 
freq.     194.71  E(vib)   ...       0.36 
freq.     227.72  E(vib)   ...       0.33 
freq.     246.56  E(vib)   ...       0.31 
freq.     316.90  E(vib)   ...       0.25 
freq.     360.79  E(vib)   ...       0.22 
freq.     394.37  E(vib)   ...       0.20 
freq.     414.36  E(vib)   ...       0.19 
freq.     436.08  E(vib)   ...       0.17 
freq.     453.36  E(vib)   ...       0.16 
freq.     522.00  E(vib)   ...       0.13 
freq.     561.01  E(vib)   ...       0.11 
freq.     585.43  E(vib)   ...       0.11 
freq.     595.25  E(vib)   ...       0.10 
freq.     619.37  E(vib)   ...       0.09 
freq.     645.05  E(vib)   ...       0.09 
freq.     702.97  E(vib)   ...       0.07 
freq.     810.28  E(vib)   ...       0.05 
freq.     825.70  E(vib)   ...       0.04 
freq.     891.02  E(vib)   ...       0.04 
freq.     959.73  E(vib)   ...       0.03 
freq.     975.53  E(vib)   ...       0.03 
freq.     995.91  E(vib)   ...       0.02 
freq.    1016.25  E(vib)   ...       0.02 
freq.    1060.16  E(vib)   ...       0.02 
freq.    1083.13  E(vib)   ...       0.02 
freq.    1114.51  E(vib)   ...       0.01 
freq.    1127.08  E(vib)   ...       0.01 
freq.    1162.97  E(vib)   ...       0.01 
freq.    1178.16  E(vib)   ...       0.01 
freq.    1226.74  E(vib)   ...       0.01 
freq.    1275.38  E(vib)   ...       0.01 
freq.    1283.46  E(vib)   ...       0.01 
freq.    1330.74  E(vib)   ...       0.01 
freq.    1358.97  E(vib)   ...       0.01 
freq.    1382.60  E(vib)   ...       0.01 
freq.    1388.91  E(vib)   ...       0.00 
freq.    1405.55  E(vib)   ...       0.00 
freq.    1439.17  E(vib)   ...       0.00 
freq.    1449.76  E(vib)   ...       0.00 
freq.    1468.21  E(vib)   ...       0.00 
freq.    1474.11  E(vib)   ...       0.00 
freq.    1484.07  E(vib)   ...       0.00 
freq.    1486.38  E(vib)   ...       0.00 
freq.    1494.78  E(vib)   ...       0.00 
freq.    1499.90  E(vib)   ...       0.00 
freq.    1502.15  E(vib)   ...       0.00 
freq.    1512.99  E(vib)   ...       0.00 
freq.    1518.51  E(vib)   ...       0.00 
freq.    1544.86  E(vib)   ...       0.00 
freq.    1617.68  E(vib)   ...       0.00 
freq.    1653.16  E(vib)   ...       0.00 
freq.    1679.09  E(vib)   ...       0.00 
freq.    3031.04  E(vib)   ...       0.00 
freq.    3035.58  E(vib)   ...       0.00 
freq.    3057.57  E(vib)   ...       0.00 
freq.    3081.67  E(vib)   ...       0.00 
freq.    3089.93  E(vib)   ...       0.00 
freq.    3101.64  E(vib)   ...       0.00 
freq.    3105.25  E(vib)   ...       0.00 
freq.    3120.66  E(vib)   ...       0.00 
freq.    3137.40  E(vib)   ...       0.00 
freq.    3140.80  E(vib)   ...       0.00 
freq.    3160.74  E(vib)   ...       0.00 
freq.    3180.44  E(vib)   ...       0.00 
freq.    3183.76  E(vib)   ...       0.00 

------------
INNER ENERGY
------------

The inner energy is: U= E(el) + E(ZPE) + E(vib) + E(rot) + E(trans)
    E(el)   - is the total energy from the electronic structure calculation
              = E(kin-el) + E(nuc-el) + E(el-el) + E(nuc-nuc)
    E(ZPE)  - the the zero temperature vibrational energy from the frequency calculation
    E(vib)  - the the finite temperature correction to E(ZPE) due to population
              of excited vibrational states
    E(rot)  - is the rotational thermal energy
    E(trans)- is the translational thermal energy

Summary of contributions to the inner energy U:
Electronic energy                ...   -722.94491900 Eh
Zero point energy                ...      0.21681953 Eh     136.06 kcal/mol
Thermal vibrational correction   ...      0.01302855 Eh       8.18 kcal/mol
Thermal rotational correction    ...      0.00141627 Eh       0.89 kcal/mol
Thermal translational correction ...      0.00141627 Eh       0.89 kcal/mol
-----------------------------------------------------------------------
Total thermal energy                   -722.71223838 Eh


Summary of corrections to the electronic energy:
(perhaps to be used in another calculation)
Total thermal correction                  0.01586109 Eh       9.95 kcal/mol
Non-thermal (ZPE) correction              0.21681953 Eh     136.06 kcal/mol
-----------------------------------------------------------------------
Total correction                          0.23268062 Eh     146.01 kcal/mol


--------
ENTHALPY
--------

The enthalpy is H = U + kB*T
                kB is Boltzmann's constant
Total free energy                 ...   -722.71223838 Eh 
Thermal Enthalpy correction       ...      0.00094421 Eh       0.59 kcal/mol
-----------------------------------------------------------------------
Total Enthalpy                    ...   -722.71129417 Eh


Note: Only C1 symmetry has been detected, increase convergence thresholds 
      if your molecule has a higher symmetry. Symmetry factor of 1.0 is   
      used for the rotational entropy correction. 
 

Note: Rotational entropy computed according to Herzberg 
Infrared and Raman Spectra, Chapter V,1, Van Nostrand Reinhold, 1945 
Point Group:  C1, Symmetry Number:   1  
Rotational constants in cm-1:     0.033598     0.013307     0.011402 

Vibrational entropy computed according to the QRRHO of S. Grimme
Chem.Eur.J. 2012 18 9955


-------
ENTROPY
-------

The entropy contributions are T*S = T*(S(el)+S(vib)+S(rot)+S(trans))
     S(el)   - electronic entropy
     S(vib)  - vibrational entropy
     S(rot)  - rotational entropy
     S(trans)- translational entropy
The entropies will be listed as multiplied by the temperature to get
units of energy

Electronic entropy                ...      0.00000000 Eh      0.00 kcal/mol
Vibrational entropy               ...      0.02388121 Eh     14.99 kcal/mol
Rotational entropy                ...      0.01526406 Eh      9.58 kcal/mol
Translational entropy             ...      0.01986141 Eh     12.46 kcal/mol
-----------------------------------------------------------------------
Final entropy term                ...      0.05900668 Eh     37.03 kcal/mol

In case the symmetry of your molecule has not been determined correctly
or in case you have a reason to use a different symmetry number we print 
out the resulting rotational entropy values for sn=1,12 :
 --------------------------------------------------------
|  sn= 1 | S(rot)=       0.01526406 Eh      9.58 kcal/mol|
|  sn= 2 | S(rot)=       0.01460960 Eh      9.17 kcal/mol|
|  sn= 3 | S(rot)=       0.01422677 Eh      8.93 kcal/mol|
|  sn= 4 | S(rot)=       0.01395514 Eh      8.76 kcal/mol|
|  sn= 5 | S(rot)=       0.01374445 Eh      8.62 kcal/mol|
|  sn= 6 | S(rot)=       0.01357231 Eh      8.52 kcal/mol|
|  sn= 7 | S(rot)=       0.01342676 Eh      8.43 kcal/mol|
|  sn= 8 | S(rot)=       0.01330069 Eh      8.35 kcal/mol|
|  sn= 9 | S(rot)=       0.01318948 Eh      8.28 kcal/mol|
|  sn=10 | S(rot)=       0.01309000 Eh      8.21 kcal/mol|
|  sn=11 | S(rot)=       0.01300001 Eh      8.16 kcal/mol|
|  sn=12 | S(rot)=       0.01291785 Eh      8.11 kcal/mol|
 --------------------------------------------------------


-------------------
GIBBS FREE ENERGY
-------------------

The Gibbs free energy is G = H - T*S

Total enthalpy                    ...   -722.71129417 Eh 
Total entropy correction          ...     -0.05900668 Eh    -37.03 kcal/mol
-----------------------------------------------------------------------
Final Gibbs free energy         ...   -722.77030085 Eh

For completeness - the Gibbs free energy minus the electronic energy
G-E(el)                           ...      0.17461815 Eh    109.57 kcal/mol


Timings for individual modules:

Sum of individual times         ...     3246.575 sec (=  54.110 min)
GTO integral calculation        ...       31.916 sec (=   0.532 min)   1.0 %
SCF iterations                  ...     1810.737 sec (=  30.179 min)  55.8 %
SCF Gradient evaluation         ...      517.894 sec (=   8.632 min)  16.0 %
Geometry relaxation             ...        1.261 sec (=   0.021 min)   0.0 %
Analytical frequency calculation...      884.767 sec (=  14.746 min)  27.3 %
                             ****ORCA TERMINATED NORMALLY****
TOTAL RUN TIME: 0 days 0 hours 54 minutes 16 seconds 232 msec
