
                                 *****************
                                 * O   R   C   A *
                                 *****************

                                            #,                                       
                                            ###                                      
                                            ####                                     
                                            #####                                    
                                            ######                                   
                                           ########,                                 
                                     ,,################,,,,,                         
                               ,,#################################,,                 
                          ,,##########################################,,             
                       ,#########################################, ''#####,          
                    ,#############################################,,   '####,        
                  ,##################################################,,,,####,       
                ,###########''''           ''''###############################       
              ,#####''   ,,,,##########,,,,          '''####'''          '####       
            ,##' ,,,,###########################,,,                        '##       
           ' ,,###''''                  '''############,,,                           
         ,,##''                                '''############,,,,        ,,,,,,###''
      ,#''                                            '''#######################'''  
     '                                                          ''''####''''         
             ,#######,   #######,   ,#######,      ##                                
            ,#'     '#,  ##    ##  ,#'     '#,    #''#        ######   ,####,        
            ##       ##  ##   ,#'  ##            #'  '#       #        #'  '#        
            ##       ##  #######   ##           ,######,      #####,   #    #        
            '#,     ,#'  ##    ##  '#,     ,#' ,#      #,         ##   #,  ,#        
             '#######'   ##     ##  '#######'  #'      '#     #####' # '####'        



                  #######################################################
                  #                        -***-                        #
                  #          Department of theory and spectroscopy      #
                  #    Directorship and core code : Frank Neese         #
                  #        Max Planck Institute fuer Kohlenforschung    #
                  #                Kaiser Wilhelm Platz 1               #
                  #                 D-45470 Muelheim/Ruhr               #
                  #                      Germany                        #
                  #                                                     #
                  #                  All rights reserved                #
                  #                        -***-                        #
                  #######################################################


                         Program Version 5.0.4 -  RELEASE  -


 With contributions from (in alphabetic order):
   Daniel Aravena         : Magnetic Suceptibility
   Michael Atanasov       : Ab Initio Ligand Field Theory (pilot matlab implementation)
   Alexander A. Auer      : GIAO ZORA, VPT2 properties, NMR spectrum
   Ute Becker             : Parallelization
   Giovanni Bistoni       : ED, misc. LED, open-shell LED, HFLD
   Martin Brehm           : Molecular dynamics
   Dmytro Bykov           : SCF Hessian
   Vijay G. Chilkuri      : MRCI spin determinant printing, contributions to CSF-ICE
   Dipayan Datta          : RHF DLPNO-CCSD density
   Achintya Kumar Dutta   : EOM-CC, STEOM-CC
   Dmitry Ganyushin       : Spin-Orbit,Spin-Spin,Magnetic field MRCI
   Miquel Garcia          : C-PCM and meta-GGA Hessian, CC/C-PCM, Gaussian charge scheme
   Yang Guo               : DLPNO-NEVPT2, F12-NEVPT2, CIM, IAO-localization
   Andreas Hansen         : Spin unrestricted coupled pair/coupled cluster methods
   Benjamin Helmich-Paris : MC-RPA, TRAH-SCF, COSX integrals
   Lee Huntington         : MR-EOM, pCC
   Robert Izsak           : Overlap fitted RIJCOSX, COSX-SCS-MP3, EOM
   Marcus Kettner         : VPT2
   Christian Kollmar      : KDIIS, OOCD, Brueckner-CCSD(T), CCSD density, CASPT2, CASPT2-K
   Simone Kossmann        : Meta GGA functionals, TD-DFT gradient, OOMP2, MP2 Hessian
   Martin Krupicka        : Initial AUTO-CI
   Lucas Lang             : DCDCAS
   Marvin Lechner         : AUTO-CI (C++ implementation), FIC-MRCC
   Dagmar Lenk            : GEPOL surface, SMD
   Dimitrios Liakos       : Extrapolation schemes; Compound Job, initial MDCI parallelization
   Dimitrios Manganas     : Further ROCIS development; embedding schemes
   Dimitrios Pantazis     : SARC Basis sets
   Anastasios Papadopoulos: AUTO-CI, single reference methods and gradients
   Taras Petrenko         : DFT Hessian,TD-DFT gradient, ASA, ECA, R-Raman, ABS, FL, XAS/XES, NRVS
   Peter Pinski           : DLPNO-MP2, DLPNO-MP2 Gradient
   Christoph Reimann      : Effective Core Potentials
   Marius Retegan         : Local ZFS, SOC
   Christoph Riplinger    : Optimizer, TS searches, QM/MM, DLPNO-CCSD(T), (RO)-DLPNO pert. Triples
   Tobias Risthaus        : Range-separated hybrids, TD-DFT gradient, RPA, STAB
   Michael Roemelt        : Original ROCIS implementation
   Masaaki Saitow         : Open-shell DLPNO-CCSD energy and density
   Barbara Sandhoefer     : DKH picture change effects
   Avijit Sen             : IP-ROCIS
   Kantharuban Sivalingam : CASSCF convergence, NEVPT2, FIC-MRCI
   Bernardo de Souza      : ESD, SOC TD-DFT
   Georgi Stoychev        : AutoAux, RI-MP2 NMR, DLPNO-MP2 response
   Willem Van den Heuvel  : Paramagnetic NMR
   Boris Wezisla          : Elementary symmetry handling
   Frank Wennmohs         : Technical directorship


 We gratefully acknowledge several colleagues who have allowed us to
 interface, adapt or use parts of their codes:
   Stefan Grimme, W. Hujo, H. Kruse, P. Pracht,  : VdW corrections, initial TS optimization,
                  C. Bannwarth, S. Ehlert          DFT functionals, gCP, sTDA/sTD-DF
   Ed Valeev, F. Pavosevic, A. Kumar             : LibInt (2-el integral package), F12 methods
   Garnet Chan, S. Sharma, J. Yang, R. Olivares  : DMRG
   Ulf Ekstrom                                   : XCFun DFT Library
   Mihaly Kallay                                 : mrcc  (arbitrary order and MRCC methods)
   Jiri Pittner, Ondrej Demel                    : Mk-CCSD
   Frank Weinhold                                : gennbo (NPA and NBO analysis)
   Christopher J. Cramer and Donald G. Truhlar   : smd solvation model
   Lars Goerigk                                  : TD-DFT with DH, B97 family of functionals
   V. Asgeirsson, H. Jonsson                     : NEB implementation
   FAccTs GmbH                                   : IRC, NEB, NEB-TS, DLPNO-Multilevel, CI-OPT
                                                   MM, QMMM, 2- and 3-layer-ONIOM, Crystal-QMMM,
                                                   LR-CPCM, SF, NACMEs, symmetry and pop. for TD-DFT,
                                                   nearIR, NL-DFT gradient (VV10), updates on ESD,
                                                   ML-optimized integration grids
   S Lehtola, MJT Oliveira, MAL Marques          : LibXC Library
   Liviu Ungur et al                             : ANISO software


 Your calculation uses the libint2 library for the computation of 2-el integrals
 For citations please refer to: http://libint.valeyev.net

 Your ORCA version has been built with support for libXC version: 5.1.0
 For citations please refer to: https://tddft.org/programs/libxc/

 This ORCA versions uses:
   CBLAS   interface :  Fast vector & matrix operations
   LAPACKE interface :  Fast linear algebra routines
   SCALAPACK package :  Parallel linear algebra routines
   Shared memory     :  Shared parallel matrices
   BLAS/LAPACK       :  OpenBLAS 0.3.15  USE64BITINT DYNAMIC_ARCH NO_AFFINITY SkylakeX SINGLE_THREADED
        Core in use  :  SkylakeX
   Copyright (c) 2011-2014, The OpenBLAS Project




***************************************
The coordinates will be read from file: /users/fjb15167/WWenergy/structures/Nv.xyz
***************************************


Your calculation utilizes the atom-pairwise dispersion correction
based on tight binding partial charges (D4)
Cite in your paper:
E.Caldeweyher, C.Bannwarth, S.Grimme, J.Chem.Phys., (2017), 147, 034112.
E.Caldeweyher, S.Ehlert, A.Hansen, H.Neugebauer, S.Grimme, J.Chem.Phys., (2018), in progress.
   

================================================================================

----- Orbital basis set information -----
Your calculation utilizes the basis: 6-31G(d)
   H-He, Li-Ne : W. J. Hehre, R. Ditchfield and J.A. Pople, J. Chem. Phys. 56, 2257 (1972).
                 Note: He and Ne are unpublished basis sets taken from the Gaussian program.
                 Note: Li and B from J. D. Dill and J. A. Pople, J. Chem. Phys. 62, 2921 (1975).
   Na - Ar     : M. M. Francl, W. J. Pietro, W. J. Hehre, J. S. Binkley, M. S. Gordon, 
                 D. J. DeFrees and J. A. Pople, J. Chem. Phys. 77, 3654 (1982).
   K - Zn      : V. A. Rassolov, J. A. Pople, M. A. Ratner, and T. L. Windus, J. Chem. Phys. 109, 1223 (1998).

----- AuxJ basis set information -----
Your calculation utilizes the AutoAux generation procedure.
  G. L. Stoychev, A. A. Auer, F. Neese, J. Chem. Theory Comput. 13, 554 (2017)

----- AuxC basis set information -----
Your calculation utilizes the AutoAux generation procedure.
  G. L. Stoychev, A. A. Auer, F. Neese, J. Chem. Theory Comput. 13, 554 (2017)

----- AuxJK basis set information -----
Your calculation utilizes the AutoAux generation procedure.
  G. L. Stoychev, A. A. Auer, F. Neese, J. Chem. Theory Comput. 13, 554 (2017)

================================================================================
                                        WARNINGS
                       Please study these warnings very carefully!
================================================================================


WARNING: Geometry Optimization
  ===> : Switching off AutoStart
         For restart on a previous wavefunction, please use MOREAD

INFO   : the flag for use of the SHARK integral package has been found!

================================================================================
                                       INPUT FILE
================================================================================
NAME = Nv_water.inp
|  1> ! OPT FREQ B3LYP 6-31G(d) D4 AUTOAUX CPCM(water)
|  2> 
|  3> %PAL NPROCS 4 END
|  4> 
|  5> %maxcore 3375
|  6> 
|  7> *xyzfile 0 1 /users/fjb15167/WWenergy/structures/Nv.xyz
|  8> 
|  9>                          ****END OF INPUT****
================================================================================

                       *****************************
                       * Geometry Optimization Run *
                       *****************************

Geometry optimization settings:
Update method            Update   .... BFGS
Choice of coordinates    CoordSys .... Z-matrix Internals
Initial Hessian          InHess   .... Almoef's Model

Convergence Tolerances:
Energy Change            TolE     ....  5.0000e-06 Eh
Max. Gradient            TolMAXG  ....  3.0000e-04 Eh/bohr
RMS Gradient             TolRMSG  ....  1.0000e-04 Eh/bohr
Max. Displacement        TolMAXD  ....  4.0000e-03 bohr
RMS Displacement         TolRMSD  ....  2.0000e-03 bohr
Strict Convergence                ....  False
------------------------------------------------------------------------------
                        ORCA OPTIMIZATION COORDINATE SETUP
------------------------------------------------------------------------------

The optimization will be done in new redundant internal coordinates
Making redundant internal coordinates   ...  (new redundants) done
Evaluating the initial hessian          ...  (Almloef) done
Evaluating the coordinates              ...  done
Calculating the B-matrix                .... done
Calculating the G-matrix                .... done
Diagonalizing the G-matrix              .... done
Small eigenvalue found = 6.405e-03
Small eigenvalue found = 9.445e-03
Small eigenvalue found = 1.428e-02
Small eigenvalue found = 1.953e-02
The first mode is                       ....   59
The number of degrees of freedom        ....   87

    -----------------------------------------------------------------
                    Redundant Internal Coordinates


    -----------------------------------------------------------------
         Definition                    Initial Value    Approx d2E/dq
    -----------------------------------------------------------------
      1. B(H   1,C   0)                  1.0885         0.362147   
      2. B(H   2,C   0)                  1.0929         0.356272   
      3. B(H   3,C   0)                  1.0900         0.360095   
      4. B(C   4,C   0)                  1.5148         0.395052   
      5. B(O   5,C   4)                  1.2409         0.967786   
      6. B(N   6,C   4)                  1.3746         0.592244   
      7. B(C   7,N   6)                  1.4656         0.423921   
      8. B(H   8,C   7)                  1.0951         0.353436   
      9. B(H   9,C   7)                  1.0897         0.360486   
     10. B(C  10,C   7)                  1.5256         0.379720   
     11. B(N  11,C  10)                  1.3664         0.610349   
     12. B(O  12,C  10)                  1.2409         0.967714   
     13. B(C  13,N  11)                  1.4535         0.443111   
     14. B(H  14,C  13)                  1.0978         0.349923   
     15. B(H  15,C  13)                  1.0956         0.352814   
     16. B(H  16,C  13)                  1.0878         0.362970   
     17. B(C  17,N  11)                  1.4548         0.441003   
     18. B(H  18,C  17)                  1.0962         0.352018   
     19. B(H  19,C  17)                  1.0878         0.363005   
     20. B(H  20,C  17)                  1.0952         0.353285   
     21. B(C  21,N   6)                  1.4805         0.401314   
     22. B(C  22,C  21)                  1.5279         0.376425   
     23. B(C  23,C  21)                  1.5286         0.375555   
     24. B(H  24,C  21)                  1.0941         0.354696   
     25. B(H  25,C  22)                  1.0933         0.355794   
     26. B(H  26,C  22)                  1.0945         0.354142   
     27. B(H  27,C  22)                  1.0903         0.359757   
     28. B(H  28,C  23)                  1.0928         0.356465   
     29. B(H  29,C  23)                  1.0924         0.356920   
     30. B(H  30,C  23)                  1.0947         0.353964   
     31. A(H   1,C   0,H   2)          108.6095         0.290610   
     32. A(H   1,C   0,H   3)          109.6067         0.291098   
     33. A(H   3,C   0,C   4)          106.5864         0.327314   
     34. A(H   2,C   0,H   3)          108.2173         0.290351   
     35. A(H   2,C   0,C   4)          109.7057         0.326739   
     36. A(H   1,C   0,C   4)          113.9672         0.327621   
     37. A(O   5,C   4,N   6)          121.5562         0.460530   
     38. A(C   0,C   4,O   5)          118.9816         0.430808   
     39. A(C   0,C   4,N   6)          119.4553         0.394850   
     40. A(C   7,N   6,C  21)          114.3312         0.371227   
     41. A(C   4,N   6,C  21)          128.1770         0.393415   
     42. A(C   4,N   6,C   7)          117.3427         0.397215   
     43. A(H   8,C   7,C  10)          105.3690         0.324193   
     44. A(N   6,C   7,C  10)          111.4336         0.370028   
     45. A(H   8,C   7,H   9)          108.8219         0.290037   
     46. A(N   6,C   7,H   9)          108.0019         0.329216   
     47. A(N   6,C   7,H   8)          109.7288         0.328144   
     48. A(H   9,C   7,C  10)          113.4160         0.325247   
     49. A(N  11,C  10,O  12)          122.7089         0.463065   
     50. A(C   7,C  10,O  12)          119.2791         0.427753   
     51. A(C   7,C  10,N  11)          117.9967         0.394195   
     52. A(C  13,N  11,C  17)          115.4292         0.380220   
     53. A(C  10,N  11,C  17)          118.6452         0.402110   
     54. A(C  10,N  11,C  13)          125.5133         0.402448   
     55. A(H  15,C  13,H  16)          108.7288         0.290269   
     56. A(H  14,C  13,H  16)          108.6040         0.289895   
     57. A(N  11,C  13,H  16)          111.9503         0.332012   
     58. A(H  14,C  13,H  15)          108.1331         0.288608   
     59. A(N  11,C  13,H  15)          108.9330         0.330456   
     60. A(N  11,C  13,H  14)          110.4027         0.330007   
     61. A(H  18,C  17,H  19)          109.6873         0.290171   
     62. A(N  11,C  17,H  19)          108.3878         0.331755   
     63. A(N  11,C  17,H  18)          110.4744         0.330072   
     64. A(H  19,C  17,H  20)          110.0309         0.290334   
     65. A(H  18,C  17,H  20)          108.6270         0.288939   
     66. A(N  11,C  17,H  20)          109.6284         0.330269   
     67. A(C  23,C  21,H  24)          106.1468         0.323796   
     68. A(C  22,C  21,H  24)          106.4274         0.323919   
     69. A(N   6,C  21,H  24)          103.0689         0.325386   
     70. A(C  22,C  21,C  23)          113.3359         0.364153   
     71. A(N   6,C  21,C  23)          112.5051         0.365872   
     72. A(N   6,C  21,C  22)          114.2560         0.366017   
     73. A(H  26,C  22,H  27)          107.4990         0.290035   
     74. A(H  25,C  22,H  27)          108.8476         0.290247   
     75. A(C  21,C  22,H  27)          112.9632         0.324673   
     76. A(H  25,C  22,H  26)          108.0801         0.289532   
     77. A(C  21,C  22,H  26)          108.7452         0.323836   
     78. A(C  21,C  22,H  25)          110.5491         0.324083   
     79. A(H  29,C  23,H  30)          107.8101         0.289652   
     80. A(H  28,C  23,H  30)          108.3018         0.289595   
     81. A(C  21,C  23,H  30)          109.5623         0.323686   
     82. A(H  28,C  23,H  29)          108.5685         0.289972   
     83. A(C  21,C  23,H  29)          112.3581         0.324128   
     84. A(C  21,C  23,H  28)          110.1301         0.324060   
     85. D(N   6,C   4,C   0,H   1)     36.8666         0.011596   
     86. D(N   6,C   4,C   0,H   3)    157.9026         0.011596   
     87. D(N   6,C   4,C   0,H   2)    -85.1504         0.011596   
     88. D(O   5,C   4,C   0,H   1)   -144.0682         0.011596   
     89. D(O   5,C   4,C   0,H   3)    -23.0322         0.011596   
     90. D(O   5,C   4,C   0,H   2)     93.9148         0.011596   
     91. D(C   7,N   6,C   4,O   5)     -3.1816         0.028211   
     92. D(C   7,N   6,C   4,C   0)    175.8588         0.028211   
     93. D(C  21,N   6,C   4,O   5)   -178.4583         0.028211   
     94. D(C  21,N   6,C   4,C   0)      0.5820         0.028211   
     95. D(C  10,C   7,N   6,C   4)    125.7005         0.015322   
     96. D(H   8,C   7,N   6,C  21)     57.9392         0.015322   
     97. D(H   9,C   7,N   6,C   4)      0.4976         0.015322   
     98. D(H   9,C   7,N   6,C  21)    176.4239         0.015322   
     99. D(H   8,C   7,N   6,C   4)   -117.9871         0.015322   
    100. D(C  10,C   7,N   6,C  21)    -58.3732         0.015322   
    101. D(O  12,C  10,C   7,H   9)   -133.7127         0.010760   
    102. D(O  12,C  10,C   7,H   8)    -14.7882         0.010760   
    103. D(O  12,C  10,C   7,N   6)    104.1590         0.010760   
    104. D(N  11,C  10,C   7,H   8)    166.5947         0.010760   
    105. D(N  11,C  10,C   7,N   6)    -74.4582         0.010760   
    106. D(N  11,C  10,C   7,H   9)     47.6701         0.010760   
    107. D(C  17,N  11,C  10,C   7)    175.8274         0.030093   
    108. D(C  13,N  11,C  10,O  12)   -175.0111         0.030093   
    109. D(C  13,N  11,C  10,C   7)      3.5554         0.030093   
    110. D(C  17,N  11,C  10,O  12)     -2.7391         0.030093   
    111. D(H  16,C  13,N  11,C  10)    -13.9136         0.016744   
    112. D(H  15,C  13,N  11,C  10)   -134.1938         0.016744   
    113. D(H  14,C  13,N  11,C  17)    -65.2817         0.016744   
    114. D(H  15,C  13,N  11,C  17)     53.3146         0.016744   
    115. D(H  14,C  13,N  11,C  10)    107.2099         0.016744   
    116. D(H  16,C  13,N  11,C  17)    173.5948         0.016744   
    117. D(H  20,C  17,N  11,C  13)    -57.9027         0.016584   
    118. D(H  20,C  17,N  11,C  10)    129.0586         0.016584   
    119. D(H  19,C  17,N  11,C  13)   -178.0205         0.016584   
    120. D(H  19,C  17,N  11,C  10)      8.9408         0.016584   
    121. D(H  18,C  17,N  11,C  13)     61.7763         0.016584   
    122. D(H  18,C  17,N  11,C  10)   -111.2625         0.016584   
    123. D(H  24,C  21,N   6,C   7)     -5.9743         0.013749   
    124. D(H  24,C  21,N   6,C   4)    169.4215         0.013749   
    125. D(C  23,C  21,N   6,C   7)    107.9298         0.013749   
    126. D(C  23,C  21,N   6,C   4)    -76.6745         0.013749   
    127. D(C  22,C  21,N   6,C   7)   -121.0003         0.013749   
    128. D(C  22,C  21,N   6,C   4)     54.3955         0.013749   
    129. D(H  27,C  22,C  21,H  24)    169.7608         0.011305   
    130. D(H  27,C  22,C  21,C  23)     53.4678         0.011305   
    131. D(H  27,C  22,C  21,N   6)    -77.1961         0.011305   
    132. D(H  26,C  22,C  21,H  24)     50.5087         0.011305   
    133. D(H  26,C  22,C  21,C  23)    -65.7842         0.011305   
    134. D(H  26,C  22,C  21,N   6)    163.5519         0.011305   
    135. D(H  25,C  22,C  21,H  24)    -67.9948         0.011305   
    136. D(H  25,C  22,C  21,C  23)    175.7122         0.011305   
    137. D(H  25,C  22,C  21,N   6)     45.0484         0.011305   
    138. D(H  30,C  23,C  21,H  24)    -59.0568         0.011255   
    139. D(H  30,C  23,C  21,C  22)     57.4014         0.011255   
    140. D(H  30,C  23,C  21,N   6)   -171.0668         0.011255   
    141. D(H  29,C  23,C  21,H  24)   -178.8680         0.011255   
    142. D(H  29,C  23,C  21,C  22)    -62.4097         0.011255   
    143. D(H  29,C  23,C  21,N   6)     69.1220         0.011255   
    144. D(H  28,C  23,C  21,H  24)     59.9680         0.011255   
    145. D(H  28,C  23,C  21,C  22)    176.4262         0.011255   
    146. D(H  28,C  23,C  21,N   6)    -52.0420         0.011255   
    -----------------------------------------------------------------

Number of atoms                         .... 31
Number of degrees of freedom            .... 146

         *************************************************************
         *                GEOMETRY OPTIMIZATION CYCLE   1            *
         *************************************************************
---------------------------------
CARTESIAN COORDINATES (ANGSTROEM)
---------------------------------
  C     -2.780000    1.154000    0.718000
  H     -2.687000    0.462000    1.553000
  H     -3.657000    0.874000    0.129000
  H     -2.932000    2.165000    1.096000
  C     -1.559000    1.206000   -0.177000
  O     -1.228000    2.291000   -0.680000
  N     -0.856000    0.052000   -0.429000
  C      0.261000    0.137000   -1.374000
  H      0.065000   -0.508000   -2.237000
  H      0.335000    1.169000   -1.716000
  C      1.553000   -0.392000   -0.759000
  N      2.189000    0.387000    0.166000
  O      1.970000   -1.512000   -1.093000
  C      1.703000    1.658000    0.677000
  H      1.349000    1.545000    1.710000
  H      2.527000    2.380000    0.676000
  H      0.890000    2.055000    0.073000
  C      3.371000   -0.142000    0.829000
  H      3.163000   -0.334000    1.888000
  H      3.654000   -1.070000    0.337000
  H      4.188000    0.584000    0.759000
  C     -1.136000   -1.316000    0.063000
  C     -2.549000   -1.814000   -0.237000
  C     -0.723000   -1.509000    1.522000
  H     -0.457000   -1.936000   -0.530000
  H     -2.825000   -1.586000   -1.270000
  H     -2.573000   -2.901000   -0.111000
  H     -3.300000   -1.390000    0.430000
  H      0.314000   -1.195000    1.664000
  H     -1.355000   -0.944000    2.211000
  H     -0.801000   -2.568000    1.788000

----------------------------
CARTESIAN COORDINATES (A.U.)
----------------------------
  NO LB      ZA    FRAG     MASS         X           Y           Z
   0 C     6.0000    0    12.011   -5.253439    2.180744    1.356823
   1 H     1.0000    0     1.008   -5.077694    0.873053    2.934745
   2 H     1.0000    0     1.008   -6.910728    1.651621    0.243775
   3 H     1.0000    0     1.008   -5.540677    4.091257    2.071140
   4 C     6.0000    0    12.011   -2.946083    2.279010   -0.334482
   5 O     8.0000    0    15.999   -2.320584    4.329363   -1.285014
   6 N     7.0000    0    14.007   -1.617606    0.098266   -0.810693
   7 C     6.0000    0    12.011    0.493219    0.258892   -2.596484
   8 H     1.0000    0     1.008    0.122832   -0.959981   -4.227317
   9 H     1.0000    0     1.008    0.633058    2.209090   -3.242770
  10 C     6.0000    0    12.011    2.934745   -0.740773   -1.434302
  11 N     7.0000    0    14.007    4.136611    0.731324    0.313695
  12 O     8.0000    0    15.999    3.722760   -2.857266   -2.065471
  13 C     6.0000    0    12.011    3.218204    3.133166    1.279345
  14 H     1.0000    0     1.008    2.549241    2.919627    3.231432
  15 H     1.0000    0     1.008    4.775338    4.497548    1.277455
  16 H     1.0000    0     1.008    1.681856    3.883387    0.137950
  17 C     6.0000    0    12.011    6.370267   -0.268341    1.566583
  18 H     1.0000    0     1.008    5.977204   -0.631169    3.567803
  19 H     1.0000    0     1.008    6.905059   -2.022007    0.636838
  20 H     1.0000    0     1.008    7.914173    1.103600    1.434302
  21 C     6.0000    0    12.011   -2.146729   -2.486880    0.119053
  22 C     6.0000    0    12.011   -4.816912   -3.427963   -0.447865
  23 C     6.0000    0    12.011   -1.366272   -2.851597    2.876163
  24 H     1.0000    0     1.008   -0.863605   -3.658510   -1.001555
  25 H     1.0000    0     1.008   -5.338476   -2.997106   -2.399952
  26 H     1.0000    0     1.008   -4.862265   -5.482096   -0.209760
  27 H     1.0000    0     1.008   -6.236096   -2.626719    0.812582
  28 H     1.0000    0     1.008    0.593374   -2.258223    3.144504
  29 H     1.0000    0     1.008   -2.560579   -1.783901    4.178184
  30 H     1.0000    0     1.008   -1.513671   -4.852817    3.378830

--------------------------------
INTERNAL COORDINATES (ANGSTROEM)
--------------------------------
 C      0   0   0     0.000000000000     0.00000000     0.00000000
 H      1   0   0     1.088456705616     0.00000000     0.00000000
 H      1   2   0     1.092908962357   108.60950750     0.00000000
 H      1   2   3     1.090004128433   109.60670415   118.04192813
 C      1   2   3     1.514783812958   113.96721980   237.38103934
 O      5   1   2     1.240884764996   118.98162988   215.93176058
 N      5   1   2     1.374565022107   119.45530467    36.86656155
 C      7   5   1     1.465584866188   117.34265140   175.85878079
 H      8   7   5     1.095084471628   109.72884367   242.01292889
 H      8   7   5     1.089708217827   108.00186191     0.49760453
 C      8   7   5     1.525558913972   111.43356432   125.70049140
 N     11   8   7     1.366368178786   117.99670614   285.54184488
 O     11   8   7     1.240904911748   119.27907531   104.15902273
 C     12  11   8     1.453532937363   125.51333985     3.55538779
 H     14  12  11     1.097804171972   110.40266225   107.20991479
 H     14  12  11     1.095564238190   108.93302747   225.80620153
 H     14  12  11     1.087839142521   111.95034826   346.08641503
 C     12  11   8     1.454831261693   118.64516594   175.82739310
 H     18  12  11     1.096179273659   110.47444589   248.73754853
 H     18  12  11     1.087812943479   108.38782139     8.94078399
 H     18  12  11     1.095200894813   109.62840635   129.05858938
 C      7   5   1     1.480502617357   128.17699514     0.58201274
 C     22   7   5     1.527930953937   114.25595920    54.39545223
 C     22   7   5     1.528561088083   112.50505850   283.32551390
 H     22   7   5     1.094116081593   103.06894264   169.42148999
 H     23  22   7     1.093274439471   110.54910725    45.04835570
 H     23  22   7     1.094541456501   108.74521905   163.55186968
 H     23  22   7     1.090259602113   112.96319739   282.80393457
 H     24  22   7     1.092762096707   110.13009268   307.95797950
 H     24  22   7     1.092414756400   112.35807032    69.12200954
 H     24  22   7     1.094678491613   109.56226139   188.93317097

---------------------------
INTERNAL COORDINATES (A.U.)
---------------------------
 C      0   0   0     0.000000000000     0.00000000     0.00000000
 H      1   0   0     2.056885082244     0.00000000     0.00000000
 H      1   2   0     2.065298628163   108.60950750     0.00000000
 H      1   2   3     2.059809287581   109.60670415   118.04192813
 C      1   2   3     2.862526558588   113.96721980   237.38103934
 O      5   1   2     2.344932369598   118.98162988   215.93176058
 N      5   1   2     2.597551445050   119.45530467    36.86656155
 C      7   5   1     2.769554023115   117.34265140   175.85878079
 H      8   7   5     2.069409744886   109.72884367   242.01292889
 H      8   7   5     2.059250097577   108.00186191     0.49760453
 C      8   7   5     2.882888548570   111.43356432   125.70049140
 N     11   8   7     2.582061656011   117.99670614   285.54184488
 O     11   8   7     2.344970441441   119.27907531   104.15902273
 C     12  11   8     2.746779178251   125.51333985     3.55538779
 H     14  12  11     2.074549233704   110.40266225   107.20991479
 H     14  12  11     2.070316372296   108.93302747   225.80620153
 H     14  12  11     2.055718057124   111.95034826   346.08641503
 C     12  11   8     2.749232655667   118.64516594   175.82739310
 H     18  12  11     2.071478620897   110.47444589   248.73754853
 H     18  12  11     2.055668548110   108.38782139     8.94078399
 H     18  12  11     2.069629752823   109.62840635   129.05858938
 C      7   5   1     2.797744487358   128.17699514     0.58201274
 C     22   7   5     2.887371054483   114.25595920    54.39545223
 C     22   7   5     2.888561835445   112.50505850   283.32551390
 H     22   7   5     2.067579752929   103.06894264   169.42148999
 H     23  22   7     2.065989279816   110.54910725    45.04835570
 H     23  22   7     2.068383595011   108.74521905   163.55186968
 H     23  22   7     2.060292062872   112.96319739   282.80393457
 H     24  22   7     2.065021092306   110.13009268   307.95797950
 H     24  22   7     2.064364714250   112.35807032    69.12200954
 H     24  22   7     2.068642553842   109.56226139   188.93317097

---------------------
BASIS SET INFORMATION
---------------------
There are 4 groups of distinct atoms

 Group   1 Type C   : 10s4p1d contracted to 3s2p1d pattern {631/31/1}
 Group   2 Type H   : 4s contracted to 2s pattern {31}
 Group   3 Type O   : 10s4p1d contracted to 3s2p1d pattern {631/31/1}
 Group   4 Type N   : 10s4p1d contracted to 3s2p1d pattern {631/31/1}

Atom   0C    basis set group =>   1
Atom   1H    basis set group =>   2
Atom   2H    basis set group =>   2
Atom   3H    basis set group =>   2
Atom   4C    basis set group =>   1
Atom   5O    basis set group =>   3
Atom   6N    basis set group =>   4
Atom   7C    basis set group =>   1
Atom   8H    basis set group =>   2
Atom   9H    basis set group =>   2
Atom  10C    basis set group =>   1
Atom  11N    basis set group =>   4
Atom  12O    basis set group =>   3
Atom  13C    basis set group =>   1
Atom  14H    basis set group =>   2
Atom  15H    basis set group =>   2
Atom  16H    basis set group =>   2
Atom  17C    basis set group =>   1
Atom  18H    basis set group =>   2
Atom  19H    basis set group =>   2
Atom  20H    basis set group =>   2
Atom  21C    basis set group =>   1
Atom  22C    basis set group =>   1
Atom  23C    basis set group =>   1
Atom  24H    basis set group =>   2
Atom  25H    basis set group =>   2
Atom  26H    basis set group =>   2
Atom  27H    basis set group =>   2
Atom  28H    basis set group =>   2
Atom  29H    basis set group =>   2
Atom  30H    basis set group =>   2
---------------------------------
AUXILIARY/J BASIS SET INFORMATION
---------------------------------
There are 4 groups of distinct atoms

 Group   1 Type C   : 13s11p10d2f contracted to 13s11p10d2f pattern {1111111111111/11111111111/1111111111/11}
 Group   2 Type H   : 9s2p contracted to 9s2p pattern {111111111/11}
 Group   3 Type O   : 14s11p10d2f contracted to 14s11p10d2f pattern {11111111111111/11111111111/1111111111/11}
 Group   4 Type N   : 14s11p10d2f contracted to 14s11p10d2f pattern {11111111111111/11111111111/1111111111/11}

Atom   0C    basis set group =>   1
Atom   1H    basis set group =>   2
Atom   2H    basis set group =>   2
Atom   3H    basis set group =>   2
Atom   4C    basis set group =>   1
Atom   5O    basis set group =>   3
Atom   6N    basis set group =>   4
Atom   7C    basis set group =>   1
Atom   8H    basis set group =>   2
Atom   9H    basis set group =>   2
Atom  10C    basis set group =>   1
Atom  11N    basis set group =>   4
Atom  12O    basis set group =>   3
Atom  13C    basis set group =>   1
Atom  14H    basis set group =>   2
Atom  15H    basis set group =>   2
Atom  16H    basis set group =>   2
Atom  17C    basis set group =>   1
Atom  18H    basis set group =>   2
Atom  19H    basis set group =>   2
Atom  20H    basis set group =>   2
Atom  21C    basis set group =>   1
Atom  22C    basis set group =>   1
Atom  23C    basis set group =>   1
Atom  24H    basis set group =>   2
Atom  25H    basis set group =>   2
Atom  26H    basis set group =>   2
Atom  27H    basis set group =>   2
Atom  28H    basis set group =>   2
Atom  29H    basis set group =>   2
Atom  30H    basis set group =>   2
---------------------------------
AUXILIARY/C BASIS SET INFORMATION
---------------------------------
There are 4 groups of distinct atoms

 Group   1 Type C   : 13s11p10d2f contracted to 13s11p10d2f pattern {1111111111111/11111111111/1111111111/11}
 Group   2 Type H   : 9s2p contracted to 9s2p pattern {111111111/11}
 Group   3 Type O   : 14s11p10d2f contracted to 14s11p10d2f pattern {11111111111111/11111111111/1111111111/11}
 Group   4 Type N   : 14s11p10d2f contracted to 14s11p10d2f pattern {11111111111111/11111111111/1111111111/11}

Atom   0C    basis set group =>   1
Atom   1H    basis set group =>   2
Atom   2H    basis set group =>   2
Atom   3H    basis set group =>   2
Atom   4C    basis set group =>   1
Atom   5O    basis set group =>   3
Atom   6N    basis set group =>   4
Atom   7C    basis set group =>   1
Atom   8H    basis set group =>   2
Atom   9H    basis set group =>   2
Atom  10C    basis set group =>   1
Atom  11N    basis set group =>   4
Atom  12O    basis set group =>   3
Atom  13C    basis set group =>   1
Atom  14H    basis set group =>   2
Atom  15H    basis set group =>   2
Atom  16H    basis set group =>   2
Atom  17C    basis set group =>   1
Atom  18H    basis set group =>   2
Atom  19H    basis set group =>   2
Atom  20H    basis set group =>   2
Atom  21C    basis set group =>   1
Atom  22C    basis set group =>   1
Atom  23C    basis set group =>   1
Atom  24H    basis set group =>   2
Atom  25H    basis set group =>   2
Atom  26H    basis set group =>   2
Atom  27H    basis set group =>   2
Atom  28H    basis set group =>   2
Atom  29H    basis set group =>   2
Atom  30H    basis set group =>   2
----------------------------------
AUXILIARY/JK BASIS SET INFORMATION
----------------------------------
There are 4 groups of distinct atoms

 Group   1 Type C   : 13s11p10d2f contracted to 13s11p10d2f pattern {1111111111111/11111111111/1111111111/11}
 Group   2 Type H   : 9s2p contracted to 9s2p pattern {111111111/11}
 Group   3 Type O   : 14s11p10d2f contracted to 14s11p10d2f pattern {11111111111111/11111111111/1111111111/11}
 Group   4 Type N   : 14s11p10d2f contracted to 14s11p10d2f pattern {11111111111111/11111111111/1111111111/11}

Atom   0C    basis set group =>   1
Atom   1H    basis set group =>   2
Atom   2H    basis set group =>   2
Atom   3H    basis set group =>   2
Atom   4C    basis set group =>   1
Atom   5O    basis set group =>   3
Atom   6N    basis set group =>   4
Atom   7C    basis set group =>   1
Atom   8H    basis set group =>   2
Atom   9H    basis set group =>   2
Atom  10C    basis set group =>   1
Atom  11N    basis set group =>   4
Atom  12O    basis set group =>   3
Atom  13C    basis set group =>   1
Atom  14H    basis set group =>   2
Atom  15H    basis set group =>   2
Atom  16H    basis set group =>   2
Atom  17C    basis set group =>   1
Atom  18H    basis set group =>   2
Atom  19H    basis set group =>   2
Atom  20H    basis set group =>   2
Atom  21C    basis set group =>   1
Atom  22C    basis set group =>   1
Atom  23C    basis set group =>   1
Atom  24H    basis set group =>   2
Atom  25H    basis set group =>   2
Atom  26H    basis set group =>   2
Atom  27H    basis set group =>   2
Atom  28H    basis set group =>   2
Atom  29H    basis set group =>   2
Atom  30H    basis set group =>   2


           ************************************************************
           *        Program running with 4 parallel MPI-processes     *
           *              working on a common directory               *
           ************************************************************
------------------------------------------------------------------------------
                           ORCA GTO INTEGRAL CALCULATION
                           -- RI-GTO INTEGRALS CHOSEN --
------------------------------------------------------------------------------
------------------------------------------------------------------------------
                   ___                                                        
                  /   \      - P O W E R E D   B Y -                         
                 /     \                                                     
                 |  |  |   _    _      __       _____    __    __             
                 |  |  |  | |  | |    /  \     |  _  \  |  |  /  |          
                  \  \/   | |  | |   /    \    | | | |  |  | /  /          
                 / \  \   | |__| |  /  /\  \   | |_| |  |  |/  /          
                |  |  |   |  __  | /  /__\  \  |    /   |      \           
                |  |  |   | |  | | |   __   |  |    \   |  |\   \          
                \     /   | |  | | |  |  |  |  | |\  \  |  | \   \       
                 \___/    |_|  |_| |__|  |__|  |_| \__\ |__|  \__/        
                                                                              
                      - O R C A' S   B I G   F R I E N D -                    
                                      &                                       
                       - I N T E G R A L  F E E D E R -                       
                                                                              
 v1 FN, 2020, v2 2021                                                         
------------------------------------------------------------------------------


Reading SHARK input file Nv_water.SHARKINP.tmp ... ok
----------------------
SHARK INTEGRAL PACKAGE
----------------------

Number of atoms                             ...     31
Number of basis functions                   ...    218
Number of shells                            ...    114
Maximum angular momentum                    ...      2
Integral batch strategy                     ... SHARK/LIBINT Hybrid
RI-J (if used) integral strategy            ... SPLIT-RIJ (Revised 2003 algorithm where possible)
Printlevel                                  ...      1
Contraction scheme used                     ... SEGMENTED contraction
Coulomb Range Separation                    ... NOT USED
Exchange Range Separation                   ... NOT USED
Finite Nucleus Model                        ... NOT USED
Auxiliary Coulomb fitting basis             ... AVAILABLE
   # of basis functions in Aux-J            ...   1704
   # of shells in Aux-J                     ...    670
   Maximum angular momentum in Aux-J        ...      3
Auxiliary J/K fitting basis                 ... AVAILABLE
   # of basis functions in Aux-JK           ...   1704
   # of shells in Aux-JK                    ...    670
   Maximum angular momentum in Aux-JK       ...      3
Auxiliary Correlation fitting basis         ... AVAILABLE
   # of basis functions in Aux-C            ...   1704
   # of shells in Aux-C                     ...    670
   Maximum angular momentum in Aux-C        ...      3
Auxiliary 'external' fitting basis          ... NOT available
Integral threshold                          ...     2.500000e-11
Primitive cut-off                           ...     2.500000e-12
Primitive pair pre-selection threshold      ...     2.500000e-12

Calculating pre-screening integrals         ... done (  0.0 sec) Dimension = 114
Organizing shell pair data                  ... done (  0.0 sec)
Shell pair information
Total number of shell pairs                 ...      6555
Shell pairs after pre-screening             ...      5891
Total number of primitive shell pairs       ...     36105
Primitive shell pairs kept                  ...     19475
          la=0 lb=0:   2476 shell pairs
          la=1 lb=0:   1830 shell pairs
          la=1 lb=1:    344 shell pairs
          la=2 lb=0:    839 shell pairs
          la=2 lb=1:    321 shell pairs
          la=2 lb=2:     81 shell pairs

Calculating one electron integrals          ... done (  0.0 sec)
Calculating RI/J V-Matrix + Cholesky decomp.... done (  0.2 sec)
Calculating RI/JK V-Matrix + Cholesky decomp... done (  0.2 sec)
Calculating RI/C V-Matrix + Cholesky decomp.... done (  0.2 sec)
Calculating Nuclear repulsion               ... done (  0.0 sec) ENN=    898.637822265924 Eh

SHARK setup successfully completed in   0.8 seconds

Maximum memory used throughout the entire GTOINT-calculation: 27.1 MB


           ************************************************************
           *        Program running with 4 parallel MPI-processes     *
           *              working on a common directory               *
           ************************************************************
-------------------------------------------------------------------------------
                                 ORCA SCF
-------------------------------------------------------------------------------

------------
SCF SETTINGS
------------
Hamiltonian:
 Density Functional     Method          .... DFT(GTOs)
 Exchange Functional    Exchange        .... B88
   X-Alpha parameter    XAlpha          ....  0.666667
   Becke's b parameter  XBeta           ....  0.004200
 Correlation Functional Correlation     .... LYP
 LDA part of GGA corr.  LDAOpt          .... VWN-5
 Gradients option       PostSCFGGA      .... off
 Hybrid DFT is turned on
   Fraction HF Exchange ScalHFX         ....  0.200000
   Scaling of DF-GGA-X  ScalDFX         ....  0.720000
   Scaling of DF-GGA-C  ScalDFC         ....  0.810000
   Scaling of DF-LDA-C  ScalLDAC        ....  1.000000
   Perturbative correction              ....  0.000000
   Density functional embedding theory  .... OFF
   NL short-range parameter             ....  4.800000
 RI-approximation to the Coulomb term is turned on
   Number of AuxJ basis functions       .... 1704
   RIJ-COSX (HFX calculated with COS-X)).... on


General Settings:
 Integral files         IntName         .... Nv_water
 Hartree-Fock type      HFTyp           .... RHF
 Total Charge           Charge          ....    0
 Multiplicity           Mult            ....    1
 Number of Electrons    NEL             ....  102
 Basis Dimension        Dim             ....  218
 Nuclear Repulsion      ENuc            ....    898.6378222659 Eh

Convergence Acceleration:
 DIIS                   CNVDIIS         .... on
   Start iteration      DIISMaxIt       ....    12
   Startup error        DIISStart       ....  0.200000
   # of expansion vecs  DIISMaxEq       ....     5
   Bias factor          DIISBfac        ....   1.050
   Max. coefficient     DIISMaxC        ....  10.000
 Trust-Rad. Augm. Hess. CNVTRAH         .... auto
   Auto Start mean grad. ratio tolernc. ....  1.125000
   Auto Start start iteration           ....    20
   Auto Start num. interpolation iter.  ....    10
   Max. Number of Micro iterations      ....    16
   Max. Number of Macro iterations      .... Maxiter - #DIIS iter
   Number of Davidson start vectors     ....     2
   Converg. threshold I  (grad. norm)   ....   1.000e-05
   Converg. threshold II (energy diff.) ....   1.000e-08
   Grad. Scal. Fac. for Micro threshold ....   0.100
   Minimum threshold for Micro iter.    ....   0.010
   NR start threshold (gradient norm)   ....   0.001
   Initial trust radius                 ....   0.400
   Minimum AH scaling param. (alpha)    ....   1.000
   Maximum AH scaling param. (alpha)    .... 1000.000
   Orbital update algorithm             .... Taylor
   White noise on init. David. guess    .... on
   Maximum white noise                  ....   0.010
   Quad. conv. algorithm                .... NR
 SOSCF                  CNVSOSCF        .... on
   Start iteration      SOSCFMaxIt      ....   150
   Startup grad/error   SOSCFStart      ....  0.003300
 Level Shifting         CNVShift        .... on
   Level shift para.    LevelShift      ....    0.2500
   Turn off err/grad.   ShiftErr        ....    0.0010
 Zerner damping         CNVZerner       .... off
 Static damping         CNVDamp         .... on
   Fraction old density DampFac         ....    0.7000
   Max. Damping (<1)    DampMax         ....    0.9800
   Min. Damping (>=0)   DampMin         ....    0.0000
   Turn off err/grad.   DampErr         ....    0.1000
 Fernandez-Rico         CNVRico         .... off

SCF Procedure:
 Maximum # iterations   MaxIter         ....   125
 SCF integral mode      SCFMode         .... Direct
   Integral package                     .... SHARK and LIBINT hybrid scheme
 Reset frequency        DirectResetFreq ....    20
 Integral Threshold     Thresh          ....  2.500e-11 Eh
 Primitive CutOff       TCut            ....  2.500e-12 Eh

Convergence Tolerance:
 Convergence Check Mode ConvCheckMode   .... Total+1el-Energy
 Convergence forced     ConvForced      .... 0
 Energy Change          TolE            ....  1.000e-08 Eh
 1-El. energy change                    ....  1.000e-05 Eh
 Orbital Gradient       TolG            ....  1.000e-05
 Orbital Rotation angle TolX            ....  1.000e-05
 DIIS Error             TolErr          ....  5.000e-07


Diagonalization of the overlap matrix:
Smallest eigenvalue                        ... 3.192e-03
Time for diagonalization                   ...    0.008 sec
Threshold for overlap eigenvalues          ... 1.000e-08
Number of eigenvalues below threshold      ... 0
Time for construction of square roots      ...    0.004 sec
Total time needed                          ...    0.012 sec

Time for model grid setup =    0.327 sec

------------------------------
INITIAL GUESS: MODEL POTENTIAL
------------------------------
Loading Hartree-Fock densities                     ... done
Calculating cut-offs                               ... done
Initializing the effective Hamiltonian             ... done
Setting up the integral package (SHARK)            ... done
Starting the Coulomb interaction                   ... done (   0.7 sec)
Reading the grid                                   ... done
Mapping shells                                     ... done
Starting the XC term evaluation                    ... done (   0.1 sec)
  promolecular density results
     # of electrons  =    101.995071084
     EX              =    -81.187667242
     EC              =     -3.420640173
     EX+EC           =    -84.608307416
Transforming the Hamiltonian                       ... done (   0.0 sec)
Diagonalizing the Hamiltonian                      ... done (   0.0 sec)
Back transforming the eigenvectors                 ... done (   0.0 sec)
Now organizing SCF variables                       ... done
                      ------------------
                      INITIAL GUESS DONE (   1.2 sec)
                      ------------------
-------------------
DFT GRID GENERATION
-------------------

General Integration Accuracy     IntAcc      ... 4.388
Radial Grid Type                 RadialGrid  ... OptM3 with GC (2021)
Angular Grid (max. ang.)         AngularGrid ... 4 (Lebedev-302)
Angular grid pruning method      GridPruning ... 4 (adaptive)
Weight generation scheme         WeightScheme... Becke
Basis function cutoff            BFCut       ... 1.0000e-11
Integration weight cutoff        WCut        ... 1.0000e-14
Angular grids for H and He will be reduced by one unit
Partially contracted basis set               ... off
Rotationally invariant grid construction     ... off

Total number of grid points                  ...   134871
Total number of batches                      ...     2125
Average number of points per batch           ...       63
Average number of grid points per atom       ...     4351
Time for grid setup =    1.038 sec

--------------------
COSX GRID GENERATION
--------------------

GRIDX 1
-------
General Integration Accuracy     IntAcc      ... 3.816
Radial Grid Type                 RadialGrid  ... OptM3 with GC (2021)
Angular Grid (max. ang.)         AngularGrid ... 1 (Lebedev-50)
Angular grid pruning method      GridPruning ... 4 (adaptive)
Weight generation scheme         WeightScheme... Becke
Basis function cutoff            BFCut       ... 1.0000e-11
Integration weight cutoff        WCut        ... 1.0000e-14
Angular grids for H and He will be reduced by one unit
Partially contracted basis set               ... on
Rotationally invariant grid construction     ... off

Total number of grid points                  ...    17168
Total number of batches                      ...      287
Average number of points per batch           ...       59
Average number of grid points per atom       ...      554
UseSFitting                                  ... on

GRIDX 2
-------
General Integration Accuracy     IntAcc      ... 4.020
Radial Grid Type                 RadialGrid  ... OptM3 with GC (2021)
Angular Grid (max. ang.)         AngularGrid ... 2 (Lebedev-110)
Angular grid pruning method      GridPruning ... 4 (adaptive)
Weight generation scheme         WeightScheme... Becke
Basis function cutoff            BFCut       ... 1.0000e-11
Integration weight cutoff        WCut        ... 1.0000e-14
Angular grids for H and He will be reduced by one unit
Partially contracted basis set               ... on
Rotationally invariant grid construction     ... off

Total number of grid points                  ...    36081
Total number of batches                      ...      580
Average number of points per batch           ...       62
Average number of grid points per atom       ...     1164
UseSFitting                                  ... on

GRIDX 3
-------
General Integration Accuracy     IntAcc      ... 4.338
Radial Grid Type                 RadialGrid  ... OptM3 with GC (2021)
Angular Grid (max. ang.)         AngularGrid ... 3 (Lebedev-194)
Angular grid pruning method      GridPruning ... 4 (adaptive)
Weight generation scheme         WeightScheme... Becke
Basis function cutoff            BFCut       ... 1.0000e-11
Integration weight cutoff        WCut        ... 1.0000e-14
Angular grids for H and He will be reduced by one unit
Partially contracted basis set               ... on
Rotationally invariant grid construction     ... off

Total number of grid points                  ...    78677
Total number of batches                      ...     1250
Average number of points per batch           ...       62
Average number of grid points per atom       ...     2538
UseSFitting                                  ... on

Time for X-Grid setup             =    2.092 sec


--------------------
CPCM SOLVATION MODEL
--------------------
CPCM parameters:
  Epsilon                                         ...      80.4000
  Refrac                                          ...       1.3300
  Rsolv                                           ...       1.3000
  Surface type                                    ... GAUSSIAN VDW
  Epsilon function type                           ...         CPCM
Radii:
 Radius for C  used is    3.8550 Bohr (=   2.0400 Ang.)
 Radius for H  used is    2.4944 Bohr (=   1.3200 Ang.)
 Radius for O  used is    3.4469 Bohr (=   1.8240 Ang.)
 Radius for N  used is    3.5149 Bohr (=   1.8600 Ang.)
Calculating surface                               ...        done! (  0.0s)
GEPOL surface points                              ...         1588
GEPOL Volume                                      ...    1633.0225
GEPOL Surface-area                                ...     863.8599
Calculating surface distance matrix               ...        done! (  0.0s)
Performing Cholesky decomposition & store         ...        done! (  0.1s)
Overall time for CPCM initialization              ...                 0.1s
--------------
SCF ITERATIONS
--------------
ITER       Energy         Delta-E        Max-DP      RMS-DP      [F,P]     Damp
               ***  Starting incremental Fock matrix formation  ***
  0   -612.9727654025   0.000000000000 0.09208799  0.00226304  0.2731042 0.7000
  1   -613.1717765707  -0.199011168194 0.05128146  0.00151065  0.1095559 0.7000
                               ***Turning on DIIS***
  2   -613.2481325800  -0.076356009348 0.06371779  0.00235239  0.0369973 0.0000
  3   -613.3690691254  -0.120936545352 0.03453385  0.00102297  0.0540407 0.0000
  4   -613.3949442430  -0.025875117621 0.00868593  0.00033869  0.0117990 0.0000
  5   -613.3966751914  -0.001730948453 0.00360356  0.00010290  0.0057771 0.0000
                      *** Initiating the SOSCF procedure ***
                           *** Shutting down DIIS ***
                      *** Re-Reading the Fockian *** 
                      *** Removing any level shift *** 
ITER      Energy       Delta-E        Grad      Rot      Max-DP    RMS-DP
  6   -613.39679247  -0.0001172783  0.000217  0.000217  0.001276  0.000045
               *** Restarting incremental Fock matrix formation ***
  7   -613.39690682  -0.0001143481  0.000233  0.000941  0.001496  0.000028
  8   -613.39690183   0.0000049925  0.000449  0.000667  0.000961  0.000018
  9   -613.39690971  -0.0000078896  0.000048  0.000131  0.000263  0.000006
 10   -613.39690945   0.0000002642  0.000097  0.000087  0.000189  0.000004
 11   -613.39690982  -0.0000003669  0.000004  0.000006  0.000019  0.000001
 12   -613.39690981   0.0000000037  0.000004  0.000003  0.000010  0.000000
                  ***Gradient check signals convergence***
              ***Rediagonalizing the Fockian in SOSCF/NRSCF***

               *****************************************************
               *                     SUCCESS                       *
               *           SCF CONVERGED AFTER  13 CYCLES          *
               *****************************************************

Old exchange energy                            =    -16.569532657 Eh
New exchange energy                            =    -16.569528481 Eh
Exchange energy change after final integration =      0.000004176 Eh
Total energy after final integration           =   -613.396905642 Eh
Final COS-X integration done in                =     8.239 sec

----------------
TOTAL SCF ENERGY
----------------

Total Energy       :         -613.39690564 Eh          -16691.37838 eV

Components:
Nuclear Repulsion  :          898.63782227 Eh           24453.17832 eV
Electronic Energy  :        -1512.03472791 Eh          -41144.55670 eV
One Electron Energy:        -2617.29848854 Eh          -71220.31264 eV
Two Electron Energy:         1105.26376063 Eh           30075.75595 eV
Max COSX asymmetry :            0.00000230 Eh               0.00006 eV
CPCM Dielectric    :           -0.01790173 Eh              -0.48713 eV

Virial components:
Potential Energy   :        -1223.19768834 Eh          -33284.90127 eV
Kinetic Energy     :          609.80078269 Eh           16593.52290 eV
Virial Ratio       :            2.00589721


DFT components:
N(Alpha)           :       50.999941149766 electrons
N(Beta)            :       50.999941149766 electrons
N(Total)           :      101.999882299533 electrons
E(X)               :      -65.776341319551 Eh       
E(C)               :       -4.032570339451 Eh       
E(XC)              :      -69.808911659002 Eh       
DFET-embed. en.    :        0.000000000000 Eh       
CPCM Solvation Model Properties:
Surface-charge          :           -0.02066531
Charge-correction       :           -0.00027432 Eh              -0.00746 eV
Free-energy (cav+disp)  :  This term is not implemented in the current solvation scheme

---------------
SCF CONVERGENCE
---------------

  Last Energy change         ...   -4.1072e-09  Tolerance :   1.0000e-08
  Last MAX-Density change    ...    5.7732e-15  Tolerance :   1.0000e-07
  Last RMS-Density change    ...    5.0654e-17  Tolerance :   5.0000e-09
  Last Orbital Gradient      ...    3.5774e-07  Tolerance :   1.0000e-05
  Last Orbital Rotation      ...    1.3347e-06  Tolerance :   1.0000e-05

             **** THE GBW FILE WAS UPDATED (Nv_water.gbw) ****
             **** DENSITY Nv_water.scfp WAS UPDATED ****
             **** ENERGY FILE WAS UPDATED (Nv_water.en.tmp) ****
             **** THE GBW FILE WAS UPDATED (Nv_water.gbw) ****
             **** DENSITY Nv_water.scfp WAS UPDATED ****
----------------
ORBITAL ENERGIES
----------------

  NO   OCC          E(Eh)            E(eV) 
   0   2.0000     -19.108276      -519.9626 
   1   2.0000     -19.108142      -519.9590 
   2   2.0000     -14.358445      -390.7131 
   3   2.0000     -14.357922      -390.6989 
   4   2.0000     -10.283299      -279.8228 
   5   2.0000     -10.279503      -279.7195 
   6   2.0000     -10.217092      -278.0212 
   7   2.0000     -10.208290      -277.7817 
   8   2.0000     -10.196785      -277.4686 
   9   2.0000     -10.193761      -277.3863 
  10   2.0000     -10.170437      -276.7517 
  11   2.0000     -10.162031      -276.5229 
  12   2.0000     -10.161725      -276.5146 
  13   2.0000      -1.031165       -28.0594 
  14   2.0000      -1.024222       -27.8705 
  15   2.0000      -0.931610       -25.3504 
  16   2.0000      -0.925313       -25.1790 
  17   2.0000      -0.780277       -21.2324 
  18   2.0000      -0.751568       -20.4512 
  19   2.0000      -0.717819       -19.5328 
  20   2.0000      -0.705432       -19.1958 
  21   2.0000      -0.685071       -18.6417 
  22   2.0000      -0.668347       -18.1866 
  23   2.0000      -0.621465       -16.9109 
  24   2.0000      -0.542993       -14.7756 
  25   2.0000      -0.524081       -14.2610 
  26   2.0000      -0.500817       -13.6279 
  27   2.0000      -0.490491       -13.3469 
  28   2.0000      -0.478141       -13.0109 
  29   2.0000      -0.461122       -12.5478 
  30   2.0000      -0.456389       -12.4190 
  31   2.0000      -0.447227       -12.1697 
  32   2.0000      -0.429996       -11.7008 
  33   2.0000      -0.419560       -11.4168 
  34   2.0000      -0.409733       -11.1494 
  35   2.0000      -0.407128       -11.0785 
  36   2.0000      -0.396078       -10.7778 
  37   2.0000      -0.393031       -10.6949 
  38   2.0000      -0.391612       -10.6563 
  39   2.0000      -0.389086       -10.5876 
  40   2.0000      -0.379610       -10.3297 
  41   2.0000      -0.373028       -10.1506 
  42   2.0000      -0.369501       -10.0546 
  43   2.0000      -0.350155        -9.5282 
  44   2.0000      -0.347741        -9.4625 
  45   2.0000      -0.339868        -9.2483 
  46   2.0000      -0.330310        -8.9882 
  47   2.0000      -0.257968        -7.0197 
  48   2.0000      -0.251413        -6.8413 
  49   2.0000      -0.237263        -6.4562 
  50   2.0000      -0.233575        -6.3559 
  51   0.0000       0.014337         0.3901 
  52   0.0000       0.028781         0.7832 
  53   0.0000       0.084452         2.2981 
  54   0.0000       0.106811         2.9065 
  55   0.0000       0.118187         3.2160 
  56   0.0000       0.135704         3.6927 
  57   0.0000       0.146150         3.9770 
  58   0.0000       0.150126         4.0851 
  59   0.0000       0.152329         4.1451 
  60   0.0000       0.160453         4.3662 
  61   0.0000       0.168512         4.5854 
  62   0.0000       0.172260         4.6874 
  63   0.0000       0.175509         4.7758 
  64   0.0000       0.179634         4.8881 
  65   0.0000       0.187573         5.1041 
  66   0.0000       0.192271         5.2320 
  67   0.0000       0.195564         5.3216 
  68   0.0000       0.198395         5.3986 
  69   0.0000       0.202637         5.5140 
  70   0.0000       0.209218         5.6931 
  71   0.0000       0.223997         6.0953 
  72   0.0000       0.226825         6.1722 
  73   0.0000       0.229686         6.2501 
  74   0.0000       0.246366         6.7040 
  75   0.0000       0.252877         6.8811 
  76   0.0000       0.266068         7.2401 
  77   0.0000       0.272855         7.4247 
  78   0.0000       0.302684         8.2365 
  79   0.0000       0.339379         9.2350 
  80   0.0000       0.366590         9.9754 
  81   0.0000       0.390394        10.6232 
  82   0.0000       0.423566        11.5258 
  83   0.0000       0.465967        12.6796 
  84   0.0000       0.495138        13.4734 
  85   0.0000       0.503333        13.6964 
  86   0.0000       0.508827        13.8459 
  87   0.0000       0.516422        14.0526 
  88   0.0000       0.525490        14.2993 
  89   0.0000       0.542661        14.7666 
  90   0.0000       0.555410        15.1135 
  91   0.0000       0.565424        15.3860 
  92   0.0000       0.592072        16.1111 
  93   0.0000       0.603796        16.4301 
  94   0.0000       0.617224        16.7955 
  95   0.0000       0.636199        17.3119 
  96   0.0000       0.640873        17.4390 
  97   0.0000       0.648603        17.6494 
  98   0.0000       0.668092        18.1797 
  99   0.0000       0.686052        18.6684 
 100   0.0000       0.698795        19.0152 
 101   0.0000       0.704706        19.1760 
 102   0.0000       0.717847        19.5336 
 103   0.0000       0.723295        19.6819 
 104   0.0000       0.733843        19.9689 
 105   0.0000       0.767035        20.8721 
 106   0.0000       0.794133        21.6094 
 107   0.0000       0.801225        21.8024 
 108   0.0000       0.805307        21.9135 
 109   0.0000       0.821045        22.3418 
 110   0.0000       0.828119        22.5343 
 111   0.0000       0.847722        23.0677 
 112   0.0000       0.855533        23.2802 
 113   0.0000       0.869367        23.6567 
 114   0.0000       0.877895        23.8887 
 115   0.0000       0.885373        24.0922 
 116   0.0000       0.889369        24.2010 
 117   0.0000       0.902480        24.5577 
 118   0.0000       0.905301        24.6345 
 119   0.0000       0.909119        24.7384 
 120   0.0000       0.919271        25.0146 
 121   0.0000       0.927460        25.2375 
 122   0.0000       0.936427        25.4815 
 123   0.0000       0.944983        25.7143 
 124   0.0000       0.953357        25.9422 
 125   0.0000       0.965550        26.2740 
 126   0.0000       0.973543        26.4915 
 127   0.0000       0.979608        26.6565 
 128   0.0000       0.990863        26.9628 
 129   0.0000       1.004857        27.3436 
 130   0.0000       1.023147        27.8413 
 131   0.0000       1.036200        28.1964 
 132   0.0000       1.038529        28.2598 
 133   0.0000       1.068788        29.0832 
 134   0.0000       1.080663        29.4063 
 135   0.0000       1.084269        29.5045 
 136   0.0000       1.108939        30.1758 
 137   0.0000       1.124632        30.6028 
 138   0.0000       1.158595        31.5270 
 139   0.0000       1.180611        32.1260 
 140   0.0000       1.250000        34.0142 
 141   0.0000       1.276664        34.7398 
 142   0.0000       1.290084        35.1050 
 143   0.0000       1.315027        35.7837 
 144   0.0000       1.346554        36.6416 
 145   0.0000       1.365060        37.1452 
 146   0.0000       1.390948        37.8496 
 147   0.0000       1.418619        38.6026 
 148   0.0000       1.441353        39.2212 
 149   0.0000       1.445693        39.3393 
 150   0.0000       1.460654        39.7464 
 151   0.0000       1.467556        39.9342 
 152   0.0000       1.505817        40.9754 
 153   0.0000       1.560014        42.4501 
 154   0.0000       1.614249        43.9259 
 155   0.0000       1.621989        44.1366 
 156   0.0000       1.672701        45.5165 
 157   0.0000       1.702934        46.3392 
 158   0.0000       1.720171        46.8082 
 159   0.0000       1.749123        47.5961 
 160   0.0000       1.758612        47.8543 
 161   0.0000       1.791230        48.7418 
 162   0.0000       1.803681        49.0806 
 163   0.0000       1.823290        49.6142 
 164   0.0000       1.840820        50.0913 
 165   0.0000       1.845636        50.2223 
 166   0.0000       1.871885        50.9366 
 167   0.0000       1.889598        51.4186 
 168   0.0000       1.903808        51.8052 
 169   0.0000       1.914866        52.1061 
 170   0.0000       1.938910        52.7604 
 171   0.0000       1.948080        53.0099 
 172   0.0000       1.963673        53.4343 
 173   0.0000       1.977954        53.8229 
 174   0.0000       1.992865        54.2286 
 175   0.0000       2.003579        54.5202 
 176   0.0000       2.029851        55.2351 
 177   0.0000       2.047727        55.7215 
 178   0.0000       2.057510        55.9877 
 179   0.0000       2.072000        56.3820 
 180   0.0000       2.085139        56.7395 
 181   0.0000       2.103004        57.2256 
 182   0.0000       2.110359        57.4258 
 183   0.0000       2.120242        57.6947 
 184   0.0000       2.166542        58.9546 
 185   0.0000       2.185281        59.4645 
 186   0.0000       2.209054        60.1114 
 187   0.0000       2.219561        60.3973 
 188   0.0000       2.234011        60.7905 
 189   0.0000       2.268014        61.7158 
 190   0.0000       2.270049        61.7712 
 191   0.0000       2.284435        62.1626 
 192   0.0000       2.290223        62.3201 
 193   0.0000       2.304451        62.7073 
 194   0.0000       2.341752        63.7223 
 195   0.0000       2.353959        64.0545 
 196   0.0000       2.396390        65.2091 
 197   0.0000       2.414040        65.6894 
 198   0.0000       2.424299        65.9685 
 199   0.0000       2.454193        66.7820 
 200   0.0000       2.499393        68.0119 
 201   0.0000       2.504269        68.1446 
 202   0.0000       2.519678        68.5639 
 203   0.0000       2.572221        69.9937 
 204   0.0000       2.593564        70.5745 
 205   0.0000       2.623185        71.3805 
 206   0.0000       2.634653        71.6926 
 207   0.0000       2.672058        72.7104 
 208   0.0000       2.699568        73.4590 
 209   0.0000       2.733552        74.3837 
 210   0.0000       2.748929        74.8022 
 211   0.0000       2.771999        75.4299 
 212   0.0000       2.938928        79.9723 
 213   0.0000       2.966879        80.7329 
 214   0.0000       2.997878        81.5764 
 215   0.0000       3.004150        81.7471 
 216   0.0000       3.163806        86.0915 
 217   0.0000       3.182754        86.6071 

                    ********************************
                    * MULLIKEN POPULATION ANALYSIS *
                    ********************************

-----------------------
MULLIKEN ATOMIC CHARGES
-----------------------
   0 C :   -0.555941
   1 H :    0.187905
   2 H :    0.200622
   3 H :    0.180116
   4 C :    0.533468
   5 O :   -0.541513
   6 N :   -0.379130
   7 C :   -0.258140
   8 H :    0.181212
   9 H :    0.205821
  10 C :    0.528377
  11 N :   -0.360376
  12 O :   -0.544237
  13 C :   -0.348917
  14 H :    0.170620
  15 H :    0.171428
  16 H :    0.197478
  17 C :   -0.331576
  18 H :    0.171630
  19 H :    0.184303
  20 H :    0.171630
  21 C :    0.020689
  22 C :   -0.467622
  23 C :   -0.467693
  24 H :    0.170419
  25 H :    0.160932
  26 H :    0.162556
  27 H :    0.164326
  28 H :    0.165498
  29 H :    0.165340
  30 H :    0.160775
Sum of atomic charges:    0.0000000

--------------------------------
MULLIKEN REDUCED ORBITAL CHARGES
--------------------------------
  0 C s       :     3.322527  s :     3.322527
      pz      :     1.055781  p :     3.201229
      px      :     1.029834
      py      :     1.115615
      dz2     :     0.002984  d :     0.032184
      dxz     :     0.009037
      dyz     :     0.008685
      dx2y2   :     0.009056
      dxy     :     0.002422
  1 H s       :     0.812095  s :     0.812095
  2 H s       :     0.799378  s :     0.799378
  3 H s       :     0.819884  s :     0.819884
  4 C s       :     2.988321  s :     2.988321
      pz      :     0.810987  p :     2.370587
      px      :     0.808244
      py      :     0.751355
      dz2     :     0.012987  d :     0.107624
      dxz     :     0.010947
      dyz     :     0.025422
      dx2y2   :     0.027811
      dxy     :     0.030458
  5 O s       :     3.864631  s :     3.864631
      pz      :     1.542675  p :     4.652048
      px      :     1.655717
      py      :     1.453656
      dz2     :     0.003863  d :     0.024833
      dxz     :     0.001547
      dyz     :     0.007397
      dx2y2   :     0.005907
      dxy     :     0.006120
  6 N s       :     3.539500  s :     3.539500
      pz      :     1.408877  p :     3.803638
      px      :     1.291847
      py      :     1.102913
      dz2     :     0.005327  d :     0.035993
      dxz     :     0.005033
      dyz     :     0.007501
      dx2y2   :     0.009221
      dxy     :     0.008912
  7 C s       :     3.253751  s :     3.253751
      pz      :     0.959223  p :     2.952610
      px      :     0.856013
      py      :     1.137374
      dz2     :     0.009835  d :     0.051779
      dxz     :     0.013079
      dyz     :     0.009844
      dx2y2   :     0.013967
      dxy     :     0.005053
  8 H s       :     0.818788  s :     0.818788
  9 H s       :     0.794179  s :     0.794179
 10 C s       :     2.979567  s :     2.979567
      pz      :     0.791209  p :     2.384822
      px      :     0.836021
      py      :     0.757591
      dz2     :     0.018484  d :     0.107234
      dxz     :     0.010883
      dyz     :     0.025798
      dx2y2   :     0.022073
      dxy     :     0.029995
 11 N s       :     3.533179  s :     3.533179
      pz      :     1.328230  p :     3.789543
      px      :     1.258141
      py      :     1.203173
      dz2     :     0.007121  d :     0.037653
      dxz     :     0.006384
      dyz     :     0.007182
      dx2y2   :     0.007443
      dxy     :     0.009523
 12 O s       :     3.858689  s :     3.858689
      pz      :     1.617160  p :     4.660679
      px      :     1.665282
      py      :     1.378237
      dz2     :     0.003024  d :     0.024870
      dxz     :     0.001843
      dyz     :     0.006560
      dx2y2   :     0.007317
      dxy     :     0.006125
 13 C s       :     3.269206  s :     3.269206
      pz      :     1.076399  p :     3.031446
      px      :     1.093958
      py      :     0.861089
      dz2     :     0.011427  d :     0.048265
      dxz     :     0.008258
      dyz     :     0.007251
      dx2y2   :     0.008019
      dxy     :     0.013310
 14 H s       :     0.829380  s :     0.829380
 15 H s       :     0.828572  s :     0.828572
 16 H s       :     0.802522  s :     0.802522
 17 C s       :     3.259298  s :     3.259298
      pz      :     1.040955  p :     3.024354
      px      :     0.898128
      py      :     1.085271
      dz2     :     0.012965  d :     0.047924
      dxz     :     0.007816
      dyz     :     0.006701
      dx2y2   :     0.008268
      dxy     :     0.012174
 18 H s       :     0.828370  s :     0.828370
 19 H s       :     0.815697  s :     0.815697
 20 H s       :     0.828370  s :     0.828370
 21 C s       :     3.172947  s :     3.172947
      pz      :     0.958004  p :     2.747542
      px      :     0.990887
      py      :     0.798651
      dz2     :     0.011027  d :     0.058821
      dxz     :     0.010597
      dyz     :     0.013127
      dx2y2   :     0.012408
      dxy     :     0.011663
 22 C s       :     3.301178  s :     3.301178
      pz      :     1.080321  p :     3.132338
      px      :     0.979585
      py      :     1.072431
      dz2     :     0.008731  d :     0.034106
      dxz     :     0.008303
      dyz     :     0.002660
      dx2y2   :     0.009803
      dxy     :     0.004609
 23 C s       :     3.301593  s :     3.301593
      pz      :     0.970636  p :     3.131967
      px      :     1.080586
      py      :     1.080745
      dz2     :     0.008355  d :     0.034133
      dxz     :     0.006832
      dyz     :     0.005795
      dx2y2   :     0.009233
      dxy     :     0.003917
 24 H s       :     0.829581  s :     0.829581
 25 H s       :     0.839068  s :     0.839068
 26 H s       :     0.837444  s :     0.837444
 27 H s       :     0.835674  s :     0.835674
 28 H s       :     0.834502  s :     0.834502
 29 H s       :     0.834660  s :     0.834660
 30 H s       :     0.839225  s :     0.839225


                     *******************************
                     * LOEWDIN POPULATION ANALYSIS *
                     *******************************

----------------------
LOEWDIN ATOMIC CHARGES
----------------------
   0 C :   -0.391547
   1 H :    0.147258
   2 H :    0.161246
   3 H :    0.150787
   4 C :    0.119507
   5 O :   -0.344194
   6 N :   -0.068592
   7 C :   -0.180363
   8 H :    0.144313
   9 H :    0.159641
  10 C :    0.098005
  11 N :   -0.068116
  12 O :   -0.342676
  13 C :   -0.287469
  14 H :    0.132584
  15 H :    0.135674
  16 H :    0.150110
  17 C :   -0.281469
  18 H :    0.133086
  19 H :    0.147372
  20 H :    0.135503
  21 C :   -0.062544
  22 C :   -0.369723
  23 C :   -0.370356
  24 H :    0.143877
  25 H :    0.134531
  26 H :    0.137936
  27 H :    0.133087
  28 H :    0.134637
  29 H :    0.131215
  30 H :    0.136680

-------------------------------
LOEWDIN REDUCED ORBITAL CHARGES
-------------------------------
  0 C s       :     2.981439  s :     2.981439
      pz      :     1.109235  p :     3.346797
      px      :     1.088530
      py      :     1.149032
      dz2     :     0.005753  d :     0.063311
      dxz     :     0.018966
      dyz     :     0.016155
      dx2y2   :     0.017817
      dxy     :     0.004620
  1 H s       :     0.852742  s :     0.852742
  2 H s       :     0.838754  s :     0.838754
  3 H s       :     0.849213  s :     0.849213
  4 C s       :     2.850657  s :     2.850657
      pz      :     0.881112  p :     2.776440
      px      :     0.933880
      py      :     0.961448
      dz2     :     0.029416  d :     0.253396
      dxz     :     0.024739
      dyz     :     0.057577
      dx2y2   :     0.069010
      dxy     :     0.072653
  5 O s       :     3.565704  s :     3.565704
      pz      :     1.554089  p :     4.727257
      px      :     1.656422
      py      :     1.516747
      dz2     :     0.006493  d :     0.051233
      dxz     :     0.003507
      dyz     :     0.015411
      dx2y2   :     0.013871
      dxy     :     0.011950
  6 N s       :     3.103315  s :     3.103315
      pz      :     1.402822  p :     3.872736
      px      :     1.296474
      py      :     1.173440
      dz2     :     0.012928  d :     0.092541
      dxz     :     0.011960
      dyz     :     0.018175
      dx2y2   :     0.024838
      dxy     :     0.024640
  7 C s       :     2.932902  s :     2.932902
      pz      :     1.029364  p :     3.138374
      px      :     0.959330
      py      :     1.149680
      dz2     :     0.020581  d :     0.109087
      dxz     :     0.029424
      dyz     :     0.018785
      dx2y2   :     0.029711
      dxy     :     0.010586
  8 H s       :     0.855687  s :     0.855687
  9 H s       :     0.840359  s :     0.840359
 10 C s       :     2.854202  s :     2.854202
      pz      :     0.888374  p :     2.793830
      px      :     0.945736
      py      :     0.959720
      dz2     :     0.042203  d :     0.253962
      dxz     :     0.023774
      dyz     :     0.064153
      dx2y2   :     0.052945
      dxy     :     0.070888
 11 N s       :     3.089366  s :     3.089366
      pz      :     1.354072  p :     3.881166
      px      :     1.284826
      py      :     1.242269
      dz2     :     0.015895  d :     0.097583
      dxz     :     0.017610
      dyz     :     0.019769
      dx2y2   :     0.020416
      dxy     :     0.023893
 12 O s       :     3.565535  s :     3.565535
      pz      :     1.608268  p :     4.725721
      px      :     1.664240
      py      :     1.453212
      dz2     :     0.006725  d :     0.051420
      dxz     :     0.002961
      dyz     :     0.012427
      dx2y2   :     0.015191
      dxy     :     0.014117
 13 C s       :     2.962612  s :     2.962612
      pz      :     1.124076  p :     3.228655
      px      :     1.136887
      py      :     0.967692
      dz2     :     0.022261  d :     0.096202
      dxz     :     0.015500
      dyz     :     0.014825
      dx2y2   :     0.016697
      dxy     :     0.026919
 14 H s       :     0.867416  s :     0.867416
 15 H s       :     0.864326  s :     0.864326
 16 H s       :     0.849890  s :     0.849890
 17 C s       :     2.962807  s :     2.962807
      pz      :     1.099142  p :     3.223528
      px      :     0.993450
      py      :     1.130935
      dz2     :     0.025372  d :     0.095134
      dxz     :     0.015793
      dyz     :     0.012692
      dx2y2   :     0.017146
      dxy     :     0.024131
 18 H s       :     0.866914  s :     0.866914
 19 H s       :     0.852628  s :     0.852628
 20 H s       :     0.864497  s :     0.864497
 21 C s       :     2.885890  s :     2.885890
      pz      :     1.057492  p :     3.047132
      px      :     1.076549
      py      :     0.913091
      dz2     :     0.027006  d :     0.129521
      dxz     :     0.020606
      dyz     :     0.028079
      dx2y2   :     0.028115
      dxy     :     0.025715
 22 C s       :     2.977279  s :     2.977279
      pz      :     1.130708  p :     3.325534
      px      :     1.067800
      py      :     1.127026
      dz2     :     0.016498  d :     0.066909
      dxz     :     0.016354
      dyz     :     0.004537
      dx2y2   :     0.019842
      dxy     :     0.009678
 23 C s       :     2.978313  s :     2.978313
      pz      :     1.062677  p :     3.324996
      px      :     1.127973
      py      :     1.134346
      dz2     :     0.018418  d :     0.067048
      dxz     :     0.013868
      dyz     :     0.011394
      dx2y2   :     0.016570
      dxy     :     0.006797
 24 H s       :     0.856123  s :     0.856123
 25 H s       :     0.865469  s :     0.865469
 26 H s       :     0.862064  s :     0.862064
 27 H s       :     0.866913  s :     0.866913
[...]
     24       0.000220  -0.005240   0.005160
     25       0.000336  -0.014368   0.013994
     26       0.000407  -0.018780   0.018292
     27       0.000977  -0.008081   0.005705
     28       0.008353  -0.101890   0.073822
     29      -0.003185   0.030567  -0.022172
     30       0.000031   0.000111   0.000690
     31      -0.000006  -0.000392  -0.001048
     32      -0.000009   0.000070  -0.000377
     33      -0.000014   0.000212  -0.000105
     34      -0.000008  -0.000674   0.000178
     35       0.000002  -0.000249  -0.000029
     36      -0.000017  -0.000381  -0.000698
     37       0.000009   0.000109   0.000231
     38       0.000005  -0.000296  -0.000353
     39       0.000213  -0.049204   0.036680
     40      -0.000108   0.020102  -0.014980
     41       0.000312  -0.047927   0.036528
     42       0.000690  -0.060126   0.045843
     43       0.000287  -0.024260   0.019254
     44      -0.001258   0.102537  -0.079848
     45      -0.000831   0.126060  -0.094078
     46      -0.000636   0.109502  -0.079464
     47      -0.000119   0.013320  -0.009934
     48      -0.002297   0.518339  -0.392258
     49       0.001585  -0.305352   0.231738
     50      -0.002275   0.462837  -0.350368
     51      -0.000007   0.009632   0.012290
     52       0.000022  -0.044888  -0.058696
     53       0.000051  -0.029754  -0.039362
     54       0.000093  -0.023731  -0.031909
     55       0.000099  -0.028756  -0.037111
     56      -0.000375   0.090789   0.120781
     57       0.000113  -0.177185  -0.235516
     58      -0.000332   0.474543   0.628159
     59      -0.000201   0.278082   0.367827
     60      -0.000116   0.096802   0.123135
     61      -0.000096   0.088977   0.115456
     62       0.000002  -0.007537  -0.009846
     63      -0.001265  -0.000040   0.000039
     64       0.001264  -0.000063   0.000015
     65       0.001076   0.000079  -0.000065
     66      -0.003770  -0.000037   0.000023
     67       0.003493  -0.000001  -0.000006
     68       0.005018   0.000006   0.000004
     69      -0.006076   0.000132   0.000005
     70       0.004417   0.000025   0.000003
     71       0.004182   0.000025  -0.000010
     72       0.013440   0.000076  -0.000156
     73      -0.012193  -0.000160   0.000290
     74      -0.011250  -0.000032   0.000143
     75      -0.005651   0.000039  -0.000039
     76       0.004262  -0.000033   0.000030
     77      -0.019231   0.000183  -0.000176
     78      -0.000325   0.000102  -0.000053
     79      -0.018447   0.000370  -0.000109
     80       0.002891  -0.000037   0.000009
     81       0.051490   0.000350  -0.000228
     82      -0.031165  -0.000199   0.000122
     83      -0.045977  -0.000279   0.000182
     84       0.023147  -0.001500  -0.000121
     85       0.008926  -0.000452  -0.000012
     86       0.003913  -0.000258  -0.000019
     87       0.060511  -0.000041  -0.000077
     88      -0.055815   0.000034   0.000080
     89      -0.057831   0.000034   0.000105
     90      -0.002487   0.000022  -0.000003
     91      -0.014975   0.000329  -0.000207
     92       0.004909  -0.000161   0.000087


-----------
IR SPECTRUM
-----------

 Mode   freq       eps      Int      T**2         TX        TY        TZ
       cm**-1   L/(mol*cm) km/mol    a.u.
----------------------------------------------------------------------------
  6:     47.19   0.001550    7.83  0.010249  (-0.024517 -0.041120  0.089203)
  7:     62.11   0.000222    1.12  0.001113  (-0.011979 -0.002673  0.031030)
  8:     76.54   0.000014    0.07  0.000057  (-0.003553  0.006057 -0.002721)
  9:     81.46   0.000948    4.79  0.003633  (-0.053770  0.000511  0.027231)
 10:     95.61   0.000482    2.44  0.001574  ( 0.033855  0.009821  0.018196)
 11:    112.31   0.002927   14.79  0.008134  (-0.077782 -0.015923 -0.042778)
 12:    145.27   0.000672    3.40  0.001444  (-0.033416 -0.014416  0.010933)
 13:    168.05   0.000016    0.08  0.000030  (-0.000173  0.004884 -0.002500)
 14:    178.52   0.000057    0.29  0.000099  (-0.005602  0.000862 -0.008179)
 15:    215.10   0.000267    1.35  0.000387  (-0.010052 -0.009044  0.014276)
 16:    227.68   0.000557    2.82  0.000764  (-0.003699  0.007467 -0.026347)
 17:    236.52   0.001052    5.32  0.001388  ( 0.035172 -0.010102 -0.007022)
 18:    259.07   0.001511    7.63  0.001820  (-0.035372 -0.018417  0.015146)
 19:    274.36   0.000596    3.01  0.000678  ( 0.022254  0.013511  0.000321)
 20:    311.97   0.000630    3.18  0.000630  ( 0.004599  0.012952 -0.021002)
 21:    330.80   0.000682    3.45  0.000644  (-0.024074  0.005260 -0.006035)
 22:    359.16   0.003411   17.24  0.002964  (-0.020901 -0.040358 -0.029974)
 23:    393.24   0.001821    9.20  0.001445  (-0.010575  0.017956 -0.031797)
 24:    427.57   0.001379    6.97  0.001006  ( 0.029119  0.011092  0.005952)
 25:    450.21   0.002375   12.00  0.001646  (-0.028038  0.018096 -0.023084)
 26:    482.19   0.000709    3.58  0.000459  (-0.013965  0.012120  0.010800)
 27:    536.39   0.005037   25.46  0.002931  ( 0.039949 -0.015767 -0.032957)
 28:    578.70   0.003551   17.94  0.001915  (-0.025619  0.023792 -0.026313)
 29:    611.29   0.001809    9.14  0.000923  ( 0.001101  0.009765 -0.028753)
 30:    620.75   0.004646   23.48  0.002336  (-0.033870 -0.027117 -0.021285)
 31:    680.09   0.002959   14.95  0.001358  ( 0.004730 -0.024789 -0.026847)
 32:    745.74   0.000595    3.00  0.000249  (-0.012803  0.005658 -0.007272)
 33:    784.39   0.006117   30.91  0.002434  (-0.031636 -0.031722 -0.020654)
 34:    890.23   0.001219    6.16  0.000427  ( 0.000100 -0.015740 -0.013404)
 35:    945.00   0.000616    3.11  0.000203  ( 0.010067  0.008634  0.005252)
 36:    958.62   0.000499    2.52  0.000162  (-0.006255  0.010974 -0.001707)
 37:    963.96   0.000219    1.11  0.000071  (-0.003819 -0.004302 -0.006147)
 38:   1001.96   0.008167   41.27  0.002544  (-0.030457 -0.011586 -0.038493)
 39:   1013.43   0.006048   30.57  0.001862  (-0.008022  0.041071 -0.010548)
 40:   1063.02   0.003683   18.61  0.001081  (-0.020073 -0.001705 -0.025989)
 41:   1070.08   0.002571   12.99  0.000750  ( 0.012081 -0.007435 -0.023422)
 42:   1090.24   0.002013   10.17  0.000576  (-0.013664  0.019097 -0.004986)
 43:   1135.86   0.000196    0.99  0.000054  (-0.006053  0.001995  0.003624)
 44:   1151.48   0.006487   32.78  0.001758  ( 0.034763  0.019005  0.013731)
 45:   1158.54   0.004976   25.15  0.001340  ( 0.008113 -0.034395  0.009566)
 46:   1161.42   0.014736   74.47  0.003960  (-0.019909 -0.053071 -0.027326)
 47:   1183.65   0.001895    9.57  0.000499  (-0.007861 -0.016235 -0.013195)
 48:   1200.65   0.011298   57.09  0.002936  (-0.009162 -0.030632 -0.043751)
 49:   1234.72   0.008176   41.32  0.002066  (-0.002941 -0.034866  0.029020)
 50:   1276.51   0.032781  165.66  0.008014  (-0.066095  0.043360  0.042015)
 51:   1286.64   0.022125  111.81  0.005366  ( 0.064433 -0.027527  0.021376)
 52:   1368.39   0.001423    7.19  0.000325  (-0.004891 -0.017206 -0.002140)
 53:   1373.86   0.024256  122.58  0.005510  (-0.032600  0.064663 -0.016294)
 54:   1378.93   0.007048   35.62  0.001595  (-0.017263  0.036010  0.000624)
 55:   1415.47   0.009074   45.86  0.002001  (-0.037702  0.023621  0.004597)
 56:   1425.24   0.002828   14.29  0.000619  (-0.001069  0.016592  0.018513)
 57:   1439.65   0.010267   51.88  0.002225  ( 0.013451  0.021578  0.039735)
 58:   1441.21   0.006258   31.62  0.001355  (-0.009339 -0.033615 -0.011737)
 59:   1457.44   0.017258   87.21  0.003695  ( 0.044007  0.019251  0.037257)
 60:   1483.03   0.013797   69.72  0.002903  ( 0.020232 -0.048973  0.009766)
 61:   1489.00   0.003387   17.12  0.000710  ( 0.022618 -0.013908  0.002197)
 62:   1497.16   0.002353   11.89  0.000490  ( 0.021810  0.003652 -0.001162)
 63:   1501.51   0.000430    2.17  0.000089  ( 0.002046 -0.007195 -0.005772)
 64:   1505.87   0.000373    1.89  0.000077  (-0.001052  0.008541 -0.001816)
 65:   1508.75   0.000750    3.79  0.000155  (-0.008526  0.007756 -0.004716)
 66:   1510.76   0.006282   31.75  0.001298  (-0.029152  0.004725  0.020625)
 67:   1516.45   0.005178   26.17  0.001066  (-0.027075  0.015317  0.009895)
 68:   1520.31   0.003028   15.30  0.000621  ( 0.017805  0.013960 -0.010467)
 69:   1522.88   0.006546   33.08  0.001341  (-0.006074  0.028305  0.022434)
 70:   1530.45   0.006573   33.22  0.001340  ( 0.006620  0.028994 -0.021348)
 71:   1540.89   0.012238   61.84  0.002478  ( 0.035051 -0.025996 -0.023959)
 72:   1555.49   0.016682   84.30  0.003347  ( 0.039607  0.006082  0.041726)
 73:   1686.52   0.124272  628.02  0.022994  (-0.005429 -0.149117  0.027000)
 74:   1706.55   0.108095  546.27  0.019766  ( 0.015008 -0.105292 -0.091950)
 75:   3037.59   0.006489   32.79  0.000667  (-0.012445  0.019143  0.012055)
 76:   3043.68   0.018830   95.16  0.001931  (-0.018670 -0.009794 -0.038551)
 77:   3058.02   0.006252   31.59  0.000638  (-0.016055 -0.005084 -0.018824)
 78:   3062.47   0.003478   17.57  0.000354  (-0.007210 -0.012795  0.011777)
 79:   3076.51   0.001046    5.28  0.000106  (-0.009534 -0.002106  0.003277)
 80:   3085.97   0.004463   22.56  0.000451  (-0.004690  0.008649  0.018830)
 81:   3092.27   0.003422   17.29  0.000345  (-0.001796  0.011430  0.014541)
 82:   3095.50   0.017691   89.40  0.001783  (-0.030821 -0.024900  0.014614)
 83:   3098.35   0.000371    1.87  0.000037  ( 0.002344  0.001861 -0.005329)
 84:   3122.39   0.004684   23.67  0.000468  ( 0.005905 -0.011551  0.017317)
 85:   3127.76   0.011459   57.91  0.001143  (-0.001863 -0.033756  0.000589)
 86:   3139.41   0.006607   33.39  0.000657  ( 0.025349 -0.002722 -0.002613)
 87:   3147.82   0.008901   44.98  0.000882  ( 0.012002 -0.018298 -0.020089)
 88:   3152.20   0.004512   22.80  0.000447  (-0.013881  0.009162  0.013038)
 89:   3168.34   0.002163   10.93  0.000213  (-0.014244  0.000919 -0.003057)
 90:   3186.72   0.002805   14.17  0.000275  (-0.003028 -0.011702  0.011337)
 91:   3194.93   0.001035    5.23  0.000101  ( 0.009358 -0.001743 -0.003241)
 92:   3196.51   0.000569    2.87  0.000056  ( 0.000669 -0.007338  0.001106)

* The epsilon (eps) is given for a Dirac delta lineshape.
** The dipole moment derivative (T) already includes vibrational overlap.

The first frequency considered to be a vibration is 6
The total number of vibrations considered is 87


--------------------------
THERMOCHEMISTRY AT 298.15K
--------------------------

Temperature         ... 298.15 K
Pressure            ... 1.00 atm
Total Mass          ... 186.26 AMU

Throughout the following assumptions are being made:
  (1) The electronic state is orbitally nondegenerate
  (2) There are no thermally accessible electronically excited states
  (3) Hindered rotations indicated by low frequency modes are not
      treated as such but are treated as vibrations and this may
      cause some error
  (4) All equations used are the standard statistical mechanics
      equations for an ideal gas
  (5) All vibrations are strictly harmonic

freq.      47.19  E(vib)   ...       0.53 
freq.      62.11  E(vib)   ...       0.51 
freq.      76.54  E(vib)   ...       0.49 
freq.      81.46  E(vib)   ...       0.48 
freq.      95.61  E(vib)   ...       0.47 
freq.     112.31  E(vib)   ...       0.45 
freq.     145.27  E(vib)   ...       0.41 
freq.     168.05  E(vib)   ...       0.38 
freq.     178.52  E(vib)   ...       0.37 
freq.     215.10  E(vib)   ...       0.34 
freq.     227.68  E(vib)   ...       0.33 
freq.     236.52  E(vib)   ...       0.32 
freq.     259.07  E(vib)   ...       0.30 
freq.     274.36  E(vib)   ...       0.28 
freq.     311.97  E(vib)   ...       0.25 
freq.     330.80  E(vib)   ...       0.24 
freq.     359.16  E(vib)   ...       0.22 
freq.     393.24  E(vib)   ...       0.20 
freq.     427.57  E(vib)   ...       0.18 
freq.     450.21  E(vib)   ...       0.17 
freq.     482.19  E(vib)   ...       0.15 
freq.     536.39  E(vib)   ...       0.12 
freq.     578.70  E(vib)   ...       0.11 
freq.     611.29  E(vib)   ...       0.10 
freq.     620.75  E(vib)   ...       0.09 
freq.     680.09  E(vib)   ...       0.08 
freq.     745.74  E(vib)   ...       0.06 
freq.     784.39  E(vib)   ...       0.05 
freq.     890.23  E(vib)   ...       0.04 
freq.     945.00  E(vib)   ...       0.03 
freq.     958.62  E(vib)   ...       0.03 
freq.     963.96  E(vib)   ...       0.03 
freq.    1001.96  E(vib)   ...       0.02 
freq.    1013.43  E(vib)   ...       0.02 
freq.    1063.02  E(vib)   ...       0.02 
freq.    1070.08  E(vib)   ...       0.02 
freq.    1090.24  E(vib)   ...       0.02 
freq.    1135.86  E(vib)   ...       0.01 
freq.    1151.48  E(vib)   ...       0.01 
freq.    1158.54  E(vib)   ...       0.01 
freq.    1161.42  E(vib)   ...       0.01 
freq.    1183.65  E(vib)   ...       0.01 
freq.    1200.65  E(vib)   ...       0.01 
freq.    1234.72  E(vib)   ...       0.01 
freq.    1276.51  E(vib)   ...       0.01 
freq.    1286.64  E(vib)   ...       0.01 
freq.    1368.39  E(vib)   ...       0.01 
freq.    1373.86  E(vib)   ...       0.01 
freq.    1378.93  E(vib)   ...       0.01 
freq.    1415.47  E(vib)   ...       0.00 
freq.    1425.24  E(vib)   ...       0.00 
freq.    1439.65  E(vib)   ...       0.00 
freq.    1441.21  E(vib)   ...       0.00 
freq.    1457.44  E(vib)   ...       0.00 
freq.    1483.03  E(vib)   ...       0.00 
freq.    1489.00  E(vib)   ...       0.00 
freq.    1497.16  E(vib)   ...       0.00 
freq.    1501.51  E(vib)   ...       0.00 
freq.    1505.87  E(vib)   ...       0.00 
freq.    1508.75  E(vib)   ...       0.00 
freq.    1510.76  E(vib)   ...       0.00 
freq.    1516.45  E(vib)   ...       0.00 
freq.    1520.31  E(vib)   ...       0.00 
freq.    1522.88  E(vib)   ...       0.00 
freq.    1530.45  E(vib)   ...       0.00 
freq.    1540.89  E(vib)   ...       0.00 
freq.    1555.49  E(vib)   ...       0.00 
freq.    1686.52  E(vib)   ...       0.00 
freq.    1706.55  E(vib)   ...       0.00 
freq.    3037.59  E(vib)   ...       0.00 
freq.    3043.68  E(vib)   ...       0.00 
freq.    3058.02  E(vib)   ...       0.00 
freq.    3062.47  E(vib)   ...       0.00 
freq.    3076.51  E(vib)   ...       0.00 
freq.    3085.97  E(vib)   ...       0.00 
freq.    3092.27  E(vib)   ...       0.00 
freq.    3095.50  E(vib)   ...       0.00 
freq.    3098.35  E(vib)   ...       0.00 
freq.    3122.39  E(vib)   ...       0.00 
freq.    3127.76  E(vib)   ...       0.00 
freq.    3139.41  E(vib)   ...       0.00 
freq.    3147.82  E(vib)   ...       0.00 
freq.    3152.20  E(vib)   ...       0.00 
freq.    3168.34  E(vib)   ...       0.00 
freq.    3186.72  E(vib)   ...       0.00 
freq.    3194.93  E(vib)   ...       0.00 
freq.    3196.51  E(vib)   ...       0.00 

------------
INNER ENERGY
------------

The inner energy is: U= E(el) + E(ZPE) + E(vib) + E(rot) + E(trans)
    E(el)   - is the total energy from the electronic structure calculation
              = E(kin-el) + E(nuc-el) + E(el-el) + E(nuc-nuc)
    E(ZPE)  - the the zero temperature vibrational energy from the frequency calculation
    E(vib)  - the the finite temperature correction to E(ZPE) due to population
              of excited vibrational states
    E(rot)  - is the rotational thermal energy
    E(trans)- is the translational thermal energy

Summary of contributions to the inner energy U:
Electronic energy                ...   -613.45010097 Eh
Zero point energy                ...      0.27278908 Eh     171.18 kcal/mol
Thermal vibrational correction   ...      0.01283597 Eh       8.05 kcal/mol
Thermal rotational correction    ...      0.00141627 Eh       0.89 kcal/mol
Thermal translational correction ...      0.00141627 Eh       0.89 kcal/mol
-----------------------------------------------------------------------
Total thermal energy                   -613.16164338 Eh


Summary of corrections to the electronic energy:
(perhaps to be used in another calculation)
Total thermal correction                  0.01566851 Eh       9.83 kcal/mol
Non-thermal (ZPE) correction              0.27278908 Eh     171.18 kcal/mol
-----------------------------------------------------------------------
Total correction                          0.28845759 Eh     181.01 kcal/mol


--------
ENTHALPY
--------

The enthalpy is H = U + kB*T
                kB is Boltzmann's constant
Total free energy                 ...   -613.16164338 Eh 
Thermal Enthalpy correction       ...      0.00094421 Eh       0.59 kcal/mol
-----------------------------------------------------------------------
Total Enthalpy                    ...   -613.16069917 Eh


Note: Only C1 symmetry has been detected, increase convergence thresholds 
      if your molecule has a higher symmetry. Symmetry factor of 1.0 is   
      used for the rotational entropy correction. 
 

Note: Rotational entropy computed according to Herzberg 
Infrared and Raman Spectra, Chapter V,1, Van Nostrand Reinhold, 1945 
Point Group:  C1, Symmetry Number:   1  
Rotational constants in cm-1:     0.036152     0.019864     0.016750 

Vibrational entropy computed according to the QRRHO of S. Grimme
Chem.Eur.J. 2012 18 9955


-------
ENTROPY
-------

The entropy contributions are T*S = T*(S(el)+S(vib)+S(rot)+S(trans))
     S(el)   - electronic entropy
     S(vib)  - vibrational entropy
     S(rot)  - rotational entropy
     S(trans)- translational entropy
The entropies will be listed as multiplied by the temperature to get
units of energy

Electronic entropy                ...      0.00000000 Eh      0.00 kcal/mol
Vibrational entropy               ...      0.02272454 Eh     14.26 kcal/mol
Rotational entropy                ...      0.01485877 Eh      9.32 kcal/mol
Translational entropy             ...      0.01975209 Eh     12.39 kcal/mol
-----------------------------------------------------------------------
Final entropy term                ...      0.05733540 Eh     35.98 kcal/mol

In case the symmetry of your molecule has not been determined correctly
or in case you have a reason to use a different symmetry number we print 
out the resulting rotational entropy values for sn=1,12 :
 --------------------------------------------------------
|  sn= 1 | S(rot)=       0.01485877 Eh      9.32 kcal/mol|
|  sn= 2 | S(rot)=       0.01420432 Eh      8.91 kcal/mol|
|  sn= 3 | S(rot)=       0.01382149 Eh      8.67 kcal/mol|
|  sn= 4 | S(rot)=       0.01354986 Eh      8.50 kcal/mol|
|  sn= 5 | S(rot)=       0.01333917 Eh      8.37 kcal/mol|
|  sn= 6 | S(rot)=       0.01316703 Eh      8.26 kcal/mol|
|  sn= 7 | S(rot)=       0.01302148 Eh      8.17 kcal/mol|
|  sn= 8 | S(rot)=       0.01289541 Eh      8.09 kcal/mol|
|  sn= 9 | S(rot)=       0.01278420 Eh      8.02 kcal/mol|
|  sn=10 | S(rot)=       0.01268472 Eh      7.96 kcal/mol|
|  sn=11 | S(rot)=       0.01259473 Eh      7.90 kcal/mol|
|  sn=12 | S(rot)=       0.01251257 Eh      7.85 kcal/mol|
 --------------------------------------------------------


-------------------
GIBBS FREE ENERGY
-------------------

The Gibbs free energy is G = H - T*S

Total enthalpy                    ...   -613.16069917 Eh 
Total entropy correction          ...     -0.05733540 Eh    -35.98 kcal/mol
-----------------------------------------------------------------------
Final Gibbs free energy         ...   -613.21803457 Eh

For completeness - the Gibbs free energy minus the electronic energy
G-E(el)                           ...      0.23206640 Eh    145.62 kcal/mol


Timings for individual modules:

Sum of individual times         ...     1226.081 sec (=  20.435 min)
GTO integral calculation        ...       13.030 sec (=   0.217 min)   1.1 %
SCF iterations                  ...      540.728 sec (=   9.012 min)  44.1 %
SCF Gradient evaluation         ...      159.037 sec (=   2.651 min)  13.0 %
Geometry relaxation             ...        1.020 sec (=   0.017 min)   0.1 %
Analytical frequency calculation...      512.266 sec (=   8.538 min)  41.8 %
                             ****ORCA TERMINATED NORMALLY****
TOTAL RUN TIME: 0 days 0 hours 20 minutes 30 seconds 417 msec
