
                                 *****************
                                 * O   R   C   A *
                                 *****************

                                            #,                                       
                                            ###                                      
                                            ####                                     
                                            #####                                    
                                            ######                                   
                                           ########,                                 
                                     ,,################,,,,,                         
                               ,,#################################,,                 
                          ,,##########################################,,             
                       ,#########################################, ''#####,          
                    ,#############################################,,   '####,        
                  ,##################################################,,,,####,       
                ,###########''''           ''''###############################       
              ,#####''   ,,,,##########,,,,          '''####'''          '####       
            ,##' ,,,,###########################,,,                        '##       
           ' ,,###''''                  '''############,,,                           
         ,,##''                                '''############,,,,        ,,,,,,###''
      ,#''                                            '''#######################'''  
     '                                                          ''''####''''         
             ,#######,   #######,   ,#######,      ##                                
            ,#'     '#,  ##    ##  ,#'     '#,    #''#        ######   ,####,        
            ##       ##  ##   ,#'  ##            #'  '#       #        #'  '#        
            ##       ##  #######   ##           ,######,      #####,   #    #        
            '#,     ,#'  ##    ##  '#,     ,#' ,#      #,         ##   #,  ,#        
             '#######'   ##     ##  '#######'  #'      '#     #####' # '####'        



                  #######################################################
                  #                        -***-                        #
                  #          Department of theory and spectroscopy      #
                  #    Directorship and core code : Frank Neese         #
                  #        Max Planck Institute fuer Kohlenforschung    #
                  #                Kaiser Wilhelm Platz 1               #
                  #                 D-45470 Muelheim/Ruhr               #
                  #                      Germany                        #
                  #                                                     #
                  #                  All rights reserved                #
                  #                        -***-                        #
                  #######################################################


                         Program Version 5.0.4 -  RELEASE  -


 With contributions from (in alphabetic order):
   Daniel Aravena         : Magnetic Suceptibility
   Michael Atanasov       : Ab Initio Ligand Field Theory (pilot matlab implementation)
   Alexander A. Auer      : GIAO ZORA, VPT2 properties, NMR spectrum
   Ute Becker             : Parallelization
   Giovanni Bistoni       : ED, misc. LED, open-shell LED, HFLD
   Martin Brehm           : Molecular dynamics
   Dmytro Bykov           : SCF Hessian
   Vijay G. Chilkuri      : MRCI spin determinant printing, contributions to CSF-ICE
   Dipayan Datta          : RHF DLPNO-CCSD density
   Achintya Kumar Dutta   : EOM-CC, STEOM-CC
   Dmitry Ganyushin       : Spin-Orbit,Spin-Spin,Magnetic field MRCI
   Miquel Garcia          : C-PCM and meta-GGA Hessian, CC/C-PCM, Gaussian charge scheme
   Yang Guo               : DLPNO-NEVPT2, F12-NEVPT2, CIM, IAO-localization
   Andreas Hansen         : Spin unrestricted coupled pair/coupled cluster methods
   Benjamin Helmich-Paris : MC-RPA, TRAH-SCF, COSX integrals
   Lee Huntington         : MR-EOM, pCC
   Robert Izsak           : Overlap fitted RIJCOSX, COSX-SCS-MP3, EOM
   Marcus Kettner         : VPT2
   Christian Kollmar      : KDIIS, OOCD, Brueckner-CCSD(T), CCSD density, CASPT2, CASPT2-K
   Simone Kossmann        : Meta GGA functionals, TD-DFT gradient, OOMP2, MP2 Hessian
   Martin Krupicka        : Initial AUTO-CI
   Lucas Lang             : DCDCAS
   Marvin Lechner         : AUTO-CI (C++ implementation), FIC-MRCC
   Dagmar Lenk            : GEPOL surface, SMD
   Dimitrios Liakos       : Extrapolation schemes; Compound Job, initial MDCI parallelization
   Dimitrios Manganas     : Further ROCIS development; embedding schemes
   Dimitrios Pantazis     : SARC Basis sets
   Anastasios Papadopoulos: AUTO-CI, single reference methods and gradients
   Taras Petrenko         : DFT Hessian,TD-DFT gradient, ASA, ECA, R-Raman, ABS, FL, XAS/XES, NRVS
   Peter Pinski           : DLPNO-MP2, DLPNO-MP2 Gradient
   Christoph Reimann      : Effective Core Potentials
   Marius Retegan         : Local ZFS, SOC
   Christoph Riplinger    : Optimizer, TS searches, QM/MM, DLPNO-CCSD(T), (RO)-DLPNO pert. Triples
   Tobias Risthaus        : Range-separated hybrids, TD-DFT gradient, RPA, STAB
   Michael Roemelt        : Original ROCIS implementation
   Masaaki Saitow         : Open-shell DLPNO-CCSD energy and density
   Barbara Sandhoefer     : DKH picture change effects
   Avijit Sen             : IP-ROCIS
   Kantharuban Sivalingam : CASSCF convergence, NEVPT2, FIC-MRCI
   Bernardo de Souza      : ESD, SOC TD-DFT
   Georgi Stoychev        : AutoAux, RI-MP2 NMR, DLPNO-MP2 response
   Willem Van den Heuvel  : Paramagnetic NMR
   Boris Wezisla          : Elementary symmetry handling
   Frank Wennmohs         : Technical directorship


 We gratefully acknowledge several colleagues who have allowed us to
 interface, adapt or use parts of their codes:
   Stefan Grimme, W. Hujo, H. Kruse, P. Pracht,  : VdW corrections, initial TS optimization,
                  C. Bannwarth, S. Ehlert          DFT functionals, gCP, sTDA/sTD-DF
   Ed Valeev, F. Pavosevic, A. Kumar             : LibInt (2-el integral package), F12 methods
   Garnet Chan, S. Sharma, J. Yang, R. Olivares  : DMRG
   Ulf Ekstrom                                   : XCFun DFT Library
   Mihaly Kallay                                 : mrcc  (arbitrary order and MRCC methods)
   Jiri Pittner, Ondrej Demel                    : Mk-CCSD
   Frank Weinhold                                : gennbo (NPA and NBO analysis)
   Christopher J. Cramer and Donald G. Truhlar   : smd solvation model
   Lars Goerigk                                  : TD-DFT with DH, B97 family of functionals
   V. Asgeirsson, H. Jonsson                     : NEB implementation
   FAccTs GmbH                                   : IRC, NEB, NEB-TS, DLPNO-Multilevel, CI-OPT
                                                   MM, QMMM, 2- and 3-layer-ONIOM, Crystal-QMMM,
                                                   LR-CPCM, SF, NACMEs, symmetry and pop. for TD-DFT,
                                                   nearIR, NL-DFT gradient (VV10), updates on ESD,
                                                   ML-optimized integration grids
   S Lehtola, MJT Oliveira, MAL Marques          : LibXC Library
   Liviu Ungur et al                             : ANISO software


 Your calculation uses the libint2 library for the computation of 2-el integrals
 For citations please refer to: http://libint.valeyev.net

 Your ORCA version has been built with support for libXC version: 5.1.0
 For citations please refer to: https://tddft.org/programs/libxc/

 This ORCA versions uses:
   CBLAS   interface :  Fast vector & matrix operations
   LAPACKE interface :  Fast linear algebra routines
   SCALAPACK package :  Parallel linear algebra routines
   Shared memory     :  Shared parallel matrices
   BLAS/LAPACK       :  OpenBLAS 0.3.15  USE64BITINT DYNAMIC_ARCH NO_AFFINITY SkylakeX SINGLE_THREADED
        Core in use  :  SkylakeX
   Copyright (c) 2011-2014, The OpenBLAS Project




***************************************
The coordinates will be read from file: /users/fjb15167/WWenergy/structures/Nq.xyz
***************************************


Your calculation utilizes the atom-pairwise dispersion correction
based on tight binding partial charges (D4)
Cite in your paper:
E.Caldeweyher, C.Bannwarth, S.Grimme, J.Chem.Phys., (2017), 147, 034112.
E.Caldeweyher, S.Ehlert, A.Hansen, H.Neugebauer, S.Grimme, J.Chem.Phys., (2018), in progress.
   

================================================================================

----- Orbital basis set information -----
Your calculation utilizes the basis: 6-31G(d)
   H-He, Li-Ne : W. J. Hehre, R. Ditchfield and J.A. Pople, J. Chem. Phys. 56, 2257 (1972).
                 Note: He and Ne are unpublished basis sets taken from the Gaussian program.
                 Note: Li and B from J. D. Dill and J. A. Pople, J. Chem. Phys. 62, 2921 (1975).
   Na - Ar     : M. M. Francl, W. J. Pietro, W. J. Hehre, J. S. Binkley, M. S. Gordon, 
                 D. J. DeFrees and J. A. Pople, J. Chem. Phys. 77, 3654 (1982).
   K - Zn      : V. A. Rassolov, J. A. Pople, M. A. Ratner, and T. L. Windus, J. Chem. Phys. 109, 1223 (1998).

----- AuxJ basis set information -----
Your calculation utilizes the AutoAux generation procedure.
  G. L. Stoychev, A. A. Auer, F. Neese, J. Chem. Theory Comput. 13, 554 (2017)

----- AuxC basis set information -----
Your calculation utilizes the AutoAux generation procedure.
  G. L. Stoychev, A. A. Auer, F. Neese, J. Chem. Theory Comput. 13, 554 (2017)

----- AuxJK basis set information -----
Your calculation utilizes the AutoAux generation procedure.
  G. L. Stoychev, A. A. Auer, F. Neese, J. Chem. Theory Comput. 13, 554 (2017)

================================================================================
                                        WARNINGS
                       Please study these warnings very carefully!
================================================================================


WARNING: Geometry Optimization
  ===> : Switching off AutoStart
         For restart on a previous wavefunction, please use MOREAD

INFO   : the flag for use of the SHARK integral package has been found!

================================================================================
                                       INPUT FILE
================================================================================
NAME = Nq_gas.inp
|  1> ! OPT FREQ B3LYP 6-31G(d) D4 AUTOAUX
|  2> 
|  3> %PAL NPROCS 4 END
|  4> 
|  5> %maxcore 3375
|  6> 
|  7> *xyzfile 0 1 /users/fjb15167/WWenergy/structures/Nq.xyz
|  8> 
|  9>                          ****END OF INPUT****
================================================================================

                       *****************************
                       * Geometry Optimization Run *
                       *****************************

Geometry optimization settings:
Update method            Update   .... BFGS
Choice of coordinates    CoordSys .... Z-matrix Internals
Initial Hessian          InHess   .... Almoef's Model

Convergence Tolerances:
Energy Change            TolE     ....  5.0000e-06 Eh
Max. Gradient            TolMAXG  ....  3.0000e-04 Eh/bohr
RMS Gradient             TolRMSG  ....  1.0000e-04 Eh/bohr
Max. Displacement        TolMAXD  ....  4.0000e-03 bohr
RMS Displacement         TolRMSD  ....  2.0000e-03 bohr
Strict Convergence                ....  False
------------------------------------------------------------------------------
                        ORCA OPTIMIZATION COORDINATE SETUP
------------------------------------------------------------------------------

The optimization will be done in new redundant internal coordinates
Making redundant internal coordinates   ...  (new redundants) done
Evaluating the initial hessian          ...  (Almloef) done
Evaluating the coordinates              ...  done
Calculating the B-matrix                .... done
Calculating the G-matrix                .... done
Diagonalizing the G-matrix              .... done
Small eigenvalue found = 4.178e-03
Small eigenvalue found = 6.145e-03
Small eigenvalue found = 1.273e-02
Small eigenvalue found = 1.421e-02
Small eigenvalue found = 2.934e-02
The first mode is                       ....   58
The number of degrees of freedom        ....   90

    -----------------------------------------------------------------
                    Redundant Internal Coordinates


    -----------------------------------------------------------------
         Definition                    Initial Value    Approx d2E/dq
    -----------------------------------------------------------------
      1. B(H   1,C   0)                  1.0923         0.357043   
      2. B(H   2,C   0)                  1.0948         0.353808   
      3. B(H   3,C   0)                  1.0896         0.360646   
      4. B(C   4,C   0)                  1.5306         0.372764   
      5. B(O   5,C   4)                  1.2183         1.051666   
      6. B(N   6,C   4)                  1.3819         0.576552   
      7. B(C   7,N   6)                  1.4580         0.435830   
      8. B(H   8,C   7)                  1.0959         0.352408   
      9. B(H   9,C   7)                  1.0897         0.360442   
     10. B(C  10,N   6)                  1.4589         0.434462   
     11. B(H  11,C  10)                  1.0908         0.358995   
     12. B(H  12,C  10)                  1.0957         0.352701   
     13. B(C  13,C  10)                  1.5341         0.367938   
     14. B(H  14,C  13)                  1.0930         0.356129   
     15. B(H  15,C  13)                  1.0961         0.352128   
     16. B(C  16,C   7)                  1.5253         0.380075   
     17. B(N  17,C  16)                  1.3638         0.616140   
     18. B(O  18,C  16)                  1.2422         0.963256   
     19. B(C  19,N  17)                  1.4555         0.439911   
     20. B(H  20,C  19)                  1.0969         0.351060   
     21. B(H  21,C  19)                  1.0955         0.352854   
     22. B(H  22,C  19)                  1.0876         0.363253   
     23. B(C  23,N  17)                  1.4543         0.441838   
     24. B(H  24,C  23)                  1.0968         0.351190   
     25. B(H  25,C  23)                  1.0885         0.362089   
     26. B(H  26,C  23)                  1.0936         0.355376   
     27. B(C  27,C  13)                  1.5189         0.389084   
     28. B(O  28,C  27)                  1.2328         0.997073   
     29. B(N  29,C  27)                  1.3641         0.615427   
     30. B(H  30,N  29)                  1.0120         0.429540   
     31. B(H  31,N  29)                  1.0092         0.433979   
     32. A(H   1,C   0,C   4)          113.9355         0.323750   
     33. A(H   2,C   0,H   3)          108.6367         0.290105   
     34. A(H   1,C   0,H   2)          107.4471         0.289648   
     35. A(H   1,C   0,H   3)          109.9349         0.290519   
     36. A(H   3,C   0,C   4)          106.5661         0.324284   
     37. A(H   2,C   0,C   4)          110.2320         0.323267   
     38. A(C   0,C   4,O   5)          121.4430         0.432751   
     39. A(O   5,C   4,N   6)          122.9512         0.465292   
     40. A(C   0,C   4,N   6)          115.6057         0.389028   
     41. A(C   4,N   6,C  10)          124.3162         0.397055   
     42. A(C   7,N   6,C  10)          117.0393         0.378150   
     43. A(C   4,N   6,C   7)          118.5615         0.397274   
     44. A(H   8,C   7,C  16)          105.4199         0.324088   
     45. A(N   6,C   7,H   9)          107.8445         0.330720   
     46. A(H   9,C   7,C  16)          113.8270         0.325290   
     47. A(H   8,C   7,H   9)          108.9874         0.289899   
     48. A(N   6,C   7,C  16)          111.0611         0.371856   
     49. A(N   6,C   7,H   8)          109.6358         0.329490   
     50. A(H  12,C  10,C  13)          109.5458         0.322411   
     51. A(H  11,C  10,C  13)          108.8418         0.323347   
     52. A(N   6,C  10,C  13)          113.4038         0.369586   
     53. A(H  11,C  10,H  12)          107.5130         0.289754   
     54. A(N   6,C  10,H  12)          107.4419         0.329364   
     55. A(N   6,C  10,H  11)          109.9270         0.330328   
     56. A(H  14,C  13,H  15)          107.9169         0.289316   
     57. A(H  15,C  13,C  27)          107.0216         0.325295   
     58. A(C  10,C  13,H  15)          109.2495         0.322325   
     59. A(C  10,C  13,H  14)          110.4695         0.322923   
     60. A(H  14,C  13,C  27)          112.2158         0.325900   
     61. A(C  10,C  13,C  27)          109.8516         0.364938   
     62. A(N  17,C  16,O  18)          122.5615         0.463474   
     63. A(C   7,C  16,O  18)          119.1873         0.427471   
     64. A(C   7,C  16,N  17)          118.2222         0.394913   
     65. A(C  16,N  17,C  19)          125.5907         0.402604   
     66. A(C  19,N  17,C  23)          115.2694         0.379867   
     67. A(C  16,N  17,C  23)          118.3959         0.402914   
     68. A(H  21,C  19,H  22)          108.9112         0.290310   
     69. A(H  20,C  19,H  22)          108.4489         0.290078   
     70. A(N  17,C  19,H  22)          112.0277         0.331657   
     71. A(H  20,C  19,H  21)          108.1543         0.288760   
     72. A(N  17,C  19,H  21)          109.1576         0.330067   
     73. A(N  17,C  19,H  20)          110.0557         0.329789   
     74. A(H  25,C  23,H  26)          110.1359         0.290488   
     75. A(H  24,C  23,H  26)          108.6095         0.289099   
     76. A(N  17,C  23,H  26)          109.3471         0.330695   
     77. A(H  24,C  23,H  25)          109.4605         0.289949   
     78. A(N  17,C  23,H  25)          108.5354         0.331721   
     79. A(N  17,C  23,H  24)          110.7479         0.330047   
     80. A(O  28,C  27,N  29)          122.6862         0.466311   
     81. A(C  13,C  27,N  29)          115.6948         0.396459   
     82. A(C  13,C  27,O  28)          121.5701         0.431938   
     83. A(H  30,N  29,H  31)          118.1271         0.303043   
     84. A(C  27,N  29,H  31)          121.3250         0.358396   
     85. A(C  27,N  29,H  30)          117.3195         0.357770   
     86. D(O   5,C   4,C   0,H   2)    105.2090         0.010395   
     87. D(O   5,C   4,C   0,H   3)    -12.4990         0.010395   
     88. D(N   6,C   4,C   0,H   1)     46.0381         0.010395   
     89. D(N   6,C   4,C   0,H   2)    -74.8393         0.010395   
     90. D(N   6,C   4,C   0,H   3)    167.4528         0.010395   
     91. D(O   5,C   4,C   0,H   1)   -133.9136         0.010395   
     92. D(C   7,N   6,C   4,C   0)    175.8472         0.026641   
     93. D(C  10,N   6,C   4,C   0)     -0.7352         0.026641   
     94. D(C   7,N   6,C   4,O   5)     -4.2019         0.026641   
     95. D(C  10,N   6,C   4,O   5)    179.2158         0.026641   
     96. D(C  16,C   7,N   6,C   4)    123.8866         0.016195   
     97. D(H   9,C   7,N   6,C   4)     -1.4755         0.016195   
     98. D(H   8,C   7,N   6,C  10)     56.8160         0.016195   
     99. D(H   9,C   7,N   6,C  10)    175.3555         0.016195   
    100. D(H   8,C   7,N   6,C   4)   -120.0151         0.016195   
    101. D(C  16,C   7,N   6,C  10)    -59.2823         0.016195   
    102. D(C  13,C  10,N   6,C   7)     90.2757         0.016094   
    103. D(C  13,C  10,N   6,C   4)    -93.0943         0.016094   
    104. D(H  12,C  10,N   6,C   7)    -30.9296         0.016094   
    105. D(H  12,C  10,N   6,C   4)    145.7003         0.016094   
    106. D(H  11,C  10,N   6,C   7)   -147.6358         0.016094   
    107. D(H  11,C  10,N   6,C   4)     28.9942         0.016094   
    108. D(C  27,C  13,C  10,H  11)     35.8814         0.010830   
    109. D(C  27,C  13,C  10,N   6)    158.5719         0.010830   
    110. D(H  15,C  13,C  10,H  12)    161.4755         0.010830   
    111. D(H  15,C  13,C  10,H  11)    -81.2308         0.010830   
    112. D(H  15,C  13,C  10,N   6)     41.4597         0.010830   
    113. D(H  14,C  13,C  10,H  12)     42.9098         0.010830   
    114. D(H  14,C  13,C  10,H  11)    160.2035         0.010830   
    115. D(C  27,C  13,C  10,H  12)    -81.4123         0.010830   
    116. D(H  14,C  13,C  10,N   6)    -77.1061         0.010830   
    117. D(O  18,C  16,C   7,H   9)   -138.8669         0.010779   
    118. D(O  18,C  16,C   7,H   8)    -19.4762         0.010779   
    119. D(O  18,C  16,C   7,N   6)     99.1934         0.010779   
    120. D(N  17,C  16,C   7,H   9)     43.0383         0.010779   
    121. D(N  17,C  16,C   7,H   8)    162.4290         0.010779   
    122. D(N  17,C  16,C   7,N   6)    -78.9015         0.010779   
    123. D(C  23,N  17,C  16,O  18)     -1.7023         0.030711   
    124. D(C  23,N  17,C  16,C   7)    176.3242         0.030711   
    125. D(C  19,N  17,C  16,O  18)   -171.3226         0.030711   
    126. D(C  19,N  17,C  16,C   7)      6.7039         0.030711   
    127. D(H  22,C  19,N  17,C  16)    -12.4552         0.016502   
    128. D(H  21,C  19,N  17,C  23)     56.9298         0.016502   
    129. D(H  21,C  19,N  17,C  16)   -133.1642         0.016502   
    130. D(H  20,C  19,N  17,C  23)    -61.6227         0.016502   
    131. D(H  22,C  19,N  17,C  23)    177.6389         0.016502   
    132. D(H  20,C  19,N  17,C  16)    108.2833         0.016502   
    133. D(H  26,C  23,N  17,C  19)    -52.6817         0.016648   
    134. D(H  26,C  23,N  17,C  16)    136.6423         0.016648   
    135. D(H  25,C  23,N  17,C  19)   -172.8497         0.016648   
    136. D(H  25,C  23,N  17,C  16)     16.4743         0.016648   
    137. D(H  24,C  23,N  17,C  19)     66.9671         0.016648   
    138. D(H  24,C  23,N  17,C  16)   -103.7089         0.016648   
    139. D(N  29,C  27,C  13,H  14)     11.6901         0.011266   
    140. D(N  29,C  27,C  13,C  10)    134.9933         0.011266   
    141. D(O  28,C  27,C  13,H  15)     71.0126         0.011266   
    142. D(O  28,C  27,C  13,H  14)   -170.7867         0.011266   
    143. D(N  29,C  27,C  13,H  15)   -106.5106         0.011266   
    144. D(O  28,C  27,C  13,C  10)    -47.4835         0.011266   
    145. D(H  31,N  29,C  27,O  28)    167.0443         0.030634   
    146. D(H  31,N  29,C  27,C  13)    -15.4630         0.030634   
    147. D(H  30,N  29,C  27,O  28)      7.7279         0.030634   
    148. D(H  30,N  29,C  27,C  13)   -174.7793         0.030634   
    -----------------------------------------------------------------

Number of atoms                         .... 32
Number of degrees of freedom            .... 148

         *************************************************************
         *                GEOMETRY OPTIMIZATION CYCLE   1            *
         *************************************************************
---------------------------------
CARTESIAN COORDINATES (ANGSTROEM)
---------------------------------
  C     -1.175000    2.741000   -0.057000
  H     -1.791000    1.976000    0.421000
  H     -1.653000    3.001000   -1.007000
  H     -1.137000    3.632000    0.569000
  C      0.275000    2.312000   -0.294000
  O      1.208000    3.044000   -0.015000
  N      0.444000    1.053000   -0.838000
  C      1.793000    0.615000   -1.176000
  H      1.851000    0.395000   -2.248000
  H      2.477000    1.431000   -0.944000
  C     -0.650000    0.146000   -1.168000
  H     -1.544000    0.718000   -1.420000
  H     -0.354000   -0.414000   -2.062000
  C     -0.991000   -0.834000   -0.038000
  H     -0.256000   -1.642000    0.002000
  H     -0.962000   -0.304000    0.921000
  C      2.136000   -0.695000   -0.474000
  N      2.498000   -0.647000    0.840000
  O      2.042000   -1.762000   -1.103000
  C      2.458000    0.536000    1.687000
  H      1.642000    0.450000    2.415000
  H      3.401000    0.615000    2.239000
  H      2.310000    1.446000    1.110000
  C      2.747000   -1.900000    1.535000
  H      1.905000   -2.155000    2.190000
  H      2.881000   -2.686000    0.794000
  H      3.648000   -1.802000    2.147000
  C     -2.407000   -1.354000   -0.216000
  O     -3.349000   -0.594000   -0.450000
  N     -2.569000   -2.698000   -0.048000
  H     -3.485000   -3.083000   -0.240000
  H     -1.779000   -3.326000   -0.050000

----------------------------
CARTESIAN COORDINATES (A.U.)
----------------------------
  NO LB      ZA    FRAG     MASS         X           Y           Z
   0 C     6.0000    0    12.011   -2.220428    5.179739   -0.107714
   1 H     1.0000    0     1.008   -3.384500    3.734099    0.795575
   2 H     1.0000    0     1.008   -3.123717    5.671068   -1.902954
   3 H     1.0000    0     1.008   -2.148619    6.863485    1.075254
   4 C     6.0000    0    12.011    0.519675    4.369047   -0.555579
   5 O     8.0000    0    15.999    2.282789    5.752326   -0.028346
   6 N     7.0000    0    14.007    0.839038    1.989882   -1.583591
   7 C     6.0000    0    12.011    3.388279    1.162182   -2.222318
   8 H     1.0000    0     1.008    3.497883    0.746442   -4.248104
   9 H     1.0000    0     1.008    4.680852    2.704198   -1.783901
  10 C     6.0000    0    12.011   -1.228322    0.275900   -2.207200
  11 H     1.0000    0     1.008   -2.917737    1.356823   -2.683411
  12 H     1.0000    0     1.008   -0.668963   -0.782347   -3.896615
  13 C     6.0000    0    12.011   -1.872719   -1.576032   -0.071810
  14 H     1.0000    0     1.008   -0.483770   -3.102930    0.003779
  15 H     1.0000    0     1.008   -1.817917   -0.574477    1.740438
  16 C     6.0000    0    12.011    4.036455   -1.313360   -0.895730
  17 N     7.0000    0    14.007    4.720536   -1.222653    1.587370
  18 O     8.0000    0    15.999    3.858821   -3.329697   -2.084368
  19 C     6.0000    0    12.011    4.644947    1.012893    3.187968
  20 H     1.0000    0     1.008    3.102930    0.850377    4.563689
  21 H     1.0000    0     1.008    6.426959    1.162182    4.231097
  22 H     1.0000    0     1.008    4.365267    2.732544    2.097596
  23 C     6.0000    0    12.011    5.191078   -3.590480    2.900730
  24 H     1.0000    0     1.008    3.599928   -4.072360    4.138500
  25 H     1.0000    0     1.008    5.444301   -5.075804    1.500443
  26 H     1.0000    0     1.008    6.893721   -3.405286    4.057242
  27 C     6.0000    0    12.011   -4.548571   -2.558689   -0.408181
  28 O     8.0000    0    15.999   -6.328693   -1.122497   -0.850377
  29 N     7.0000    0    14.007   -4.854706   -5.098481   -0.090707
  30 H     1.0000    0     1.008   -6.585696   -5.826026   -0.453534
  31 H     1.0000    0     1.008   -3.361823   -6.285229   -0.094486

--------------------------------
INTERNAL COORDINATES (ANGSTROEM)
--------------------------------
 C      0   0   0     0.000000000000     0.00000000     0.00000000
 H      1   0   0     1.092320923538     0.00000000     0.00000000
 H      1   2   0     1.094798611618   107.44708491     0.00000000
 H      1   2   3     1.089587536639   109.93493684   118.05469566
 C      1   2   3     1.530591388974   113.93546463   237.58078161
 O      5   1   2     1.218258593239   121.44303647   226.08636556
 N      5   1   2     1.381874813433   115.60572583    46.03811749
 C      7   5   1     1.458042866311   118.56149604   175.84715856
 H      8   7   5     1.095877730406   109.63582849   239.98489402
 H      8   7   5     1.089741253693   107.84454272   358.52446679
 C      7   5   1     1.458898557131   124.31616879   359.26481157
 H     11   7   5     1.090836376364   109.92700799    28.99418066
 H     11   7   5     1.095651404417   107.44192446   145.70031765
 C     11   7   5     1.534138520473   113.40380660   266.90566400
 H     14  11   7     1.093018298108   110.46946057   282.89389117
 H     14  11   7     1.096093974073   109.24950926    41.45967433
 C      8   7   5     1.525304231948   111.06114815   123.88658085
 N     17   8   7     1.363797638948   118.22222055   281.09854350
 O     17   8   7     1.242161825206   119.18734412    99.19336253
 C     18  17   8     1.455506097548   125.59072535     6.70391788
 H     20  18  17     1.096921145753   110.05565419   108.28327173
 H     20  18  17     1.095533659912   109.15757151   226.83580982
 H     20  18  17     1.087627233936   112.02774758   347.54483504
 C     18  17   8     1.454315990423   118.39587566   176.32421267
 H     24  18  17     1.096819948761   110.74786018   256.29113500
 H     24  18  17     1.088500344511   108.53543280    16.47430252
 H     24  18  17     1.093594531808   109.34712165   136.64234053
 C     14  11   7     1.518927253031   109.85158726   158.57187205
 O     28  14  11     1.232769240369   121.57008995   312.51651288
 N     28  14  11     1.364112898553   115.69482817   134.99328516
 H     30  28  14     1.012000494071   117.31953064   185.22065003
 H     30  28  14     1.009201664684   121.32495257   344.53704407

---------------------------
INTERNAL COORDINATES (A.U.)
---------------------------
 C      0   0   0     0.000000000000     0.00000000     0.00000000
 H      1   0   0     2.064187395840     0.00000000     0.00000000
 H      1   2   0     2.068869547755   107.44708491     0.00000000
 H      1   2   3     2.059022043182   109.93493684   118.05469566
 C      1   2   3     2.892398548098   113.93546463   237.58078161
 O      5   1   2     2.302175101517   121.44303647   226.08636556
 N      5   1   2     2.611364948752   115.60572583    46.03811749
 C      7   5   1     2.755301708845   118.56149604   175.84715856
 H      8   7   5     2.070908786731   109.63582849   239.98489402
 H      8   7   5     2.059312526315   107.84454272   358.52446679
 C      7   5   1     2.756918730151   124.31616879   359.26481157
 H     11   7   5     2.061382008248   109.92700799    28.99418066
 H     11   7   5     2.070481092594   107.44192446   145.70031765
 C     11   7   5     2.899101655194   113.40380660   266.90566400
 H     14  11   7     2.065505242790   110.46946057   282.89389117
 H     14  11   7     2.071317428040   109.24950926    41.45967433
 C      8   7   5     2.882407269294   111.06114815   123.88658085
 N     17   8   7     2.577204039700   118.22222055   281.09854350
 O     17   8   7     2.347345663652   119.18734412    99.19336253
 C     18  17   8     2.750507910619   125.59072535     6.70391788
 H     20  18  17     2.072880555980   110.05565419   108.28327173
 H     20  18  17     2.070258587726   109.15757151   226.83580982
 H     20  18  17     2.055317607934   112.02774758   347.54483504
 C     18  17   8     2.748258934082   118.39587566   176.32421267
 H     24  18  17     2.072689321380   110.74786018   256.29113500
 H     24  18  17     2.056967547804   108.53543280    16.47430252
 H     24  18  17     2.066594166671   109.34712165   136.64234053
 C     14  11   7     2.870356525578   109.85158726   158.57187205
 O     28  14  11     2.329596250620   121.57008995   312.51651288
 N     28  14  11     2.577799794016   115.69482817   134.99328516
 H     30  28  14     1.912403781187   117.31953064   185.22065003
 H     30  28  14     1.907114760149   121.32495257   344.53704407

---------------------
BASIS SET INFORMATION
---------------------
There are 4 groups of distinct atoms

 Group   1 Type C   : 10s4p1d contracted to 3s2p1d pattern {631/31/1}
 Group   2 Type H   : 4s contracted to 2s pattern {31}
 Group   3 Type O   : 10s4p1d contracted to 3s2p1d pattern {631/31/1}
 Group   4 Type N   : 10s4p1d contracted to 3s2p1d pattern {631/31/1}

Atom   0C    basis set group =>   1
Atom   1H    basis set group =>   2
Atom   2H    basis set group =>   2
Atom   3H    basis set group =>   2
Atom   4C    basis set group =>   1
Atom   5O    basis set group =>   3
Atom   6N    basis set group =>   4
Atom   7C    basis set group =>   1
Atom   8H    basis set group =>   2
Atom   9H    basis set group =>   2
Atom  10C    basis set group =>   1
Atom  11H    basis set group =>   2
Atom  12H    basis set group =>   2
Atom  13C    basis set group =>   1
Atom  14H    basis set group =>   2
Atom  15H    basis set group =>   2
Atom  16C    basis set group =>   1
Atom  17N    basis set group =>   4
Atom  18O    basis set group =>   3
Atom  19C    basis set group =>   1
Atom  20H    basis set group =>   2
Atom  21H    basis set group =>   2
Atom  22H    basis set group =>   2
Atom  23C    basis set group =>   1
Atom  24H    basis set group =>   2
Atom  25H    basis set group =>   2
Atom  26H    basis set group =>   2
Atom  27C    basis set group =>   1
Atom  28O    basis set group =>   3
Atom  29N    basis set group =>   4
Atom  30H    basis set group =>   2
Atom  31H    basis set group =>   2
---------------------------------
AUXILIARY/J BASIS SET INFORMATION
---------------------------------
There are 4 groups of distinct atoms

 Group   1 Type C   : 13s11p10d2f contracted to 13s11p10d2f pattern {1111111111111/11111111111/1111111111/11}
 Group   2 Type H   : 9s2p contracted to 9s2p pattern {111111111/11}
 Group   3 Type O   : 14s11p10d2f contracted to 14s11p10d2f pattern {11111111111111/11111111111/1111111111/11}
 Group   4 Type N   : 14s11p10d2f contracted to 14s11p10d2f pattern {11111111111111/11111111111/1111111111/11}

Atom   0C    basis set group =>   1
Atom   1H    basis set group =>   2
Atom   2H    basis set group =>   2
Atom   3H    basis set group =>   2
Atom   4C    basis set group =>   1
Atom   5O    basis set group =>   3
Atom   6N    basis set group =>   4
Atom   7C    basis set group =>   1
Atom   8H    basis set group =>   2
Atom   9H    basis set group =>   2
Atom  10C    basis set group =>   1
Atom  11H    basis set group =>   2
Atom  12H    basis set group =>   2
Atom  13C    basis set group =>   1
Atom  14H    basis set group =>   2
Atom  15H    basis set group =>   2
Atom  16C    basis set group =>   1
Atom  17N    basis set group =>   4
Atom  18O    basis set group =>   3
Atom  19C    basis set group =>   1
Atom  20H    basis set group =>   2
Atom  21H    basis set group =>   2
Atom  22H    basis set group =>   2
Atom  23C    basis set group =>   1
Atom  24H    basis set group =>   2
Atom  25H    basis set group =>   2
Atom  26H    basis set group =>   2
Atom  27C    basis set group =>   1
Atom  28O    basis set group =>   3
Atom  29N    basis set group =>   4
Atom  30H    basis set group =>   2
Atom  31H    basis set group =>   2
---------------------------------
AUXILIARY/C BASIS SET INFORMATION
---------------------------------
There are 4 groups of distinct atoms

 Group   1 Type C   : 13s11p10d2f contracted to 13s11p10d2f pattern {1111111111111/11111111111/1111111111/11}
 Group   2 Type H   : 9s2p contracted to 9s2p pattern {111111111/11}
 Group   3 Type O   : 14s11p10d2f contracted to 14s11p10d2f pattern {11111111111111/11111111111/1111111111/11}
 Group   4 Type N   : 14s11p10d2f contracted to 14s11p10d2f pattern {11111111111111/11111111111/1111111111/11}

Atom   0C    basis set group =>   1
Atom   1H    basis set group =>   2
Atom   2H    basis set group =>   2
Atom   3H    basis set group =>   2
Atom   4C    basis set group =>   1
Atom   5O    basis set group =>   3
Atom   6N    basis set group =>   4
Atom   7C    basis set group =>   1
Atom   8H    basis set group =>   2
Atom   9H    basis set group =>   2
Atom  10C    basis set group =>   1
Atom  11H    basis set group =>   2
Atom  12H    basis set group =>   2
Atom  13C    basis set group =>   1
Atom  14H    basis set group =>   2
Atom  15H    basis set group =>   2
Atom  16C    basis set group =>   1
Atom  17N    basis set group =>   4
Atom  18O    basis set group =>   3
Atom  19C    basis set group =>   1
Atom  20H    basis set group =>   2
Atom  21H    basis set group =>   2
Atom  22H    basis set group =>   2
Atom  23C    basis set group =>   1
Atom  24H    basis set group =>   2
Atom  25H    basis set group =>   2
Atom  26H    basis set group =>   2
Atom  27C    basis set group =>   1
Atom  28O    basis set group =>   3
Atom  29N    basis set group =>   4
Atom  30H    basis set group =>   2
Atom  31H    basis set group =>   2
----------------------------------
AUXILIARY/JK BASIS SET INFORMATION
----------------------------------
There are 4 groups of distinct atoms

 Group   1 Type C   : 13s11p10d2f contracted to 13s11p10d2f pattern {1111111111111/11111111111/1111111111/11}
 Group   2 Type H   : 9s2p contracted to 9s2p pattern {111111111/11}
 Group   3 Type O   : 14s11p10d2f contracted to 14s11p10d2f pattern {11111111111111/11111111111/1111111111/11}
 Group   4 Type N   : 14s11p10d2f contracted to 14s11p10d2f pattern {11111111111111/11111111111/1111111111/11}

Atom   0C    basis set group =>   1
Atom   1H    basis set group =>   2
Atom   2H    basis set group =>   2
Atom   3H    basis set group =>   2
Atom   4C    basis set group =>   1
Atom   5O    basis set group =>   3
Atom   6N    basis set group =>   4
Atom   7C    basis set group =>   1
Atom   8H    basis set group =>   2
Atom   9H    basis set group =>   2
Atom  10C    basis set group =>   1
Atom  11H    basis set group =>   2
Atom  12H    basis set group =>   2
Atom  13C    basis set group =>   1
Atom  14H    basis set group =>   2
Atom  15H    basis set group =>   2
Atom  16C    basis set group =>   1
Atom  17N    basis set group =>   4
Atom  18O    basis set group =>   3
Atom  19C    basis set group =>   1
Atom  20H    basis set group =>   2
Atom  21H    basis set group =>   2
Atom  22H    basis set group =>   2
Atom  23C    basis set group =>   1
Atom  24H    basis set group =>   2
Atom  25H    basis set group =>   2
Atom  26H    basis set group =>   2
Atom  27C    basis set group =>   1
Atom  28O    basis set group =>   3
Atom  29N    basis set group =>   4
Atom  30H    basis set group =>   2
Atom  31H    basis set group =>   2


           ************************************************************
           *        Program running with 4 parallel MPI-processes     *
           *              working on a common directory               *
           ************************************************************
------------------------------------------------------------------------------
                           ORCA GTO INTEGRAL CALCULATION
                           -- RI-GTO INTEGRALS CHOSEN --
------------------------------------------------------------------------------
------------------------------------------------------------------------------
                   ___                                                        
                  /   \      - P O W E R E D   B Y -                         
                 /     \                                                     
                 |  |  |   _    _      __       _____    __    __             
                 |  |  |  | |  | |    /  \     |  _  \  |  |  /  |          
                  \  \/   | |  | |   /    \    | | | |  |  | /  /          
                 / \  \   | |__| |  /  /\  \   | |_| |  |  |/  /          
                |  |  |   |  __  | /  /__\  \  |    /   |      \           
                |  |  |   | |  | | |   __   |  |    \   |  |\   \          
                \     /   | |  | | |  |  |  |  | |\  \  |  | \   \       
                 \___/    |_|  |_| |__|  |__|  |_| \__\ |__|  \__/        
                                                                              
                      - O R C A' S   B I G   F R I E N D -                    
                                      &                                       
                       - I N T E G R A L  F E E D E R -                       
                                                                              
 v1 FN, 2020, v2 2021                                                         
------------------------------------------------------------------------------


Reading SHARK input file Nq_gas.SHARKINP.tmp ... ok
----------------------
SHARK INTEGRAL PACKAGE
----------------------

Number of atoms                             ...     32
Number of basis functions                   ...    244
Number of shells                            ...    124
Maximum angular momentum                    ...      2
Integral batch strategy                     ... SHARK/LIBINT Hybrid
RI-J (if used) integral strategy            ... SPLIT-RIJ (Revised 2003 algorithm where possible)
Printlevel                                  ...      1
Contraction scheme used                     ... SEGMENTED contraction
Coulomb Range Separation                    ... NOT USED
Exchange Range Separation                   ... NOT USED
Finite Nucleus Model                        ... NOT USED
Auxiliary Coulomb fitting basis             ... AVAILABLE
   # of basis functions in Aux-J            ...   1911
   # of shells in Aux-J                     ...    733
   Maximum angular momentum in Aux-J        ...      3
Auxiliary J/K fitting basis                 ... AVAILABLE
   # of basis functions in Aux-JK           ...   1911
   # of shells in Aux-JK                    ...    733
   Maximum angular momentum in Aux-JK       ...      3
Auxiliary Correlation fitting basis         ... AVAILABLE
   # of basis functions in Aux-C            ...   1911
   # of shells in Aux-C                     ...    733
   Maximum angular momentum in Aux-C        ...      3
Auxiliary 'external' fitting basis          ... NOT available
Integral threshold                          ...     2.500000e-11
Primitive cut-off                           ...     2.500000e-12
Primitive pair pre-selection threshold      ...     2.500000e-12

Calculating pre-screening integrals         ... done (  0.0 sec) Dimension = 124
Organizing shell pair data                  ... done (  0.0 sec)
Shell pair information
Total number of shell pairs                 ...      7750
Shell pairs after pre-screening             ...      6598
Total number of primitive shell pairs       ...     43437
Primitive shell pairs kept                  ...     21520
          la=0 lb=0:   2617 shell pairs
          la=1 lb=0:   2118 shell pairs
          la=1 lb=1:    440 shell pairs
          la=2 lb=0:    935 shell pairs
          la=2 lb=1:    394 shell pairs
          la=2 lb=2:     94 shell pairs

Calculating one electron integrals          ... done (  0.0 sec)
Calculating RI/J V-Matrix + Cholesky decomp.... done (  0.2 sec)
Calculating RI/JK V-Matrix + Cholesky decomp... done (  0.2 sec)
Calculating RI/C V-Matrix + Cholesky decomp.... done (  0.2 sec)
Calculating Nuclear repulsion               ... done (  0.0 sec) ENN=   1087.461486778013 Eh

SHARK setup successfully completed in   0.9 seconds

Maximum memory used throughout the entire GTOINT-calculation: 32.4 MB


           ************************************************************
           *        Program running with 4 parallel MPI-processes     *
           *              working on a common directory               *
           ************************************************************
-------------------------------------------------------------------------------
                                 ORCA SCF
-------------------------------------------------------------------------------

------------
SCF SETTINGS
------------
Hamiltonian:
 Density Functional     Method          .... DFT(GTOs)
 Exchange Functional    Exchange        .... B88
   X-Alpha parameter    XAlpha          ....  0.666667
   Becke's b parameter  XBeta           ....  0.004200
 Correlation Functional Correlation     .... LYP
 LDA part of GGA corr.  LDAOpt          .... VWN-5
 Gradients option       PostSCFGGA      .... off
 Hybrid DFT is turned on
   Fraction HF Exchange ScalHFX         ....  0.200000
   Scaling of DF-GGA-X  ScalDFX         ....  0.720000
   Scaling of DF-GGA-C  ScalDFC         ....  0.810000
   Scaling of DF-LDA-C  ScalLDAC        ....  1.000000
   Perturbative correction              ....  0.000000
   Density functional embedding theory  .... OFF
   NL short-range parameter             ....  4.800000
 RI-approximation to the Coulomb term is turned on
   Number of AuxJ basis functions       .... 1911
   RIJ-COSX (HFX calculated with COS-X)).... on


General Settings:
 Integral files         IntName         .... Nq_gas
 Hartree-Fock type      HFTyp           .... RHF
 Total Charge           Charge          ....    0
 Multiplicity           Mult            ....    1
 Number of Electrons    NEL             ....  116
 Basis Dimension        Dim             ....  244
 Nuclear Repulsion      ENuc            ....   1087.4614867780 Eh

Convergence Acceleration:
 DIIS                   CNVDIIS         .... on
   Start iteration      DIISMaxIt       ....    12
   Startup error        DIISStart       ....  0.200000
   # of expansion vecs  DIISMaxEq       ....     5
   Bias factor          DIISBfac        ....   1.050
   Max. coefficient     DIISMaxC        ....  10.000
 Trust-Rad. Augm. Hess. CNVTRAH         .... auto
   Auto Start mean grad. ratio tolernc. ....  1.125000
   Auto Start start iteration           ....    20
   Auto Start num. interpolation iter.  ....    10
   Max. Number of Micro iterations      ....    16
   Max. Number of Macro iterations      .... Maxiter - #DIIS iter
   Number of Davidson start vectors     ....     2
   Converg. threshold I  (grad. norm)   ....   1.000e-05
   Converg. threshold II (energy diff.) ....   1.000e-08
   Grad. Scal. Fac. for Micro threshold ....   0.100
   Minimum threshold for Micro iter.    ....   0.010
   NR start threshold (gradient norm)   ....   0.001
   Initial trust radius                 ....   0.400
   Minimum AH scaling param. (alpha)    ....   1.000
   Maximum AH scaling param. (alpha)    .... 1000.000
   Orbital update algorithm             .... Taylor
   White noise on init. David. guess    .... on
   Maximum white noise                  ....   0.010
   Quad. conv. algorithm                .... NR
 SOSCF                  CNVSOSCF        .... on
   Start iteration      SOSCFMaxIt      ....   150
   Startup grad/error   SOSCFStart      ....  0.003300
 Level Shifting         CNVShift        .... on
   Level shift para.    LevelShift      ....    0.2500
   Turn off err/grad.   ShiftErr        ....    0.0010
 Zerner damping         CNVZerner       .... off
 Static damping         CNVDamp         .... on
   Fraction old density DampFac         ....    0.7000
   Max. Damping (<1)    DampMax         ....    0.9800
   Min. Damping (>=0)   DampMin         ....    0.0000
   Turn off err/grad.   DampErr         ....    0.1000
 Fernandez-Rico         CNVRico         .... off

SCF Procedure:
 Maximum # iterations   MaxIter         ....   125
 SCF integral mode      SCFMode         .... Direct
   Integral package                     .... SHARK and LIBINT hybrid scheme
 Reset frequency        DirectResetFreq ....    20
 Integral Threshold     Thresh          ....  2.500e-11 Eh
 Primitive CutOff       TCut            ....  2.500e-12 Eh

Convergence Tolerance:
 Convergence Check Mode ConvCheckMode   .... Total+1el-Energy
 Convergence forced     ConvForced      .... 0
 Energy Change          TolE            ....  1.000e-08 Eh
 1-El. energy change                    ....  1.000e-05 Eh
 Orbital Gradient       TolG            ....  1.000e-05
 Orbital Rotation angle TolX            ....  1.000e-05
 DIIS Error             TolErr          ....  5.000e-07


Diagonalization of the overlap matrix:
Smallest eigenvalue                        ... 2.790e-03
Time for diagonalization                   ...    0.009 sec
Threshold for overlap eigenvalues          ... 1.000e-08
Number of eigenvalues below threshold      ... 0
Time for construction of square roots      ...    0.005 sec
Total time needed                          ...    0.015 sec

Time for model grid setup =    0.251 sec

------------------------------
INITIAL GUESS: MODEL POTENTIAL
------------------------------
Loading Hartree-Fock densities                     ... done
Calculating cut-offs                               ... done
Initializing the effective Hamiltonian             ... done
Setting up the integral package (SHARK)            ... done
Starting the Coulomb interaction                   ... done (   0.2 sec)
Reading the grid                                   ... done
Mapping shells                                     ... done
Starting the XC term evaluation                    ... done (   0.2 sec)
  promolecular density results
     # of electrons  =    115.997625680
     EX              =    -95.672647301
     EC              =     -3.948673275
     EX+EC           =    -99.621320575
Transforming the Hamiltonian                       ... done (   0.0 sec)
Diagonalizing the Hamiltonian                      ... done (   0.0 sec)
Back transforming the eigenvectors                 ... done (   0.0 sec)
Now organizing SCF variables                       ... done
                      ------------------
                      INITIAL GUESS DONE (   0.6 sec)
                      ------------------
-------------------
DFT GRID GENERATION
-------------------

General Integration Accuracy     IntAcc      ... 4.388
Radial Grid Type                 RadialGrid  ... OptM3 with GC (2021)
Angular Grid (max. ang.)         AngularGrid ... 4 (Lebedev-302)
Angular grid pruning method      GridPruning ... 4 (adaptive)
Weight generation scheme         WeightScheme... Becke
Basis function cutoff            BFCut       ... 1.0000e-11
Integration weight cutoff        WCut        ... 1.0000e-14
Angular grids for H and He will be reduced by one unit
Partially contracted basis set               ... off
Rotationally invariant grid construction     ... off

Total number of grid points                  ...   143864
Total number of batches                      ...     2266
Average number of points per batch           ...       63
Average number of grid points per atom       ...     4496
Time for grid setup =    1.098 sec

--------------------
COSX GRID GENERATION
--------------------

GRIDX 1
-------
General Integration Accuracy     IntAcc      ... 3.816
Radial Grid Type                 RadialGrid  ... OptM3 with GC (2021)
Angular Grid (max. ang.)         AngularGrid ... 1 (Lebedev-50)
Angular grid pruning method      GridPruning ... 4 (adaptive)
Weight generation scheme         WeightScheme... Becke
Basis function cutoff            BFCut       ... 1.0000e-11
Integration weight cutoff        WCut        ... 1.0000e-14
Angular grids for H and He will be reduced by one unit
Partially contracted basis set               ... on
Rotationally invariant grid construction     ... off

Total number of grid points                  ...    18312
Total number of batches                      ...      306
Average number of points per batch           ...       59
Average number of grid points per atom       ...      572
UseSFitting                                  ... on

GRIDX 2
-------
General Integration Accuracy     IntAcc      ... 4.020
Radial Grid Type                 RadialGrid  ... OptM3 with GC (2021)
Angular Grid (max. ang.)         AngularGrid ... 2 (Lebedev-110)
Angular grid pruning method      GridPruning ... 4 (adaptive)
Weight generation scheme         WeightScheme... Becke
Basis function cutoff            BFCut       ... 1.0000e-11
Integration weight cutoff        WCut        ... 1.0000e-14
Angular grids for H and He will be reduced by one unit
Partially contracted basis set               ... on
Rotationally invariant grid construction     ... off

Total number of grid points                  ...    38997
Total number of batches                      ...      625
Average number of points per batch           ...       62
Average number of grid points per atom       ...     1219
UseSFitting                                  ... on

GRIDX 3
-------
General Integration Accuracy     IntAcc      ... 4.338
Radial Grid Type                 RadialGrid  ... OptM3 with GC (2021)
Angular Grid (max. ang.)         AngularGrid ... 3 (Lebedev-194)
Angular grid pruning method      GridPruning ... 4 (adaptive)
Weight generation scheme         WeightScheme... Becke
Basis function cutoff            BFCut       ... 1.0000e-11
Integration weight cutoff        WCut        ... 1.0000e-14
Angular grids for H and He will be reduced by one unit
Partially contracted basis set               ... on
Rotationally invariant grid construction     ... off

Total number of grid points                  ...    85009
Total number of batches                      ...     1348
Average number of points per batch           ...       63
Average number of grid points per atom       ...     2657
UseSFitting                                  ... on

Time for X-Grid setup             =    1.165 sec

--------------
SCF ITERATIONS
--------------
ITER       Energy         Delta-E        Max-DP      RMS-DP      [F,P]     Damp
               ***  Starting incremental Fock matrix formation  ***
  0   -742.1946797351   0.000000000000 0.10427793  0.00246766  0.2809275 0.7000
  1   -742.4427060072  -0.248026272093 0.06056811  0.00158585  0.1104564 0.7000
                               ***Turning on DIIS***
  2   -742.5322376077  -0.089531600492 0.06811470  0.00230209  0.0436756 0.0000
  3   -742.6833562018  -0.151118594111 0.04002201  0.00109658  0.0577385 0.0000
  4   -742.7117436276  -0.028387425843 0.00892746  0.00034743  0.0126754 0.0000
  5   -742.7143253584  -0.002581730794 0.00284304  0.00010135  0.0033754 0.0000
                      *** Initiating the SOSCF procedure ***
                           *** Shutting down DIIS ***
                      *** Re-Reading the Fockian *** 
                      *** Removing any level shift *** 
ITER      Energy       Delta-E        Grad      Rot      Max-DP    RMS-DP
  6   -742.71441388  -0.0000885183  0.000260  0.000260  0.001172  0.000032
               *** Restarting incremental Fock matrix formation ***
  7   -742.71449133  -0.0000774546  0.000090  0.000337  0.000605  0.000021
  8   -742.71449167  -0.0000003433  0.000149  0.000200  0.000468  0.000010
  9   -742.71449274  -0.0000010696  0.000082  0.000172  0.000323  0.000007
 10   -742.71449271   0.0000000361  0.000088  0.000106  0.000131  0.000003
 11   -742.71449289  -0.0000001786  0.000010  0.000028  0.000050  0.000002
 12   -742.71449288   0.0000000045  0.000009  0.000010  0.000028  0.000001
 13   -742.71449290  -0.0000000215  0.000004  0.000012  0.000017  0.000000
 14   -742.71449290   0.0000000020  0.000006  0.000008  0.000010  0.000000
                 **** Energy Check signals convergence ****
              ***Rediagonalizing the Fockian in SOSCF/NRSCF***

               *****************************************************
               *                     SUCCESS                       *
               *           SCF CONVERGED AFTER  15 CYCLES          *
               *****************************************************

Old exchange energy                            =    -19.467880563 Eh
New exchange energy                            =    -19.467891019 Eh
Exchange energy change after final integration =     -0.000010457 Eh
Total energy after final integration           =   -742.714503364 Eh
Final COS-X integration done in                =     9.086 sec

----------------
TOTAL SCF ENERGY
----------------

Total Energy       :         -742.71450336 Eh          -20210.28911 eV

Components:
Nuclear Repulsion  :         1087.46148678 Eh           29591.33145 eV
Electronic Energy  :        -1830.17599014 Eh          -49801.62056 eV
One Electron Energy:        -3171.09572067 Eh          -86289.90145 eV
Two Electron Energy:         1340.91973053 Eh           36488.28090 eV
Max COSX asymmetry :            0.00000213 Eh               0.00006 eV

Virial components:
Potential Energy   :        -1481.09238883 Eh          -40302.57284 eV
Kinetic Energy     :          738.37788547 Eh           20092.28374 eV
Virial Ratio       :            2.00587317


DFT components:
N(Alpha)           :       57.999955637435 electrons
N(Beta)            :       57.999955637435 electrons
N(Total)           :      115.999911274869 electrons
E(X)               :      -77.349402769657 Eh       
E(C)               :       -4.651245482458 Eh       
E(XC)              :      -82.000648252114 Eh       
DFET-embed. en.    :        0.000000000000 Eh       

---------------
SCF CONVERGENCE
---------------

  Last Energy change         ...   -6.0162e-09  Tolerance :   1.0000e-08
  Last MAX-Density change    ...    3.9968e-15  Tolerance :   1.0000e-07
  Last RMS-Density change    ...    4.8094e-17  Tolerance :   5.0000e-09
  Last Orbital Gradient      ...    3.7516e-07  Tolerance :   1.0000e-05
  Last Orbital Rotation      ...    1.1114e-06  Tolerance :   1.0000e-05

             **** THE GBW FILE WAS UPDATED (Nq_gas.gbw) ****
             **** DENSITY Nq_gas.scfp WAS UPDATED ****
             **** ENERGY FILE WAS UPDATED (Nq_gas.en.tmp) ****
             **** THE GBW FILE WAS UPDATED (Nq_gas.gbw) ****
             **** DENSITY Nq_gas.scfp WAS UPDATED ****
----------------
ORBITAL ENERGIES
----------------

  NO   OCC          E(Eh)            E(eV) 
   0   2.0000     -19.110876      -520.0334 
   1   2.0000     -19.109961      -520.0085 
   2   2.0000     -19.105588      -519.8895 
   3   2.0000     -14.363733      -390.8571 
   4   2.0000     -14.360810      -390.7775 
   5   2.0000     -14.355649      -390.6371 
   6   2.0000     -10.289039      -279.9790 
   7   2.0000     -10.282961      -279.8136 
   8   2.0000     -10.279379      -279.7161 
   9   2.0000     -10.219115      -278.0763 
  10   2.0000     -10.213578      -277.9256 
  11   2.0000     -10.208309      -277.7822 
  12   2.0000     -10.206251      -277.7262 
  13   2.0000     -10.190835      -277.3067 
  14   2.0000     -10.175573      -276.8914 
  15   2.0000      -1.037791       -28.2397 
  16   2.0000      -1.028913       -27.9981 
  17   2.0000      -1.025137       -27.8954 
  18   2.0000      -0.937785       -25.5184 
  19   2.0000      -0.932134       -25.3647 
  20   2.0000      -0.908238       -24.7144 
  21   2.0000      -0.782900       -21.3038 
  22   2.0000      -0.757116       -20.6022 
  23   2.0000      -0.725512       -19.7422 
  24   2.0000      -0.712475       -19.3874 
  25   2.0000      -0.679955       -18.5025 
  26   2.0000      -0.665415       -18.1069 
  27   2.0000      -0.587950       -15.9989 
  28   2.0000      -0.556659       -15.1475 
  29   2.0000      -0.546958       -14.8835 
  30   2.0000      -0.540084       -14.6964 
  31   2.0000      -0.516721       -14.0607 
  32   2.0000      -0.492551       -13.4030 
  33   2.0000      -0.485283       -13.2052 
  34   2.0000      -0.474960       -12.9243 
  35   2.0000      -0.470969       -12.8157 
  36   2.0000      -0.459196       -12.4954 
  37   2.0000      -0.451655       -12.2902 
  38   2.0000      -0.430473       -11.7138 
  39   2.0000      -0.421014       -11.4564 
  40   2.0000      -0.408367       -11.1122 
  41   2.0000      -0.406651       -11.0655 
  42   2.0000      -0.404832       -11.0161 
  43   2.0000      -0.402979       -10.9656 
  44   2.0000      -0.399838       -10.8801 
  45   2.0000      -0.392384       -10.6773 
  46   2.0000      -0.383414       -10.4332 
  47   2.0000      -0.377869       -10.2823 
  48   2.0000      -0.375332       -10.2133 
  49   2.0000      -0.363626        -9.8948 
  50   2.0000      -0.352001        -9.5784 
  51   2.0000      -0.346870        -9.4388 
  52   2.0000      -0.272585        -7.4174 
  53   2.0000      -0.259583        -7.0636 
  54   2.0000      -0.252526        -6.8716 
  55   2.0000      -0.251130        -6.8336 
  56   2.0000      -0.240330        -6.5397 
  57   2.0000      -0.234047        -6.3687 
  58   0.0000       0.012769         0.3475 
  59   0.0000       0.018089         0.4922 
  60   0.0000       0.031890         0.8678 
  61   0.0000       0.064895         1.7659 
  62   0.0000       0.088100         2.3973 
  63   0.0000       0.107512         2.9256 
  64   0.0000       0.109763         2.9868 
  65   0.0000       0.117625         3.2007 
  66   0.0000       0.133135         3.6228 
  67   0.0000       0.142317         3.8726 
  68   0.0000       0.144957         3.9445 
  69   0.0000       0.155529         4.2322 
  70   0.0000       0.160021         4.3544 
  71   0.0000       0.160591         4.3699 
  72   0.0000       0.170933         4.6513 
  73   0.0000       0.177603         4.8328 
  74   0.0000       0.182982         4.9792 
  75   0.0000       0.183892         5.0040 
  76   0.0000       0.188743         5.1360 
  77   0.0000       0.197968         5.3870 
  78   0.0000       0.209239         5.6937 
  79   0.0000       0.219666         5.9774 
  80   0.0000       0.224596         6.1116 
  81   0.0000       0.230761         6.2793 
  82   0.0000       0.238539         6.4910 
  83   0.0000       0.249670         6.7939 
  84   0.0000       0.273238         7.4352 
  85   0.0000       0.287068         7.8115 
  86   0.0000       0.329624         8.9695 
  87   0.0000       0.338737         9.2175 
  88   0.0000       0.360290         9.8040 
  89   0.0000       0.376819        10.2538 
  90   0.0000       0.396238        10.7822 
  91   0.0000       0.420227        11.4350 
  92   0.0000       0.471522        12.8308 
  93   0.0000       0.493570        13.4307 
  94   0.0000       0.502505        13.6739 
  95   0.0000       0.507214        13.8020 
  96   0.0000       0.520851        14.1731 
  97   0.0000       0.532415        14.4878 
  98   0.0000       0.545056        14.8317 
  99   0.0000       0.560689        15.2571 
 100   0.0000       0.567247        15.4356 
 101   0.0000       0.587830        15.9957 
 102   0.0000       0.601128        16.3575 
 103   0.0000       0.605788        16.4843 
 104   0.0000       0.620953        16.8970 
 105   0.0000       0.638828        17.3834 
 106   0.0000       0.644669        17.5423 
 107   0.0000       0.654618        17.8131 
 108   0.0000       0.668702        18.1963 
 109   0.0000       0.669200        18.2099 
 110   0.0000       0.676701        18.4140 
 111   0.0000       0.686017        18.6675 
 112   0.0000       0.693675        18.8759 
 113   0.0000       0.715169        19.4607 
 114   0.0000       0.719198        19.5704 
 115   0.0000       0.747014        20.3273 
 116   0.0000       0.753515        20.5042 
 117   0.0000       0.763879        20.7862 
 118   0.0000       0.779403        21.2086 
 119   0.0000       0.794349        21.6153 
 120   0.0000       0.806208        21.9380 
 121   0.0000       0.814113        22.1531 
 122   0.0000       0.826952        22.5025 
 123   0.0000       0.837249        22.7827 
 124   0.0000       0.852728        23.2039 
 125   0.0000       0.856253        23.2998 
 126   0.0000       0.868842        23.6424 
 127   0.0000       0.871118        23.7043 
 128   0.0000       0.876416        23.8485 
 129   0.0000       0.881972        23.9997 
 130   0.0000       0.887440        24.1485 
 131   0.0000       0.893975        24.3263 
 132   0.0000       0.901105        24.5203 
 133   0.0000       0.913487        24.8572 
 134   0.0000       0.924866        25.1669 
 135   0.0000       0.931048        25.3351 
 136   0.0000       0.938175        25.5291 
 137   0.0000       0.958011        26.0688 
 138   0.0000       0.969530        26.3823 
 139   0.0000       0.973832        26.4993 
 140   0.0000       0.986238        26.8369 
 141   0.0000       0.990788        26.9607 
 142   0.0000       1.000861        27.2348 
 143   0.0000       1.006593        27.3908 
 144   0.0000       1.031722        28.0746 
 145   0.0000       1.041620        28.3439 
 146   0.0000       1.073780        29.2190 
 147   0.0000       1.100399        29.9434 
 148   0.0000       1.122682        30.5497 
 149   0.0000       1.139603        31.0102 
 150   0.0000       1.153652        31.3925 
 151   0.0000       1.158451        31.5231 
 152   0.0000       1.168998        31.8100 
 153   0.0000       1.216877        33.1129 
 154   0.0000       1.256428        34.1891 
 155   0.0000       1.264143        34.3991 
 156   0.0000       1.274928        34.6926 
 157   0.0000       1.304274        35.4911 
 158   0.0000       1.321522        35.9604 
 159   0.0000       1.340092        36.4658 
 160   0.0000       1.357133        36.9295 
 161   0.0000       1.399566        38.0841 
 162   0.0000       1.411367        38.4052 
 163   0.0000       1.425245        38.7829 
 164   0.0000       1.432041        38.9678 
 165   0.0000       1.434699        39.0401 
 166   0.0000       1.460542        39.7434 
 167   0.0000       1.480847        40.2959 
 168   0.0000       1.496540        40.7229 
 169   0.0000       1.536906        41.8213 
 170   0.0000       1.577823        42.9347 
 171   0.0000       1.616102        43.9764 
 172   0.0000       1.662436        45.2372 
 173   0.0000       1.686284        45.8861 
 174   0.0000       1.707124        46.4532 
 175   0.0000       1.715298        46.6756 
 176   0.0000       1.739973        47.3471 
 177   0.0000       1.757185        47.8154 
 178   0.0000       1.779105        48.4119 
 179   0.0000       1.786722        48.6192 
 180   0.0000       1.801251        49.0145 
 181   0.0000       1.804256        49.0963 
 182   0.0000       1.830953        49.8228 
 183   0.0000       1.842447        50.1355 
 184   0.0000       1.848749        50.3070 
 185   0.0000       1.883791        51.2605 
 186   0.0000       1.885036        51.2945 
 187   0.0000       1.900571        51.7172 
 188   0.0000       1.907801        51.9139 
 189   0.0000       1.921779        52.2943 
 190   0.0000       1.942698        52.8635 
 191   0.0000       1.948735        53.0278 
 192   0.0000       1.958046        53.2811 
 193   0.0000       1.968772        53.5730 
 194   0.0000       1.982767        53.9538 
 195   0.0000       1.986003        54.0419 
 196   0.0000       2.022624        55.0384 
 197   0.0000       2.028833        55.2074 
 198   0.0000       2.040331        55.5202 
 199   0.0000       2.051043        55.8117 
 200   0.0000       2.071249        56.3615 
 201   0.0000       2.080142        56.6035 
 202   0.0000       2.090790        56.8933 
 203   0.0000       2.103452        57.2378 
 204   0.0000       2.131603        58.0039 
 205   0.0000       2.148790        58.4716 
 206   0.0000       2.194039        59.7028 
 207   0.0000       2.205699        60.0201 
 208   0.0000       2.212905        60.2162 
 209   0.0000       2.238678        60.9175 
 210   0.0000       2.257002        61.4162 
 211   0.0000       2.273540        61.8662 
 212   0.0000       2.281873        62.0929 
 213   0.0000       2.305451        62.7345 
 214   0.0000       2.319925        63.1284 
 215   0.0000       2.337507        63.6068 
 216   0.0000       2.366110        64.3851 
 217   0.0000       2.384202        64.8774 
 218   0.0000       2.413586        65.6770 
 219   0.0000       2.419730        65.8442 
 220   0.0000       2.420862        65.8750 
 221   0.0000       2.463925        67.0468 
 222   0.0000       2.484046        67.5943 
 223   0.0000       2.508719        68.2657 
 224   0.0000       2.545797        69.2747 
 225   0.0000       2.568543        69.8936 
 226   0.0000       2.604499        70.8720 
 227   0.0000       2.614357        71.1403 
 228   0.0000       2.641947        71.8910 
 229   0.0000       2.653344        72.2012 
 230   0.0000       2.665323        72.5271 
 231   0.0000       2.687198        73.1224 
 232   0.0000       2.721879        74.0661 
 233   0.0000       2.732127        74.3450 
 234   0.0000       2.743468        74.6536 
 235   0.0000       2.840783        77.3016 
 236   0.0000       2.937473        79.9327 
 237   0.0000       2.967382        80.7466 
 238   0.0000       2.991650        81.4069 
 239   0.0000       3.010206        81.9119 
 240   0.0000       3.020992        82.2054 
 241   0.0000       3.065060        83.4045 
 242   0.0000       3.165496        86.1375 
 243   0.0000       3.184361        86.6509 

                    ********************************
                    * MULLIKEN POPULATION ANALYSIS *
                    ********************************

-----------------------
MULLIKEN ATOMIC CHARGES
-----------------------
   0 C :   -0.557059
   1 H :    0.183424
   2 H :    0.181359
   3 H :    0.181832
   4 C :    0.519735
   5 O :   -0.466800
   6 N :   -0.383950
   7 C :   -0.246105
   8 H :    0.173256
   9 H :    0.200104
  10 C :   -0.169565
  11 H :    0.195588
  12 H :    0.173290
  13 C :   -0.373191
  14 H :    0.171118
  15 H :    0.173755
  16 C :    0.528393
  17 N :   -0.364749
  18 O :   -0.502994
  19 C :   -0.348928
  20 H :    0.151172
  21 H :    0.156609
  22 H :    0.217709
  23 C :   -0.320729
  24 H :    0.147863
  25 H :    0.199602
  26 H :    0.154693
  27 C :    0.543419
  28 O :   -0.473008
  29 N :   -0.733401
  30 H :    0.344403
  31 H :    0.343152
Sum of atomic charges:   -0.0000000

--------------------------------
MULLIKEN REDUCED ORBITAL CHARGES
--------------------------------
  0 C s       :     3.325477  s :     3.325477
      pz      :     1.095169  p :     3.199810
      px      :     1.002836
      py      :     1.101804
      dz2     :     0.005011  d :     0.031772
      dxz     :     0.006072
      dyz     :     0.007839
      dx2y2   :     0.006580
      dxy     :     0.006270
  1 H s       :     0.816576  s :     0.816576
  2 H s       :     0.818641  s :     0.818641
  3 H s       :     0.818168  s :     0.818168
  4 C s       :     2.981467  s :     2.981467
      pz      :     0.793016  p :     2.387988
      px      :     0.831030
      py      :     0.763942
      dz2     :     0.011601  d :     0.110810
      dxz     :     0.014117
      dyz     :     0.019338
      dx2y2   :     0.042183
      dxy     :     0.023570
  5 O s       :     3.863533  s :     3.863533
      pz      :     1.480173  p :     4.576083
      px      :     1.512116
      py      :     1.583794
      dz2     :     0.003214  d :     0.027185
      dxz     :     0.005848
      dyz     :     0.003895
      dx2y2   :     0.006564
      dxy     :     0.007664
  6 N s       :     3.532626  s :     3.532626
      pz      :     1.540724  p :     3.815038
      px      :     1.087706
      py      :     1.186608
      dz2     :     0.004340  d :     0.036285
      dxz     :     0.005346
      dyz     :     0.005630
      dx2y2   :     0.010694
      dxy     :     0.010275
  7 C s       :     3.247489  s :     3.247489
      pz      :     1.070948  p :     2.946429
      px      :     0.866608
      py      :     1.008873
      dz2     :     0.013507  d :     0.052187
      dxz     :     0.008285
      dyz     :     0.007076
      dx2y2   :     0.009983
      dxy     :     0.013336
  8 H s       :     0.826744  s :     0.826744
  9 H s       :     0.799896  s :     0.799896
 10 C s       :     3.215199  s :     3.215199
      pz      :     1.007748  p :     2.900382
      px      :     0.946305
      py      :     0.946329
      dz2     :     0.009695  d :     0.053984
      dxz     :     0.008410
      dyz     :     0.012962
      dx2y2   :     0.006276
      dxy     :     0.016641
 11 H s       :     0.804412  s :     0.804412
 12 H s       :     0.826710  s :     0.826710
 13 C s       :     3.276395  s :     3.276395
      pz      :     1.025584  p :     3.059582
      px      :     0.979474
      py      :     1.054524
      dz2     :     0.009511  d :     0.037214
      dxz     :     0.003170
      dyz     :     0.008441
      dx2y2   :     0.005407
      dxy     :     0.010684
 14 H s       :     0.828882  s :     0.828882
 15 H s       :     0.826245  s :     0.826245
 16 C s       :     2.982283  s :     2.982283
      pz      :     0.769038  p :     2.381753
      px      :     0.807405
      py      :     0.805310
      dz2     :     0.032215  d :     0.107572
      dxz     :     0.017610
      dyz     :     0.027905
      dx2y2   :     0.015427
      dxy     :     0.014415
 17 N s       :     3.531341  s :     3.531341
      pz      :     1.100401  p :     3.795926
      px      :     1.589803
      py      :     1.105722
      dz2     :     0.008997  d :     0.037481
      dxz     :     0.006682
      dyz     :     0.011294
      dx2y2   :     0.005884
      dxy     :     0.004624
 18 O s       :     3.876724  s :     3.876724
      pz      :     1.666287  p :     4.600332
      px      :     1.478580
      py      :     1.455465
      dz2     :     0.003894  d :     0.025937
      dxz     :     0.002497
      dyz     :     0.007700
      dx2y2   :     0.005044
      dxy     :     0.006802
 19 C s       :     3.271404  s :     3.271404
      pz      :     1.010896  p :     3.029171
      px      :     1.082213
      py      :     0.936062
      dz2     :     0.002812  d :     0.048353
      dxz     :     0.014587
      dyz     :     0.013859
      dx2y2   :     0.012485
      dxy     :     0.004610
 20 H s       :     0.848828  s :     0.848828
 21 H s       :     0.843391  s :     0.843391
 22 H s       :     0.782291  s :     0.782291
 23 C s       :     3.253586  s :     3.253586
      pz      :     1.044187  p :     3.018921
      px      :     1.065259
      py      :     0.909475
      dz2     :     0.002537  d :     0.048222
      dxz     :     0.013256
      dyz     :     0.014025
      dx2y2   :     0.011697
      dxy     :     0.006708
 24 H s       :     0.852137  s :     0.852137
 25 H s       :     0.800398  s :     0.800398
 26 H s       :     0.845307  s :     0.845307
 27 C s       :     2.982212  s :     2.982212
      pz      :     0.770885  p :     2.364308
      px      :     0.853250
      py      :     0.740172
      dz2     :     0.007471  d :     0.110061
      dxz     :     0.011272
      dyz     :     0.021066
      dx2y2   :     0.045242
      dxy     :     0.025011
 28 O s       :     3.866086  s :     3.866086
      pz      :     1.440872  p :     4.580355
      px      :     1.527496
      py      :     1.611986
      dz2     :     0.002933  d :     0.026567
      dxz     :     0.005927
      dyz     :     0.003930
      dx2y2   :     0.006169
      dxy     :     0.007608
 29 N s       :     3.585968  s :     3.585968
      pz      :     1.728544  p :     4.122249
      px      :     1.230378
      py      :     1.163328
      dz2     :     0.003961  d :     0.025184
      dxz     :     0.001161
      dyz     :     0.003097
      dx2y2   :     0.005265
      dxy     :     0.011700
 30 H s       :     0.655597  s :     0.655597
 31 H s       :     0.656848  s :     0.656848


                     *******************************
                     * LOEWDIN POPULATION ANALYSIS *
                     *******************************

----------------------
LOEWDIN ATOMIC CHARGES
----------------------
   0 C :   -0.394800
   1 H :    0.146627
   2 H :    0.150666
   3 H :    0.150185
   4 C :    0.107516
   5 O :   -0.274642
   6 N :   -0.082805
   7 C :   -0.178693
   8 H :    0.140802
   9 H :    0.156768
  10 C :   -0.157085
  11 H :    0.148906
  12 H :    0.139590
  13 C :   -0.271593
  14 H :    0.139090
  15 H :    0.146303
  16 C :    0.096844
  17 N :   -0.077382
  18 O :   -0.306717
  19 C :   -0.286451
  20 H :    0.122208
  21 H :    0.127442
  22 H :    0.158090
  23 C :   -0.278782
  24 H :    0.120432
  25 H :    0.154610
  26 H :    0.127626
  27 C :    0.109625
  28 O :   -0.285412
  29 N :   -0.363470
  30 H :    0.258230
  31 H :    0.256275

-------------------------------
LOEWDIN REDUCED ORBITAL CHARGES
-------------------------------
  0 C s       :     2.986302  s :     2.986302
      pz      :     1.138792  p :     3.346247
      px      :     1.068095
      py      :     1.139361
      dz2     :     0.009275  d :     0.062251
      dxz     :     0.012043
      dyz     :     0.014235
      dx2y2   :     0.014073
      dxy     :     0.012626
  1 H s       :     0.853373  s :     0.853373
  2 H s       :     0.849334  s :     0.849334
  3 H s       :     0.849815  s :     0.849815
  4 C s       :     2.848156  s :     2.848156
      pz      :     0.829625  p :     2.782255
      px      :     1.022273
      py      :     0.930358
      dz2     :     0.025758  d :     0.262072
      dxz     :     0.028888
      dyz     :     0.045893
      dx2y2   :     0.105995
      dxy     :     0.055539
  5 O s       :     3.553359  s :     3.553359
      pz      :     1.478737  p :     4.665596
      px      :     1.583776
      py      :     1.603082
      dz2     :     0.006995  d :     0.055687
      dxz     :     0.009547
      dyz     :     0.006686
      dx2y2   :     0.013001
      dxy     :     0.019459
  6 N s       :     3.096788  s :     3.096788
      pz      :     1.516999  p :     3.891001
      px      :     1.151569
      py      :     1.222432
      dz2     :     0.009055  d :     0.095016
      dxz     :     0.013356
      dyz     :     0.013436
      dx2y2   :     0.030505
      dxy     :     0.028664
  7 C s       :     2.930031  s :     2.930031
      pz      :     1.102758  p :     3.138022
      px      :     0.965199
      py      :     1.070065
      dz2     :     0.027032  d :     0.110640
      dxz     :     0.017453
      dyz     :     0.014894
      dx2y2   :     0.022656
      dxy     :     0.028605
  8 H s       :     0.859198  s :     0.859198
  9 H s       :     0.843232  s :     0.843232
 10 C s       :     2.920098  s :     2.920098
      pz      :     1.078172  p :     3.122283
      px      :     1.019816
      py      :     1.024294
      dz2     :     0.019203  d :     0.114705
      dxz     :     0.017753
      dyz     :     0.029103
      dx2y2   :     0.013370
      dxy     :     0.035275
 11 H s       :     0.851094  s :     0.851094
 12 H s       :     0.860410  s :     0.860410
 13 C s       :     2.948763  s :     2.948763
      pz      :     1.086939  p :     3.243367
      px      :     1.057143
      py      :     1.099286
      dz2     :     0.019438  d :     0.079463
      dxz     :     0.006907
      dyz     :     0.018420
      dx2y2   :     0.012566
      dxy     :     0.022133
 14 H s       :     0.860910  s :     0.860910
 15 H s       :     0.853697  s :     0.853697
 16 C s       :     2.854009  s :     2.854009
      pz      :     0.952602  p :     2.794869
      px      :     0.827612
      py      :     1.014655
      dz2     :     0.080084  d :     0.254278
      dxz     :     0.039228
      dyz     :     0.068299
      dx2y2   :     0.036774
      dxy     :     0.029891
 17 N s       :     3.089717  s :     3.089717
      pz      :     1.179821  p :     3.890017
      px      :     1.542288
      py      :     1.167908
      dz2     :     0.026244  d :     0.097649
      dxz     :     0.014889
      dyz     :     0.032943
      dx2y2   :     0.013128
      dxy     :     0.010445
 18 O s       :     3.570562  s :     3.570562
      pz      :     1.676254  p :     4.683389
      px      :     1.472572
      py      :     1.534562
      dz2     :     0.007565  d :     0.052766
      dxz     :     0.003789
      dyz     :     0.018372
      dx2y2   :     0.013110
      dxy     :     0.009930
 19 C s       :     2.963238  s :     2.963238
      pz      :     1.071234  p :     3.226701
      px      :     1.137522
      py      :     1.017945
      dz2     :     0.005584  d :     0.096513
      dxz     :     0.028747
[...]
     61       0.005449   0.000454  -0.007385   0.002732  -0.000011   0.000004
     62      -0.087454  -0.006803   0.112043  -0.022816   0.000029  -0.000044
     63      -0.100281  -0.007329   0.138045  -0.029155  -0.000118  -0.000027
     64      -0.013359  -0.001051   0.017435  -0.002660   0.000000  -0.000017
     65      -0.015167  -0.001107   0.021185  -0.004530  -0.000015  -0.000019
     66      -0.187733  -0.013992   0.263202  -0.055657   0.000101  -0.000051
     67       0.432825   0.031989  -0.616075   0.130220  -0.000101   0.000050
     68      -0.273433  -0.020161   0.392309  -0.082195   0.000084  -0.000044
     69       0.000500   0.000058  -0.002915  -0.015302   0.000008   0.000005
     70       0.002171   0.000167  -0.011777  -0.060396  -0.000018   0.000012
     71       0.001928   0.000174  -0.012026  -0.062022   0.000006  -0.000002
     72       0.003569   0.000400  -0.021296  -0.105002   0.000049  -0.000026
     73       0.000920   0.000124  -0.004542  -0.019054  -0.000006   0.000020
     74      -0.003944  -0.000464   0.025028   0.122344  -0.000085   0.000104
     75      -0.003560  -0.000269   0.022798   0.119910  -0.000027   0.000079
     76      -0.021652  -0.001804   0.137272   0.736220  -0.000001   0.000004
     77      -0.017606  -0.001430   0.110559   0.584943   0.000076  -0.000054
     78      -0.005954  -0.000792   0.034243   0.172690  -0.000085  -0.000065
     79       0.000120   0.000014  -0.000049   0.003688   0.000027  -0.000047
     80      -0.001555  -0.000228   0.009184   0.046748  -0.000036  -0.000011
     81      -0.000028  -0.000056  -0.000013   0.000008  -0.000487   0.001757
     82       0.000032  -0.000078  -0.000057  -0.000002  -0.001800   0.000266
     83      -0.000013   0.000032  -0.000018   0.000005   0.000424   0.000113
     84       0.000010   0.000070  -0.000006  -0.000007   0.000498  -0.000506
     85      -0.000030   0.000111   0.000035   0.000003  -0.000653   0.000419
     86       0.000011  -0.000065  -0.000004  -0.000002   0.000097  -0.000103
     87       0.000004   0.000003   0.000024  -0.000002   0.018839   0.082427
     88      -0.000010   0.000031   0.000024   0.000000   0.050205  -0.024832
     89      -0.000000  -0.000011  -0.000006  -0.000004   0.001815   0.008115
     90       0.000041  -0.000005   0.000086  -0.000027  -0.726236  -0.604478
     91       0.000006   0.000071   0.000053   0.000002  -0.224634  -0.195242
     92       0.000013  -0.000000   0.000066   0.000002  -0.073797  -0.063375
     93      -0.000088   0.000254  -0.000132   0.000041   0.466716  -0.549746
     94       0.000027  -0.000352   0.000115   0.000013  -0.440494   0.529494
     95       0.000014   0.000067   0.000039   0.000064   0.043398  -0.048795


-----------
IR SPECTRUM
-----------

 Mode   freq       eps      Int      T**2         TX        TY        TZ
       cm**-1   L/(mol*cm) km/mol    a.u.
----------------------------------------------------------------------------
  6:     11.64   0.000525    2.65  0.014064  (-0.103019 -0.034220  0.047751)
  7:     28.79   0.000759    3.84  0.008232  (-0.059424 -0.064266 -0.023894)
  8:     36.13   0.001361    6.88  0.011753  (-0.000773  0.010111  0.107935)
  9:     63.58   0.000028    0.14  0.000138  ( 0.006559  0.008649 -0.004547)
 10:     70.79   0.001374    6.94  0.006055  (-0.071710  0.006851  0.029423)
 11:     99.42   0.000169    0.86  0.000531  ( 0.007359  0.015421 -0.015469)
 12:    104.84   0.000797    4.03  0.002373  ( 0.042164  0.006347 -0.023552)
 13:    129.07   0.001740    8.79  0.004208  ( 0.023108 -0.049455  0.035040)
 14:    139.43   0.000907    4.58  0.002030  ( 0.038069 -0.020069  0.013325)
 15:    170.08   0.000062    0.31  0.000114  (-0.005693 -0.005594 -0.007079)
 16:    177.11   0.000155    0.78  0.000273  ( 0.003970 -0.001182 -0.015981)
 17:    188.97   0.000892    4.51  0.001474  ( 0.026408  0.007403 -0.026858)
 18:    204.85   0.043057  217.59  0.065591  (-0.022566 -0.019548  0.254362)
 19:    231.22   0.000128    0.65  0.000172  (-0.000409 -0.009555 -0.008996)
 20:    252.73   0.000397    2.01  0.000490  (-0.021687 -0.004237 -0.001453)
 21:    285.08   0.002312   11.69  0.002531  (-0.048704  0.007872  0.009855)
 22:    360.29   0.001769    8.94  0.001533  ( 0.006150 -0.006314  0.038142)
 23:    365.55   0.000274    1.38  0.000234  (-0.003171 -0.010766 -0.010372)
 24:    395.62   0.001077    5.44  0.000850  ( 0.004780 -0.019548  0.021085)
 25:    435.11   0.000145    0.73  0.000104  ( 0.004662  0.008754 -0.002333)
 26:    447.41   0.001613    8.15  0.001125  ( 0.032901 -0.006090  0.002360)
 27:    476.41   0.001728    8.73  0.001132  (-0.022647 -0.024836  0.001471)
 28:    482.43   0.002062   10.42  0.001334  ( 0.031736 -0.013766 -0.011724)
 29:    548.36   0.004600   23.24  0.002618  ( 0.033227  0.032272 -0.021724)
 30:    575.35   0.002578   13.03  0.001398  ( 0.005297 -0.035687 -0.009821)
 31:    589.10   0.002582   13.05  0.001368  ( 0.017842  0.008473  0.031271)
 32:    600.69   0.002557   12.92  0.001328  ( 0.004209 -0.012746  0.033885)
 33:    638.43   0.000829    4.19  0.000405  ( 0.000043 -0.004241 -0.019684)
 34:    693.80   0.001104    5.58  0.000496  (-0.001685 -0.006937 -0.021107)
 35:    714.32   0.000891    4.50  0.000389  (-0.008566 -0.004619  0.017167)
 36:    760.11   0.000465    2.35  0.000191  (-0.007559 -0.005951  0.009926)
 37:    799.13   0.002548   12.88  0.000995  ( 0.028415 -0.011271  0.007775)
 38:    833.53   0.001079    5.45  0.000404  ( 0.008816 -0.002038  0.017944)
 39:    917.51   0.001160    5.86  0.000394  (-0.000253  0.011487  0.016201)
 40:    959.71   0.000587    2.97  0.000191  ( 0.000466  0.008806  0.010641)
 41:   1003.81   0.003950   19.96  0.001228  (-0.019246  0.008710 -0.027962)
 42:   1019.45   0.004120   20.82  0.001261  (-0.004254  0.034383 -0.007798)
 43:   1033.08   0.003786   19.13  0.001144  ( 0.019001 -0.026493 -0.008980)
 44:   1040.96   0.002351   11.88  0.000705  (-0.004505 -0.014719  0.021632)
 45:   1062.45   0.000548    2.77  0.000161  ( 0.002486 -0.002909  0.012099)
 46:   1090.22   0.004304   21.75  0.001232  (-0.012668 -0.018425 -0.027058)
 47:   1097.19   0.000689    3.48  0.000196  (-0.000759  0.011829 -0.007448)
 48:   1127.55   0.005134   25.95  0.001421  (-0.027444 -0.000224 -0.025841)
 49:   1142.18   0.000032    0.16  0.000009  (-0.002938 -0.000197  0.000306)
 50:   1175.47   0.009016   45.56  0.002394  ( 0.026631  0.013279  0.038834)
 51:   1191.01   0.000563    2.84  0.000147  ( 0.011857 -0.002124 -0.001520)
 52:   1231.47   0.003750   18.95  0.000950  ( 0.012641  0.003150 -0.027937)
 53:   1250.86   0.003041   15.37  0.000759  (-0.000727  0.026334  0.008034)
 54:   1287.18   0.004121   20.82  0.000999  (-0.004168 -0.004067  0.031066)
 55:   1291.99   0.014320   72.37  0.003459  (-0.026903  0.052237 -0.002527)
 56:   1305.94   0.020359  102.89  0.004865  ( 0.008092 -0.069109 -0.004834)
 57:   1331.61   0.012979   65.59  0.003042  (-0.035591 -0.041792  0.005329)
 58:   1376.47   0.001746    8.83  0.000396  (-0.009246 -0.017616  0.000346)
 59:   1404.77   0.004455   22.52  0.000990  (-0.022983 -0.021449 -0.001211)
 60:   1424.85   0.012720   64.28  0.002786  (-0.044086 -0.028954 -0.001986)
 61:   1428.16   0.015918   80.44  0.003478  (-0.041143 -0.039533 -0.014919)
 62:   1447.06   0.004316   21.81  0.000931  ( 0.014216 -0.000669  0.026986)
 63:   1462.65   0.021087  106.57  0.004499  ( 0.038615 -0.042273  0.034942)
 64:   1472.77   0.019423   98.16  0.004115  ( 0.006657 -0.056029 -0.030527)
 65:   1496.60   0.003663   18.51  0.000764  (-0.019086 -0.017644 -0.009388)
 66:   1501.43   0.002640   13.34  0.000549  ( 0.008477  0.002828 -0.021651)
 67:   1512.32   0.001578    7.97  0.000326  (-0.017372 -0.004364  0.002169)
 68:   1517.92   0.006092   30.78  0.001252  (-0.026783  0.021687  0.008046)
 69:   1523.13   0.003463   17.50  0.000710  ( 0.004367 -0.005820 -0.025625)
 70:   1526.03   0.000856    4.32  0.000175  (-0.008346  0.007789  0.006681)
 71:   1536.77   0.004162   21.03  0.000845  (-0.027302 -0.008263  0.005617)
 72:   1540.30   0.001400    7.08  0.000284  (-0.000573  0.000653  0.016820)
 73:   1547.73   0.000247    1.25  0.000050  ( 0.002112 -0.005994  0.003063)
 74:   1571.38   0.007233   36.55  0.001436  ( 0.010342 -0.017415  0.032034)
 75:   1647.37   0.025437  128.55  0.004819  ( 0.035290  0.059638  0.004061)
 76:   1737.73   0.046246  233.71  0.008305  (-0.021580 -0.050607 -0.072652)
 77:   1745.01   0.068726  347.31  0.012290  ( 0.063764  0.075129  0.050795)
 78:   1795.49   0.057438  290.27  0.009983  ( 0.039691 -0.091067  0.010701)
 79:   3023.02   0.007813   39.48  0.000806  ( 0.016724  0.015828  0.016621)
 80:   3033.29   0.017414   88.00  0.001792  (-0.018390  0.010411 -0.036674)
 81:   3059.08   0.000646    3.27  0.000066  ( 0.005284 -0.004918  0.003719)
 82:   3060.85   0.000604    3.05  0.000062  (-0.000814 -0.000061 -0.007804)
 83:   3069.93   0.008413   42.52  0.000855  (-0.025924 -0.002690  0.013264)
 84:   3078.74   0.005308   26.83  0.000538  ( 0.022857  0.000008 -0.003949)
 85:   3083.27   0.003025   15.29  0.000306  (-0.010648  0.003051  0.013547)
 86:   3092.77   0.004777   24.14  0.000482  (-0.001236  0.003120  0.021696)
 87:   3124.64   0.000817    4.13  0.000082  ( 0.000037 -0.001912 -0.008829)
 88:   3127.53   0.001057    5.34  0.000105  (-0.001147 -0.010204  0.000070)
 89:   3158.92   0.001682    8.50  0.000166  ( 0.004775 -0.011852 -0.001715)
 90:   3171.09   0.000165    0.84  0.000016  (-0.000609  0.003844 -0.001061)
 91:   3175.08   0.001020    5.15  0.000100  (-0.000001  0.008472  0.005334)
 92:   3185.96   0.003984   20.13  0.000390  ( 0.015556 -0.009949  0.007016)
 93:   3190.49   0.000169    0.85  0.000017  (-0.001548 -0.003712 -0.000603)
 94:   3588.24   0.007618   38.50  0.000663  (-0.009331 -0.023982 -0.000588)
 95:   3718.32   0.006469   32.69  0.000543  (-0.022251  0.006526 -0.002282)

* The epsilon (eps) is given for a Dirac delta lineshape.
** The dipole moment derivative (T) already includes vibrational overlap.

The first frequency considered to be a vibration is 6
The total number of vibrations considered is 90


--------------------------
THERMOCHEMISTRY AT 298.15K
--------------------------

Temperature         ... 298.15 K
Pressure            ... 1.00 atm
Total Mass          ... 215.25 AMU

Throughout the following assumptions are being made:
  (1) The electronic state is orbitally nondegenerate
  (2) There are no thermally accessible electronically excited states
  (3) Hindered rotations indicated by low frequency modes are not
      treated as such but are treated as vibrations and this may
      cause some error
  (4) All equations used are the standard statistical mechanics
      equations for an ideal gas
  (5) All vibrations are strictly harmonic

freq.      11.64  E(vib)   ...       0.58 
freq.      28.79  E(vib)   ...       0.55 
freq.      36.13  E(vib)   ...       0.54 
freq.      63.58  E(vib)   ...       0.51 
freq.      70.79  E(vib)   ...       0.50 
freq.      99.42  E(vib)   ...       0.46 
freq.     104.84  E(vib)   ...       0.46 
freq.     129.07  E(vib)   ...       0.43 
freq.     139.43  E(vib)   ...       0.42 
freq.     170.08  E(vib)   ...       0.38 
freq.     177.11  E(vib)   ...       0.37 
freq.     188.97  E(vib)   ...       0.36 
freq.     204.85  E(vib)   ...       0.35 
freq.     231.22  E(vib)   ...       0.32 
freq.     252.73  E(vib)   ...       0.30 
freq.     285.08  E(vib)   ...       0.28 
freq.     360.29  E(vib)   ...       0.22 
freq.     365.55  E(vib)   ...       0.22 
freq.     395.62  E(vib)   ...       0.20 
freq.     435.11  E(vib)   ...       0.17 
freq.     447.41  E(vib)   ...       0.17 
freq.     476.41  E(vib)   ...       0.15 
freq.     482.43  E(vib)   ...       0.15 
freq.     548.36  E(vib)   ...       0.12 
freq.     575.35  E(vib)   ...       0.11 
freq.     589.10  E(vib)   ...       0.10 
freq.     600.69  E(vib)   ...       0.10 
freq.     638.43  E(vib)   ...       0.09 
freq.     693.80  E(vib)   ...       0.07 
freq.     714.32  E(vib)   ...       0.07 
freq.     760.11  E(vib)   ...       0.06 
freq.     799.13  E(vib)   ...       0.05 
freq.     833.53  E(vib)   ...       0.04 
freq.     917.51  E(vib)   ...       0.03 
freq.     959.71  E(vib)   ...       0.03 
freq.    1003.81  E(vib)   ...       0.02 
freq.    1019.45  E(vib)   ...       0.02 
freq.    1033.08  E(vib)   ...       0.02 
freq.    1040.96  E(vib)   ...       0.02 
freq.    1062.45  E(vib)   ...       0.02 
freq.    1090.22  E(vib)   ...       0.02 
freq.    1097.19  E(vib)   ...       0.02 
freq.    1127.55  E(vib)   ...       0.01 
freq.    1142.18  E(vib)   ...       0.01 
freq.    1175.47  E(vib)   ...       0.01 
freq.    1191.01  E(vib)   ...       0.01 
freq.    1231.47  E(vib)   ...       0.01 
freq.    1250.86  E(vib)   ...       0.01 
freq.    1287.18  E(vib)   ...       0.01 
freq.    1291.99  E(vib)   ...       0.01 
freq.    1305.94  E(vib)   ...       0.01 
freq.    1331.61  E(vib)   ...       0.01 
freq.    1376.47  E(vib)   ...       0.01 
freq.    1404.77  E(vib)   ...       0.00 
freq.    1424.85  E(vib)   ...       0.00 
freq.    1428.16  E(vib)   ...       0.00 
freq.    1447.06  E(vib)   ...       0.00 
freq.    1462.65  E(vib)   ...       0.00 
freq.    1472.77  E(vib)   ...       0.00 
freq.    1496.60  E(vib)   ...       0.00 
freq.    1501.43  E(vib)   ...       0.00 
freq.    1512.32  E(vib)   ...       0.00 
freq.    1517.92  E(vib)   ...       0.00 
freq.    1523.13  E(vib)   ...       0.00 
freq.    1526.03  E(vib)   ...       0.00 
freq.    1536.77  E(vib)   ...       0.00 
freq.    1540.30  E(vib)   ...       0.00 
freq.    1547.73  E(vib)   ...       0.00 
freq.    1571.38  E(vib)   ...       0.00 
freq.    1647.37  E(vib)   ...       0.00 
freq.    1737.73  E(vib)   ...       0.00 
freq.    1745.01  E(vib)   ...       0.00 
freq.    1795.49  E(vib)   ...       0.00 
freq.    3023.02  E(vib)   ...       0.00 
freq.    3033.29  E(vib)   ...       0.00 
freq.    3059.08  E(vib)   ...       0.00 
freq.    3060.85  E(vib)   ...       0.00 
freq.    3069.93  E(vib)   ...       0.00 
freq.    3078.74  E(vib)   ...       0.00 
freq.    3083.27  E(vib)   ...       0.00 
freq.    3092.77  E(vib)   ...       0.00 
freq.    3124.64  E(vib)   ...       0.00 
freq.    3127.53  E(vib)   ...       0.00 
freq.    3158.92  E(vib)   ...       0.00 
freq.    3171.09  E(vib)   ...       0.00 
freq.    3175.08  E(vib)   ...       0.00 
freq.    3185.96  E(vib)   ...       0.00 
freq.    3190.49  E(vib)   ...       0.00 
freq.    3588.24  E(vib)   ...       0.00 
freq.    3718.32  E(vib)   ...       0.00 

------------
INNER ENERGY
------------

The inner energy is: U= E(el) + E(ZPE) + E(vib) + E(rot) + E(trans)
    E(el)   - is the total energy from the electronic structure calculation
              = E(kin-el) + E(nuc-el) + E(el-el) + E(nuc-nuc)
    E(ZPE)  - the the zero temperature vibrational energy from the frequency calculation
    E(vib)  - the the finite temperature correction to E(ZPE) due to population
              of excited vibrational states
    E(rot)  - is the rotational thermal energy
    E(trans)- is the translational thermal energy

Summary of contributions to the inner energy U:
Electronic energy                ...   -742.77007435 Eh
Zero point energy                ...      0.27252844 Eh     171.01 kcal/mol
Thermal vibrational correction   ...      0.01471778 Eh       9.24 kcal/mol
Thermal rotational correction    ...      0.00141627 Eh       0.89 kcal/mol
Thermal translational correction ...      0.00141627 Eh       0.89 kcal/mol
-----------------------------------------------------------------------
Total thermal energy                   -742.47999559 Eh


Summary of corrections to the electronic energy:
(perhaps to be used in another calculation)
Total thermal correction                  0.01755033 Eh      11.01 kcal/mol
Non-thermal (ZPE) correction              0.27252844 Eh     171.01 kcal/mol
-----------------------------------------------------------------------
Total correction                          0.29007877 Eh     182.03 kcal/mol


--------
ENTHALPY
--------

The enthalpy is H = U + kB*T
                kB is Boltzmann's constant
Total free energy                 ...   -742.47999559 Eh 
Thermal Enthalpy correction       ...      0.00094421 Eh       0.59 kcal/mol
-----------------------------------------------------------------------
Total Enthalpy                    ...   -742.47905138 Eh


Note: Only C1 symmetry has been detected, increase convergence thresholds 
      if your molecule has a higher symmetry. Symmetry factor of 1.0 is   
      used for the rotational entropy correction. 
 

Note: Rotational entropy computed according to Herzberg 
Infrared and Raman Spectra, Chapter V,1, Van Nostrand Reinhold, 1945 
Point Group:  C1, Symmetry Number:   1  
Rotational constants in cm-1:     0.023004     0.014639     0.010553 

Vibrational entropy computed according to the QRRHO of S. Grimme
Chem.Eur.J. 2012 18 9955


-------
ENTROPY
-------

The entropy contributions are T*S = T*(S(el)+S(vib)+S(rot)+S(trans))
     S(el)   - electronic entropy
     S(vib)  - vibrational entropy
     S(rot)  - rotational entropy
     S(trans)- translational entropy
The entropies will be listed as multiplied by the temperature to get
units of energy

Electronic entropy                ...      0.00000000 Eh      0.00 kcal/mol
Vibrational entropy               ...      0.02716542 Eh     17.05 kcal/mol
Rotational entropy                ...      0.01543434 Eh      9.69 kcal/mol
Translational entropy             ...      0.01995702 Eh     12.52 kcal/mol
-----------------------------------------------------------------------
Final entropy term                ...      0.06255678 Eh     39.25 kcal/mol

In case the symmetry of your molecule has not been determined correctly
or in case you have a reason to use a different symmetry number we print 
out the resulting rotational entropy values for sn=1,12 :
 --------------------------------------------------------
|  sn= 1 | S(rot)=       0.01543434 Eh      9.69 kcal/mol|
|  sn= 2 | S(rot)=       0.01477988 Eh      9.27 kcal/mol|
|  sn= 3 | S(rot)=       0.01439705 Eh      9.03 kcal/mol|
|  sn= 4 | S(rot)=       0.01412543 Eh      8.86 kcal/mol|
|  sn= 5 | S(rot)=       0.01391474 Eh      8.73 kcal/mol|
|  sn= 6 | S(rot)=       0.01374260 Eh      8.62 kcal/mol|
|  sn= 7 | S(rot)=       0.01359705 Eh      8.53 kcal/mol|
|  sn= 8 | S(rot)=       0.01347097 Eh      8.45 kcal/mol|
|  sn= 9 | S(rot)=       0.01335976 Eh      8.38 kcal/mol|
|  sn=10 | S(rot)=       0.01326028 Eh      8.32 kcal/mol|
|  sn=11 | S(rot)=       0.01317029 Eh      8.26 kcal/mol|
|  sn=12 | S(rot)=       0.01308814 Eh      8.21 kcal/mol|
 --------------------------------------------------------


-------------------
GIBBS FREE ENERGY
-------------------

The Gibbs free energy is G = H - T*S

Total enthalpy                    ...   -742.47905138 Eh 
Total entropy correction          ...     -0.06255678 Eh    -39.25 kcal/mol
-----------------------------------------------------------------------
Final Gibbs free energy         ...   -742.54160816 Eh

For completeness - the Gibbs free energy minus the electronic energy
G-E(el)                           ...      0.22846620 Eh    143.36 kcal/mol


Timings for individual modules:

Sum of individual times         ...     1873.120 sec (=  31.219 min)
GTO integral calculation        ...       22.129 sec (=   0.369 min)   1.2 %
SCF iterations                  ...     1058.555 sec (=  17.643 min)  56.5 %
SCF Gradient evaluation         ...      317.042 sec (=   5.284 min)  16.9 %
Geometry relaxation             ...        1.382 sec (=   0.023 min)   0.1 %
Analytical frequency calculation...      474.012 sec (=   7.900 min)  25.3 %
                             ****ORCA TERMINATED NORMALLY****
TOTAL RUN TIME: 0 days 0 hours 31 minutes 20 seconds 893 msec
