
                                 *****************
                                 * O   R   C   A *
                                 *****************

                                            #,                                       
                                            ###                                      
                                            ####                                     
                                            #####                                    
                                            ######                                   
                                           ########,                                 
                                     ,,################,,,,,                         
                               ,,#################################,,                 
                          ,,##########################################,,             
                       ,#########################################, ''#####,          
                    ,#############################################,,   '####,        
                  ,##################################################,,,,####,       
                ,###########''''           ''''###############################       
              ,#####''   ,,,,##########,,,,          '''####'''          '####       
            ,##' ,,,,###########################,,,                        '##       
           ' ,,###''''                  '''############,,,                           
         ,,##''                                '''############,,,,        ,,,,,,###''
      ,#''                                            '''#######################'''  
     '                                                          ''''####''''         
             ,#######,   #######,   ,#######,      ##                                
            ,#'     '#,  ##    ##  ,#'     '#,    #''#        ######   ,####,        
            ##       ##  ##   ,#'  ##            #'  '#       #        #'  '#        
            ##       ##  #######   ##           ,######,      #####,   #    #        
            '#,     ,#'  ##    ##  '#,     ,#' ,#      #,         ##   #,  ,#        
             '#######'   ##     ##  '#######'  #'      '#     #####' # '####'        



                  #######################################################
                  #                        -***-                        #
                  #          Department of theory and spectroscopy      #
                  #    Directorship and core code : Frank Neese         #
                  #        Max Planck Institute fuer Kohlenforschung    #
                  #                Kaiser Wilhelm Platz 1               #
                  #                 D-45470 Muelheim/Ruhr               #
                  #                      Germany                        #
                  #                                                     #
                  #                  All rights reserved                #
                  #                        -***-                        #
                  #######################################################


                         Program Version 5.0.4 -  RELEASE  -


 With contributions from (in alphabetic order):
   Daniel Aravena         : Magnetic Suceptibility
   Michael Atanasov       : Ab Initio Ligand Field Theory (pilot matlab implementation)
   Alexander A. Auer      : GIAO ZORA, VPT2 properties, NMR spectrum
   Ute Becker             : Parallelization
   Giovanni Bistoni       : ED, misc. LED, open-shell LED, HFLD
   Martin Brehm           : Molecular dynamics
   Dmytro Bykov           : SCF Hessian
   Vijay G. Chilkuri      : MRCI spin determinant printing, contributions to CSF-ICE
   Dipayan Datta          : RHF DLPNO-CCSD density
   Achintya Kumar Dutta   : EOM-CC, STEOM-CC
   Dmitry Ganyushin       : Spin-Orbit,Spin-Spin,Magnetic field MRCI
   Miquel Garcia          : C-PCM and meta-GGA Hessian, CC/C-PCM, Gaussian charge scheme
   Yang Guo               : DLPNO-NEVPT2, F12-NEVPT2, CIM, IAO-localization
   Andreas Hansen         : Spin unrestricted coupled pair/coupled cluster methods
   Benjamin Helmich-Paris : MC-RPA, TRAH-SCF, COSX integrals
   Lee Huntington         : MR-EOM, pCC
   Robert Izsak           : Overlap fitted RIJCOSX, COSX-SCS-MP3, EOM
   Marcus Kettner         : VPT2
   Christian Kollmar      : KDIIS, OOCD, Brueckner-CCSD(T), CCSD density, CASPT2, CASPT2-K
   Simone Kossmann        : Meta GGA functionals, TD-DFT gradient, OOMP2, MP2 Hessian
   Martin Krupicka        : Initial AUTO-CI
   Lucas Lang             : DCDCAS
   Marvin Lechner         : AUTO-CI (C++ implementation), FIC-MRCC
   Dagmar Lenk            : GEPOL surface, SMD
   Dimitrios Liakos       : Extrapolation schemes; Compound Job, initial MDCI parallelization
   Dimitrios Manganas     : Further ROCIS development; embedding schemes
   Dimitrios Pantazis     : SARC Basis sets
   Anastasios Papadopoulos: AUTO-CI, single reference methods and gradients
   Taras Petrenko         : DFT Hessian,TD-DFT gradient, ASA, ECA, R-Raman, ABS, FL, XAS/XES, NRVS
   Peter Pinski           : DLPNO-MP2, DLPNO-MP2 Gradient
   Christoph Reimann      : Effective Core Potentials
   Marius Retegan         : Local ZFS, SOC
   Christoph Riplinger    : Optimizer, TS searches, QM/MM, DLPNO-CCSD(T), (RO)-DLPNO pert. Triples
   Tobias Risthaus        : Range-separated hybrids, TD-DFT gradient, RPA, STAB
   Michael Roemelt        : Original ROCIS implementation
   Masaaki Saitow         : Open-shell DLPNO-CCSD energy and density
   Barbara Sandhoefer     : DKH picture change effects
   Avijit Sen             : IP-ROCIS
   Kantharuban Sivalingam : CASSCF convergence, NEVPT2, FIC-MRCI
   Bernardo de Souza      : ESD, SOC TD-DFT
   Georgi Stoychev        : AutoAux, RI-MP2 NMR, DLPNO-MP2 response
   Willem Van den Heuvel  : Paramagnetic NMR
   Boris Wezisla          : Elementary symmetry handling
   Frank Wennmohs         : Technical directorship


 We gratefully acknowledge several colleagues who have allowed us to
 interface, adapt or use parts of their codes:
   Stefan Grimme, W. Hujo, H. Kruse, P. Pracht,  : VdW corrections, initial TS optimization,
                  C. Bannwarth, S. Ehlert          DFT functionals, gCP, sTDA/sTD-DF
   Ed Valeev, F. Pavosevic, A. Kumar             : LibInt (2-el integral package), F12 methods
   Garnet Chan, S. Sharma, J. Yang, R. Olivares  : DMRG
   Ulf Ekstrom                                   : XCFun DFT Library
   Mihaly Kallay                                 : mrcc  (arbitrary order and MRCC methods)
   Jiri Pittner, Ondrej Demel                    : Mk-CCSD
   Frank Weinhold                                : gennbo (NPA and NBO analysis)
   Christopher J. Cramer and Donald G. Truhlar   : smd solvation model
   Lars Goerigk                                  : TD-DFT with DH, B97 family of functionals
   V. Asgeirsson, H. Jonsson                     : NEB implementation
   FAccTs GmbH                                   : IRC, NEB, NEB-TS, DLPNO-Multilevel, CI-OPT
                                                   MM, QMMM, 2- and 3-layer-ONIOM, Crystal-QMMM,
                                                   LR-CPCM, SF, NACMEs, symmetry and pop. for TD-DFT,
                                                   nearIR, NL-DFT gradient (VV10), updates on ESD,
                                                   ML-optimized integration grids
   S Lehtola, MJT Oliveira, MAL Marques          : LibXC Library
   Liviu Ungur et al                             : ANISO software


 Your calculation uses the libint2 library for the computation of 2-el integrals
 For citations please refer to: http://libint.valeyev.net

 Your ORCA version has been built with support for libXC version: 5.1.0
 For citations please refer to: https://tddft.org/programs/libxc/

 This ORCA versions uses:
   CBLAS   interface :  Fast vector & matrix operations
   LAPACKE interface :  Fast linear algebra routines
   SCALAPACK package :  Parallel linear algebra routines
   Shared memory     :  Shared parallel matrices
   BLAS/LAPACK       :  OpenBLAS 0.3.15  USE64BITINT DYNAMIC_ARCH NO_AFFINITY SkylakeX SINGLE_THREADED
        Core in use  :  SkylakeX
   Copyright (c) 2011-2014, The OpenBLAS Project




***************************************
The coordinates will be read from file: /users/fjb15167/WWenergy/structures/Ni.xyz
***************************************


Your calculation utilizes the atom-pairwise dispersion correction
based on tight binding partial charges (D4)
Cite in your paper:
E.Caldeweyher, C.Bannwarth, S.Grimme, J.Chem.Phys., (2017), 147, 034112.
E.Caldeweyher, S.Ehlert, A.Hansen, H.Neugebauer, S.Grimme, J.Chem.Phys., (2018), in progress.
   

================================================================================

----- Orbital basis set information -----
Your calculation utilizes the basis: 6-31G(d)
   H-He, Li-Ne : W. J. Hehre, R. Ditchfield and J.A. Pople, J. Chem. Phys. 56, 2257 (1972).
                 Note: He and Ne are unpublished basis sets taken from the Gaussian program.
                 Note: Li and B from J. D. Dill and J. A. Pople, J. Chem. Phys. 62, 2921 (1975).
   Na - Ar     : M. M. Francl, W. J. Pietro, W. J. Hehre, J. S. Binkley, M. S. Gordon, 
                 D. J. DeFrees and J. A. Pople, J. Chem. Phys. 77, 3654 (1982).
   K - Zn      : V. A. Rassolov, J. A. Pople, M. A. Ratner, and T. L. Windus, J. Chem. Phys. 109, 1223 (1998).

----- AuxJ basis set information -----
Your calculation utilizes the AutoAux generation procedure.
  G. L. Stoychev, A. A. Auer, F. Neese, J. Chem. Theory Comput. 13, 554 (2017)

----- AuxC basis set information -----
Your calculation utilizes the AutoAux generation procedure.
  G. L. Stoychev, A. A. Auer, F. Neese, J. Chem. Theory Comput. 13, 554 (2017)

----- AuxJK basis set information -----
Your calculation utilizes the AutoAux generation procedure.
  G. L. Stoychev, A. A. Auer, F. Neese, J. Chem. Theory Comput. 13, 554 (2017)

================================================================================
                                        WARNINGS
                       Please study these warnings very carefully!
================================================================================


WARNING: Geometry Optimization
  ===> : Switching off AutoStart
         For restart on a previous wavefunction, please use MOREAD

INFO   : the flag for use of the SHARK integral package has been found!

================================================================================
                                       INPUT FILE
================================================================================
NAME = Ni_gas.inp
|  1> ! OPT FREQ B3LYP 6-31G(d) D4 AUTOAUX
|  2> 
|  3> %PAL NPROCS 4 END
|  4> 
|  5> %maxcore 3375
|  6> 
|  7> *xyzfile 0 1 /users/fjb15167/WWenergy/structures/Ni.xyz
|  8> 
|  9>                          ****END OF INPUT****
================================================================================

                       *****************************
                       * Geometry Optimization Run *
                       *****************************

Geometry optimization settings:
Update method            Update   .... BFGS
Choice of coordinates    CoordSys .... Z-matrix Internals
Initial Hessian          InHess   .... Almoef's Model

Convergence Tolerances:
Energy Change            TolE     ....  5.0000e-06 Eh
Max. Gradient            TolMAXG  ....  3.0000e-04 Eh/bohr
RMS Gradient             TolRMSG  ....  1.0000e-04 Eh/bohr
Max. Displacement        TolMAXD  ....  4.0000e-03 bohr
RMS Displacement         TolRMSD  ....  2.0000e-03 bohr
Strict Convergence                ....  False
------------------------------------------------------------------------------
                        ORCA OPTIMIZATION COORDINATE SETUP
------------------------------------------------------------------------------

The optimization will be done in new redundant internal coordinates
Making redundant internal coordinates   ...  (new redundants) done
Evaluating the initial hessian          ...  (Almloef) done
Evaluating the coordinates              ...  done
Calculating the B-matrix                .... done
Calculating the G-matrix                .... done
Diagonalizing the G-matrix              .... done
Small eigenvalue found = 5.612e-03
Small eigenvalue found = 6.497e-03
Small eigenvalue found = 1.315e-02
Small eigenvalue found = 1.507e-02
The first mode is                       ....   68
The number of degrees of freedom        ....   96

    -----------------------------------------------------------------
                    Redundant Internal Coordinates


    -----------------------------------------------------------------
         Definition                    Initial Value    Approx d2E/dq
    -----------------------------------------------------------------
      1. B(H   1,C   0)                  1.0884         0.362162   
      2. B(H   2,C   0)                  1.0930         0.356098   
      3. B(H   3,C   0)                  1.0896         0.360638   
      4. B(C   4,C   0)                  1.5139         0.396281   
      5. B(O   5,C   4)                  1.2417         0.964857   
      6. B(N   6,C   4)                  1.3742         0.592976   
      7. B(C   7,N   6)                  1.4653         0.424389   
      8. B(H   8,C   7)                  1.0955         0.352960   
      9. B(H   9,C   7)                  1.0901         0.359984   
     10. B(C  10,C   7)                  1.5256         0.379619   
     11. B(N  11,C  10)                  1.3658         0.611592   
     12. B(O  12,C  10)                  1.2416         0.965367   
     13. B(C  13,N  11)                  1.4541         0.442217   
     14. B(H  14,C  13)                  1.0982         0.349352   
     15. B(H  15,C  13)                  1.0953         0.353119   
     16. B(H  16,C  13)                  1.0873         0.363647   
     17. B(C  17,N  11)                  1.4548         0.441032   
     18. B(H  18,C  17)                  1.0970         0.351019   
     19. B(H  19,C  17)                  1.0881         0.362669   
     20. B(H  20,C  17)                  1.0934         0.355618   
     21. B(C  21,N   6)                  1.4797         0.402471   
     22. B(H  22,C  21)                  1.0954         0.353083   
     23. B(C  23,C  21)                  1.5339         0.368211   
     24. B(H  24,C  23)                  1.0952         0.353263   
     25. B(H  25,C  23)                  1.0949         0.353633   
     26. B(C  26,C  23)                  1.5277         0.376763   
     27. B(H  27,C  26)                  1.0944         0.354341   
     28. B(H  28,C  26)                  1.0929         0.356223   
     29. B(H  29,C  26)                  1.0948         0.353801   
     30. B(C  30,C  21)                  1.5295         0.374272   
     31. B(H  31,C  30)                  1.0932         0.355875   
     32. B(H  32,C  30)                  1.0918         0.357761   
     33. B(H  33,C  30)                  1.0941         0.354704   
     34. A(H   1,C   0,H   2)          108.5387         0.290590   
     35. A(H   3,C   0,C   4)          106.5966         0.327563   
     36. A(H   2,C   0,C   4)          109.9045         0.326880   
     37. A(H   2,C   0,H   3)          108.2734         0.290398   
     38. A(H   1,C   0,C   4)          113.7589         0.327791   
     39. A(H   1,C   0,H   3)          109.6347         0.291169   
     40. A(C   0,C   4,N   6)          119.3183         0.395151   
     41. A(O   5,C   4,N   6)          121.5064         0.460379   
     42. A(C   0,C   4,O   5)          119.1680         0.430814   
     43. A(C   4,N   6,C  21)          128.2319         0.393699   
     44. A(C   4,N   6,C   7)          117.5111         0.397378   
     45. A(C   7,N   6,C  21)          114.1905         0.371481   
     46. A(N   6,C   7,C  10)          111.1896         0.370082   
     47. A(N   6,C   7,H   8)          109.6699         0.328131   
     48. A(N   6,C   7,H   9)          108.0865         0.329200   
     49. A(H   8,C   7,C  10)          105.3978         0.324107   
     50. A(H   8,C   7,H   9)          108.8510         0.289912   
     51. A(H   9,C   7,C  10)          113.5726         0.325158   
     52. A(N  11,C  10,O  12)          122.6092         0.463032   
     53. A(C   7,C  10,O  12)          119.2701         0.427547   
     54. A(C   7,C  10,N  11)          118.1076         0.394318   
     55. A(C  13,N  11,C  17)          115.3657         0.380091   
     56. A(C  10,N  11,C  13)          125.4279         0.402449   
     57. A(C  10,N  11,C  17)          118.5135         0.402259   
     58. A(H  14,C  13,H  16)          108.5159         0.289905   
     59. A(N  11,C  13,H  16)          111.9790         0.332004   
     60. A(H  15,C  13,H  16)          108.8008         0.290393   
     61. A(H  14,C  13,H  15)          108.1512         0.288574   
     62. A(N  11,C  13,H  15)          108.9905         0.330393   
     63. A(N  11,C  13,H  14)          110.3165         0.329808   
     64. A(H  18,C  17,H  19)          109.4592         0.289999   
     65. A(N  11,C  17,H  19)          108.4896         0.331708   
     66. A(N  11,C  17,H  18)          110.6121         0.329921   
     67. A(H  19,C  17,H  20)          110.1247         0.290592   
     68. A(H  18,C  17,H  20)          108.6479         0.289108   
     69. A(N  11,C  17,H  20)          109.5027         0.330632   
     70. A(C  23,C  21,C  30)          114.1462         0.362570   
     71. A(H  22,C  21,C  30)          106.4065         0.323372   
     72. A(N   6,C  21,C  30)          114.0846         0.365838   
     73. A(H  22,C  21,C  23)          105.8595         0.322507   
     74. A(N   6,C  21,C  23)          112.0314         0.364817   
     75. A(N   6,C  21,H  22)          103.1465         0.325297   
     76. A(H  25,C  23,C  26)          109.7298         0.323807   
     77. A(H  24,C  23,C  26)          109.3236         0.323751   
     78. A(C  21,C  23,C  26)          112.6861         0.362981   
     79. A(H  24,C  23,H  25)          106.8591         0.289143   
     80. A(C  21,C  23,H  25)          110.3853         0.322590   
     81. A(C  21,C  23,H  24)          107.6632         0.322534   
     82. A(H  28,C  26,H  29)          108.3667         0.289543   
     83. A(H  27,C  26,H  29)          107.8454         0.289303   
     84. A(C  23,C  26,H  29)          110.5109         0.323832   
     85. A(H  27,C  26,H  28)          107.5265         0.289612   
     86. A(C  23,C  26,H  28)          111.8854         0.324195   
     87. A(C  23,C  26,H  27)          110.5613         0.323913   
     88. A(H  32,C  30,H  33)          108.7441         0.289854   
     89. A(H  31,C  30,H  33)          107.8216         0.289614   
     90. A(C  21,C  30,H  33)          110.2457         0.323615   
     91. A(H  31,C  30,H  32)          107.6024         0.290004   
     92. A(C  21,C  30,H  32)          112.8266         0.324071   
     93. A(C  21,C  30,H  31)          109.4455         0.323790   
     94. D(O   5,C   4,C   0,H   1)   -142.1752         0.011664   
     95. D(O   5,C   4,C   0,H   3)    -21.2248         0.011664   
     96. D(O   5,C   4,C   0,H   2)     95.8973         0.011664   
     97. D(N   6,C   4,C   0,H   1)     38.7883         0.011664   
     98. D(N   6,C   4,C   0,H   2)    -83.1391         0.011664   
     99. D(N   6,C   4,C   0,H   3)    159.7387         0.011664   
    100. D(C   7,N   6,C   4,O   5)     -2.3886         0.028286   
    101. D(C  21,N   6,C   4,C   0)     -0.2164         0.028286   
    102. D(C  21,N   6,C   4,O   5)   -179.2295         0.028286   
    103. D(C   7,N   6,C   4,C   0)    176.6246         0.028286   
    104. D(C  10,C   7,N   6,C   4)    124.9252         0.015356   
    105. D(H   8,C   7,N   6,C  21)     58.3727         0.015356   
    106. D(H   9,C   7,N   6,C   4)     -0.3715         0.015356   
    107. D(H   9,C   7,N   6,C  21)    176.9085         0.015356   
    108. D(H   8,C   7,N   6,C   4)   -118.9074         0.015356   
    109. D(C  10,C   7,N   6,C  21)    -57.7947         0.015356   
    110. D(O  12,C  10,C   7,H   9)   -136.1336         0.010755   
    111. D(O  12,C  10,C   7,H   8)    -17.0677         0.010755   
    112. D(O  12,C  10,C   7,N   6)    101.6970         0.010755   
    113. D(N  11,C  10,C   7,H   8)    164.2114         0.010755   
    114. D(N  11,C  10,C   7,N   6)    -77.0238         0.010755   
    115. D(N  11,C  10,C   7,H   9)     45.1455         0.010755   
    116. D(C  17,N  11,C  10,C   7)    175.7429         0.030225   
    117. D(C  13,N  11,C  10,O  12)   -172.9238         0.030225   
    118. D(C  13,N  11,C  10,C   7)      5.7515         0.030225   
    119. D(C  17,N  11,C  10,O  12)     -2.9324         0.030225   
    120. D(H  15,C  13,N  11,C  10)   -135.0915         0.016676   
    121. D(H  14,C  13,N  11,C  17)    -63.9636         0.016676   
    122. D(H  15,C  13,N  11,C  17)     54.6387         0.016676   
    123. D(H  14,C  13,N  11,C  10)    106.3062         0.016676   
    124. D(H  16,C  13,N  11,C  10)    -14.6647         0.016676   
    125. D(H  16,C  13,N  11,C  17)    175.0655         0.016676   
    126. D(H  20,C  17,N  11,C  13)    -56.2232         0.016586   
    127. D(H  20,C  17,N  11,C  10)    132.7938         0.016586   
    128. D(H  19,C  17,N  11,C  13)   -176.4421         0.016586   
    129. D(H  19,C  17,N  11,C  10)     12.5749         0.016586   
    130. D(H  18,C  17,N  11,C  13)     63.4877         0.016586   
    131. D(H  18,C  17,N  11,C  10)   -107.4954         0.016586   
    132. D(C  30,C  21,N   6,C   7)   -122.8496         0.013827   
    133. D(C  30,C  21,N   6,C   4)     54.0789         0.013827   
    134. D(C  23,C  21,N   6,C   7)    105.5253         0.013827   
    135. D(C  23,C  21,N   6,C   4)    -77.5462         0.013827   
    136. D(H  22,C  21,N   6,C   7)     -7.8815         0.013827   
    137. D(H  22,C  21,N   6,C   4)    169.0471         0.013827   
    138. D(C  26,C  23,C  21,C  30)     63.9299         0.010845   
    139. D(C  26,C  23,C  21,H  22)    -52.7586         0.010845   
    140. D(C  26,C  23,C  21,N   6)   -164.4760         0.010845   
    141. D(H  25,C  23,C  21,C  30)    -59.1413         0.010845   
    142. D(H  25,C  23,C  21,H  22)   -175.8297         0.010845   
    143. D(H  25,C  23,C  21,N   6)     72.4528         0.010845   
    144. D(H  24,C  23,C  21,C  30)   -175.4390         0.010845   
    145. D(H  24,C  23,C  21,H  22)     67.8725         0.010845   
    146. D(H  24,C  23,C  21,N   6)    -43.8449         0.010845   
    147. D(H  29,C  26,C  23,H  25)    179.2990         0.011324   
    148. D(H  29,C  26,C  23,H  24)    -63.8123         0.011324   
    149. D(H  29,C  26,C  23,C  21)     55.8628         0.011324   
    150. D(H  28,C  26,C  23,H  25)     58.4464         0.011324   
    151. D(H  28,C  26,C  23,H  24)    175.3351         0.011324   
    152. D(H  28,C  26,C  23,C  21)    -64.9898         0.011324   
    153. D(H  27,C  26,C  23,H  25)    -61.3749         0.011324   
    154. D(H  27,C  26,C  23,H  24)     55.5139         0.011324   
    155. D(H  27,C  26,C  23,C  21)    175.1889         0.011324   
    156. D(H  31,C  30,C  21,N   6)    159.6022         0.011183   
    157. D(H  33,C  30,C  21,H  22)    -71.8692         0.011183   
    158. D(H  33,C  30,C  21,N   6)     41.1675         0.011183   
    159. D(H  32,C  30,C  21,C  23)     49.9664         0.011183   
    160. D(H  32,C  30,C  21,H  22)    166.3379         0.011183   
    161. D(H  32,C  30,C  21,N   6)    -80.6255         0.011183   
    162. D(H  31,C  30,C  21,C  23)    -69.8059         0.011183   
    163. D(H  33,C  30,C  21,C  23)    171.7593         0.011183   
    164. D(H  31,C  30,C  21,H  22)     46.5656         0.011183   
    -----------------------------------------------------------------

Number of atoms                         .... 34
Number of degrees of freedom            .... 164

         *************************************************************
         *                GEOMETRY OPTIMIZATION CYCLE   1            *
         *************************************************************
---------------------------------
CARTESIAN COORDINATES (ANGSTROEM)
---------------------------------
  C     -2.586000   -1.487000   -0.907000
  H     -2.589000   -0.598000   -1.535000
  H     -3.465000   -1.457000   -0.258000
  H     -2.653000   -2.377000   -1.532000
  C     -1.333000   -1.639000   -0.071000
  O     -0.856000   -2.772000    0.104000
  N     -0.761000   -0.524000    0.493000
  C      0.406000   -0.725000    1.356000
  H      0.183000   -0.367000    2.367000
  H      0.615000   -1.794000    1.399000
  C      1.592000    0.110000    0.883000
  N      2.295000   -0.328000   -0.203000
  O      1.867000    1.165000    1.477000
  C      1.942000   -1.470000   -1.031000
  H      1.546000   -1.132000   -1.998000
  H      2.842000   -2.065000   -1.220000
  H      1.197000   -2.103000   -0.555000
  C      3.368000    0.508000   -0.719000
  H      3.074000    0.971000   -1.669000
  H      3.582000    1.285000    0.012000
  H      4.258000   -0.104000   -0.889000
  C     -1.209000    0.883000    0.397000
  H     -0.594000    1.392000    1.147000
  C     -0.836000    1.515000   -0.950000
  H      0.195000    1.225000   -1.179000
  H     -1.465000    1.109000   -1.749000
  C     -0.941000    3.039000   -0.935000
  H     -0.587000    3.458000   -1.882000
  H     -1.971000    3.375000   -0.791000
  H     -0.326000    3.458000   -0.132000
  C     -2.665000    1.104000    0.810000
  H     -2.816000    2.157000    1.062000
  H     -3.373000    0.849000    0.019000
  H     -2.901000    0.510000    1.698000

----------------------------
CARTESIAN COORDINATES (A.U.)
----------------------------
  NO LB      ZA    FRAG     MASS         X           Y           Z
   0 C     6.0000    0    12.011   -4.886832   -2.810023   -1.713982
   1 H     1.0000    0     1.008   -4.892501   -1.130056   -2.900730
   2 H     1.0000    0     1.008   -6.547901   -2.753331   -0.487549
   3 H     1.0000    0     1.008   -5.013443   -4.491879   -2.895060
   4 C     6.0000    0    12.011   -2.519005   -3.097261   -0.134171
   5 O     8.0000    0    15.999   -1.617606   -5.238321    0.196532
   6 N     7.0000    0    14.007   -1.438082   -0.990216    0.931635
   7 C     6.0000    0    12.011    0.767229   -1.370051    2.562469
   8 H     1.0000    0     1.008    0.345820   -0.693529    4.472982
   9 H     1.0000    0     1.008    1.162182   -3.390169    2.643727
  10 C     6.0000    0    12.011    3.008444    0.207870    1.668628
  11 N     7.0000    0    14.007    4.336921   -0.619830   -0.383614
  12 O     8.0000    0    15.999    3.528119    2.201531    2.791125
  13 C     6.0000    0    12.011    3.669848   -2.777897   -1.948308
  14 H     1.0000    0     1.008    2.921517   -2.139170   -3.775673
  15 H     1.0000    0     1.008    5.370602   -3.902284   -2.305466
  16 H     1.0000    0     1.008    2.262002   -3.974094   -1.048798
  17 C     6.0000    0    12.011    6.364598    0.959981   -1.358713
  18 H     1.0000    0     1.008    5.809018    1.834924   -3.153953
  19 H     1.0000    0     1.008    6.768999    2.428298    0.022677
  20 H     1.0000    0     1.008    8.046454   -0.196532   -1.679967
  21 C     6.0000    0    12.011   -2.284679    1.668628    0.750221
  22 H     1.0000    0     1.008   -1.122497    2.630499    2.167516
  23 C     6.0000    0    12.011   -1.579811    2.862935   -1.795240
  24 H     1.0000    0     1.008    0.368497    2.314915   -2.227987
  25 H     1.0000    0     1.008   -2.768449    2.095706   -3.305131
  26 C     6.0000    0    12.011   -1.778232    5.742878   -1.766894
  27 H     1.0000    0     1.008   -1.109269    6.534673   -3.556465
  28 H     1.0000    0     1.008   -3.724650    6.377826   -1.494773
  29 H     1.0000    0     1.008   -0.616051    6.534673   -0.249444
  30 C     6.0000    0    12.011   -5.036120    2.086258    1.530678
  31 H     1.0000    0     1.008   -5.321469    4.076139    2.006889
  32 H     1.0000    0     1.008   -6.374046    1.604377    0.035905
  33 H     1.0000    0     1.008   -5.482096    0.963760    3.208755

--------------------------------
INTERNAL COORDINATES (ANGSTROEM)
--------------------------------
 C      0   0   0     0.000000000000     0.00000000     0.00000000
 H      1   0   0     1.088445680776     0.00000000     0.00000000
 H      1   2   0     1.093042542630   108.53870737     0.00000000
 H      1   2   3     1.089593502183   109.63465752   118.08430171
 C      1   2   3     1.513938241805   113.75885438   237.31933208
 O      5   1   2     1.241709708426   119.16800064   217.82480087
 N      5   1   2     1.374228874678   119.31834807    38.78832469
 C      7   5   1     1.465284613991   117.51113731   176.62461646
 H      8   7   5     1.095451505088   109.66990437   241.09262925
 H      8   7   5     1.090087611158   108.08645554   359.62849422
 C      8   7   5     1.525631016989   111.18961397   124.92523544
 N     11   8   7     1.365814409061   118.10763609   282.97616381
 O     11   8   7     1.241565946698   119.27012939   101.69701544
 C     12  11   8     1.454082872466   125.42790647     5.75152915
 H     14  12  11     1.098248150465   110.31649823   106.30618850
 H     14  12  11     1.095329174267   108.99048089   224.90845482
 H     14  12  11     1.087331596156   111.97903890   345.33525958
 C     12  11   8     1.454813046408   118.51346465   175.74291762
 H     18  12  11     1.096952596970   110.61210741   252.50462279
 H     18  12  11     1.088065255396   108.48955955    12.57487093
 H     18  12  11     1.093409346951   109.50265052   132.79378444
 C      7   5   1     1.479719230124   128.23185601   359.78363163
 H     22   7   5     1.095356562951   103.14653343   169.04709477
 C     22   7   5     1.533936765320   112.03135468   282.45384468
 H     24  22   7     1.095217786561   107.66320303   316.15505636
 H     24  22   7     1.094932874655   110.38533669    72.45276824
 C     24  22   7     1.527686486161   112.68610338   195.52395930
 H     27  24  22     1.094388413681   110.56131218   175.18894722
 H     27  24  22     1.092946476274   111.88535208   295.01019994
 H     27  24  22     1.094803635361   110.51091021    55.86277772
 C     22   7   5     1.529492072552   114.08463138    54.07894713
 H     31  22   7     1.093212696597   109.44547631   159.60221583
 H     31  22   7     1.091773786093   112.82655810   279.37452121
 H     31  22   7     1.094109683715   110.24571603    41.16746236

---------------------------
INTERNAL COORDINATES (A.U.)
---------------------------
 C      0   0   0     0.000000000000     0.00000000     0.00000000
 H      1   0   0     2.056864248316     0.00000000     0.00000000
 H      1   2   0     2.065551058296   108.53870737     0.00000000
 H      1   2   3     2.059033316427   109.63465752   118.08430171
 C      1   2   3     2.860928660682   113.75885438   237.31933208
 O      5   1   2     2.346491286757   119.16800064   217.82480087
 N      5   1   2     2.596916218469   119.31834807    38.78832469
 C      7   5   1     2.768986628692   117.51113731   176.62461646
 H      8   7   5     2.070103337609   109.66990437   241.09262925
 H      8   7   5     2.059967047069   108.08645554   359.62849422
 C      8   7   5     2.883024803526   111.18961397   124.92523544
 N     11   8   7     2.581015182890   118.10763609   282.97616381
 O     11   8   7     2.346219616462   119.27012939   101.69701544
 C     12  11   8     2.747818404987   125.42790647     5.75152915
 H     14  12  11     2.075388231465   110.31649823   106.30618850
 H     14  12  11     2.069872165858   108.99048089   224.90845482
 H     14  12  11     2.054758933495   111.97903890   345.33525958
 C     12  11   8     2.749198233767   118.51346465   175.74291762
 H     18  12  11     2.072939990168   110.61210741   252.50462279
 H     18  12  11     2.056145348534   108.48955955    12.57487093
 H     18  12  11     2.066244218007   109.50265052   132.79378444
 C      7   5   1     2.796264100032   128.23185601   359.78363163
 H     22   7   5     2.069923922971   103.14653343   169.04709477
 C     22   7   5     2.898720393208   112.03135468   282.45384468
 H     24  22   7     2.069661673600   107.66320303   316.15505636
 H     24  22   7     2.069123268125   110.38533669    72.45276824
 C     24  22   7     2.886909077337   112.68610338   195.52395930
 H     27  24  22     2.068094385994   110.56131218   175.18894722
 H     27  24  22     2.065369519192   111.88535208   295.01019994
 H     27  24  22     2.068879041254   110.51091021    55.86277772
 C     22   7   5     2.890321141127   114.08463138    54.07894713
 H     31  22   7     2.065872602693   109.44547631   159.60221583
 H     31  22   7     2.063153455910   112.82655810   279.37452121
 H     31  22   7     2.067567662693   110.24571603    41.16746236

---------------------
BASIS SET INFORMATION
---------------------
There are 4 groups of distinct atoms

 Group   1 Type C   : 10s4p1d contracted to 3s2p1d pattern {631/31/1}
 Group   2 Type H   : 4s contracted to 2s pattern {31}
 Group   3 Type O   : 10s4p1d contracted to 3s2p1d pattern {631/31/1}
 Group   4 Type N   : 10s4p1d contracted to 3s2p1d pattern {631/31/1}

Atom   0C    basis set group =>   1
Atom   1H    basis set group =>   2
Atom   2H    basis set group =>   2
Atom   3H    basis set group =>   2
Atom   4C    basis set group =>   1
Atom   5O    basis set group =>   3
Atom   6N    basis set group =>   4
Atom   7C    basis set group =>   1
Atom   8H    basis set group =>   2
Atom   9H    basis set group =>   2
Atom  10C    basis set group =>   1
Atom  11N    basis set group =>   4
Atom  12O    basis set group =>   3
Atom  13C    basis set group =>   1
Atom  14H    basis set group =>   2
Atom  15H    basis set group =>   2
Atom  16H    basis set group =>   2
Atom  17C    basis set group =>   1
Atom  18H    basis set group =>   2
Atom  19H    basis set group =>   2
Atom  20H    basis set group =>   2
Atom  21C    basis set group =>   1
Atom  22H    basis set group =>   2
Atom  23C    basis set group =>   1
Atom  24H    basis set group =>   2
Atom  25H    basis set group =>   2
Atom  26C    basis set group =>   1
Atom  27H    basis set group =>   2
Atom  28H    basis set group =>   2
Atom  29H    basis set group =>   2
Atom  30C    basis set group =>   1
Atom  31H    basis set group =>   2
Atom  32H    basis set group =>   2
Atom  33H    basis set group =>   2
---------------------------------
AUXILIARY/J BASIS SET INFORMATION
---------------------------------
There are 4 groups of distinct atoms

 Group   1 Type C   : 13s11p10d2f contracted to 13s11p10d2f pattern {1111111111111/11111111111/1111111111/11}
 Group   2 Type H   : 9s2p contracted to 9s2p pattern {111111111/11}
 Group   3 Type O   : 14s11p10d2f contracted to 14s11p10d2f pattern {11111111111111/11111111111/1111111111/11}
 Group   4 Type N   : 14s11p10d2f contracted to 14s11p10d2f pattern {11111111111111/11111111111/1111111111/11}

Atom   0C    basis set group =>   1
Atom   1H    basis set group =>   2
Atom   2H    basis set group =>   2
Atom   3H    basis set group =>   2
Atom   4C    basis set group =>   1
Atom   5O    basis set group =>   3
Atom   6N    basis set group =>   4
Atom   7C    basis set group =>   1
Atom   8H    basis set group =>   2
Atom   9H    basis set group =>   2
Atom  10C    basis set group =>   1
Atom  11N    basis set group =>   4
Atom  12O    basis set group =>   3
Atom  13C    basis set group =>   1
Atom  14H    basis set group =>   2
Atom  15H    basis set group =>   2
Atom  16H    basis set group =>   2
Atom  17C    basis set group =>   1
Atom  18H    basis set group =>   2
Atom  19H    basis set group =>   2
Atom  20H    basis set group =>   2
Atom  21C    basis set group =>   1
Atom  22H    basis set group =>   2
Atom  23C    basis set group =>   1
Atom  24H    basis set group =>   2
Atom  25H    basis set group =>   2
Atom  26C    basis set group =>   1
Atom  27H    basis set group =>   2
Atom  28H    basis set group =>   2
Atom  29H    basis set group =>   2
Atom  30C    basis set group =>   1
Atom  31H    basis set group =>   2
Atom  32H    basis set group =>   2
Atom  33H    basis set group =>   2
---------------------------------
AUXILIARY/C BASIS SET INFORMATION
---------------------------------
There are 4 groups of distinct atoms

 Group   1 Type C   : 13s11p10d2f contracted to 13s11p10d2f pattern {1111111111111/11111111111/1111111111/11}
 Group   2 Type H   : 9s2p contracted to 9s2p pattern {111111111/11}
 Group   3 Type O   : 14s11p10d2f contracted to 14s11p10d2f pattern {11111111111111/11111111111/1111111111/11}
 Group   4 Type N   : 14s11p10d2f contracted to 14s11p10d2f pattern {11111111111111/11111111111/1111111111/11}

Atom   0C    basis set group =>   1
Atom   1H    basis set group =>   2
Atom   2H    basis set group =>   2
Atom   3H    basis set group =>   2
Atom   4C    basis set group =>   1
Atom   5O    basis set group =>   3
Atom   6N    basis set group =>   4
Atom   7C    basis set group =>   1
Atom   8H    basis set group =>   2
Atom   9H    basis set group =>   2
Atom  10C    basis set group =>   1
Atom  11N    basis set group =>   4
Atom  12O    basis set group =>   3
Atom  13C    basis set group =>   1
Atom  14H    basis set group =>   2
Atom  15H    basis set group =>   2
Atom  16H    basis set group =>   2
Atom  17C    basis set group =>   1
Atom  18H    basis set group =>   2
Atom  19H    basis set group =>   2
Atom  20H    basis set group =>   2
Atom  21C    basis set group =>   1
Atom  22H    basis set group =>   2
Atom  23C    basis set group =>   1
Atom  24H    basis set group =>   2
Atom  25H    basis set group =>   2
Atom  26C    basis set group =>   1
Atom  27H    basis set group =>   2
Atom  28H    basis set group =>   2
Atom  29H    basis set group =>   2
Atom  30C    basis set group =>   1
Atom  31H    basis set group =>   2
Atom  32H    basis set group =>   2
Atom  33H    basis set group =>   2
----------------------------------
AUXILIARY/JK BASIS SET INFORMATION
----------------------------------
There are 4 groups of distinct atoms

 Group   1 Type C   : 13s11p10d2f contracted to 13s11p10d2f pattern {1111111111111/11111111111/1111111111/11}
 Group   2 Type H   : 9s2p contracted to 9s2p pattern {111111111/11}
 Group   3 Type O   : 14s11p10d2f contracted to 14s11p10d2f pattern {11111111111111/11111111111/1111111111/11}
 Group   4 Type N   : 14s11p10d2f contracted to 14s11p10d2f pattern {11111111111111/11111111111/1111111111/11}

Atom   0C    basis set group =>   1
Atom   1H    basis set group =>   2
Atom   2H    basis set group =>   2
Atom   3H    basis set group =>   2
Atom   4C    basis set group =>   1
Atom   5O    basis set group =>   3
Atom   6N    basis set group =>   4
Atom   7C    basis set group =>   1
Atom   8H    basis set group =>   2
Atom   9H    basis set group =>   2
Atom  10C    basis set group =>   1
Atom  11N    basis set group =>   4
Atom  12O    basis set group =>   3
Atom  13C    basis set group =>   1
Atom  14H    basis set group =>   2
Atom  15H    basis set group =>   2
Atom  16H    basis set group =>   2
Atom  17C    basis set group =>   1
Atom  18H    basis set group =>   2
Atom  19H    basis set group =>   2
Atom  20H    basis set group =>   2
Atom  21C    basis set group =>   1
Atom  22H    basis set group =>   2
Atom  23C    basis set group =>   1
Atom  24H    basis set group =>   2
Atom  25H    basis set group =>   2
Atom  26C    basis set group =>   1
Atom  27H    basis set group =>   2
Atom  28H    basis set group =>   2
Atom  29H    basis set group =>   2
Atom  30C    basis set group =>   1
Atom  31H    basis set group =>   2
Atom  32H    basis set group =>   2
Atom  33H    basis set group =>   2


           ************************************************************
           *        Program running with 4 parallel MPI-processes     *
           *              working on a common directory               *
           ************************************************************
------------------------------------------------------------------------------
                           ORCA GTO INTEGRAL CALCULATION
                           -- RI-GTO INTEGRALS CHOSEN --
------------------------------------------------------------------------------
------------------------------------------------------------------------------
                   ___                                                        
                  /   \      - P O W E R E D   B Y -                         
                 /     \                                                     
                 |  |  |   _    _      __       _____    __    __             
                 |  |  |  | |  | |    /  \     |  _  \  |  |  /  |          
                  \  \/   | |  | |   /    \    | | | |  |  | /  /          
                 / \  \   | |__| |  /  /\  \   | |_| |  |  |/  /          
                |  |  |   |  __  | /  /__\  \  |    /   |      \           
                |  |  |   | |  | | |   __   |  |    \   |  |\   \          
                \     /   | |  | | |  |  |  |  | |\  \  |  | \   \       
                 \___/    |_|  |_| |__|  |__|  |_| \__\ |__|  \__/        
                                                                              
                      - O R C A' S   B I G   F R I E N D -                    
                                      &                                       
                       - I N T E G R A L  F E E D E R -                       
                                                                              
 v1 FN, 2020, v2 2021                                                         
------------------------------------------------------------------------------


Reading SHARK input file Ni_gas.SHARKINP.tmp ... ok
----------------------
SHARK INTEGRAL PACKAGE
----------------------

Number of atoms                             ...     34
Number of basis functions                   ...    236
Number of shells                            ...    124
Maximum angular momentum                    ...      2
Integral batch strategy                     ... SHARK/LIBINT Hybrid
RI-J (if used) integral strategy            ... SPLIT-RIJ (Revised 2003 algorithm where possible)
Printlevel                                  ...      1
Contraction scheme used                     ... SEGMENTED contraction
Coulomb Range Separation                    ... NOT USED
Exchange Range Separation                   ... NOT USED
Finite Nucleus Model                        ... NOT USED
Auxiliary Coulomb fitting basis             ... AVAILABLE
   # of basis functions in Aux-J            ...   1844
   # of shells in Aux-J                     ...    728
   Maximum angular momentum in Aux-J        ...      3
Auxiliary J/K fitting basis                 ... AVAILABLE
   # of basis functions in Aux-JK           ...   1844
   # of shells in Aux-JK                    ...    728
   Maximum angular momentum in Aux-JK       ...      3
Auxiliary Correlation fitting basis         ... AVAILABLE
   # of basis functions in Aux-C            ...   1844
   # of shells in Aux-C                     ...    728
   Maximum angular momentum in Aux-C        ...      3
Auxiliary 'external' fitting basis          ... NOT available
Integral threshold                          ...     2.500000e-11
Primitive cut-off                           ...     2.500000e-12
Primitive pair pre-selection threshold      ...     2.500000e-12

Calculating pre-screening integrals         ... done (  0.0 sec) Dimension = 124
Organizing shell pair data                  ... done (  1.1 sec)
Shell pair information
Total number of shell pairs                 ...      7750
Shell pairs after pre-screening             ...      6863
Total number of primitive shell pairs       ...     42549
Primitive shell pairs kept                  ...     22280
          la=0 lb=0:   2912 shell pairs
          la=1 lb=0:   2132 shell pairs
          la=1 lb=1:    398 shell pairs
          la=2 lb=0:    961 shell pairs
          la=2 lb=1:    369 shell pairs
          la=2 lb=2:     91 shell pairs

Calculating one electron integrals          ... done (  0.0 sec)
Calculating RI/J V-Matrix + Cholesky decomp.... done (  0.2 sec)
Calculating RI/JK V-Matrix + Cholesky decomp... done (  0.2 sec)
Calculating RI/C V-Matrix + Cholesky decomp.... done (  0.2 sec)
Calculating Nuclear repulsion               ... done (  0.0 sec) ENN=   1014.900127189518 Eh

SHARK setup successfully completed in   2.2 seconds

Maximum memory used throughout the entire GTOINT-calculation: 31.1 MB


           ************************************************************
           *        Program running with 4 parallel MPI-processes     *
           *              working on a common directory               *
           ************************************************************
-------------------------------------------------------------------------------
                                 ORCA SCF
-------------------------------------------------------------------------------

------------
SCF SETTINGS
------------
Hamiltonian:
 Density Functional     Method          .... DFT(GTOs)
 Exchange Functional    Exchange        .... B88
   X-Alpha parameter    XAlpha          ....  0.666667
   Becke's b parameter  XBeta           ....  0.004200
 Correlation Functional Correlation     .... LYP
 LDA part of GGA corr.  LDAOpt          .... VWN-5
 Gradients option       PostSCFGGA      .... off
 Hybrid DFT is turned on
   Fraction HF Exchange ScalHFX         ....  0.200000
   Scaling of DF-GGA-X  ScalDFX         ....  0.720000
   Scaling of DF-GGA-C  ScalDFC         ....  0.810000
   Scaling of DF-LDA-C  ScalLDAC        ....  1.000000
   Perturbative correction              ....  0.000000
   Density functional embedding theory  .... OFF
   NL short-range parameter             ....  4.800000
 RI-approximation to the Coulomb term is turned on
   Number of AuxJ basis functions       .... 1844
   RIJ-COSX (HFX calculated with COS-X)).... on


General Settings:
 Integral files         IntName         .... Ni_gas
 Hartree-Fock type      HFTyp           .... RHF
 Total Charge           Charge          ....    0
 Multiplicity           Mult            ....    1
 Number of Electrons    NEL             ....  110
 Basis Dimension        Dim             ....  236
 Nuclear Repulsion      ENuc            ....   1014.9001271895 Eh

Convergence Acceleration:
 DIIS                   CNVDIIS         .... on
   Start iteration      DIISMaxIt       ....    12
   Startup error        DIISStart       ....  0.200000
   # of expansion vecs  DIISMaxEq       ....     5
   Bias factor          DIISBfac        ....   1.050
   Max. coefficient     DIISMaxC        ....  10.000
 Trust-Rad. Augm. Hess. CNVTRAH         .... auto
   Auto Start mean grad. ratio tolernc. ....  1.125000
   Auto Start start iteration           ....    20
   Auto Start num. interpolation iter.  ....    10
   Max. Number of Micro iterations      ....    16
   Max. Number of Macro iterations      .... Maxiter - #DIIS iter
   Number of Davidson start vectors     ....     2
   Converg. threshold I  (grad. norm)   ....   1.000e-05
   Converg. threshold II (energy diff.) ....   1.000e-08
   Grad. Scal. Fac. for Micro threshold ....   0.100
   Minimum threshold for Micro iter.    ....   0.010
   NR start threshold (gradient norm)   ....   0.001
   Initial trust radius                 ....   0.400
   Minimum AH scaling param. (alpha)    ....   1.000
   Maximum AH scaling param. (alpha)    .... 1000.000
   Orbital update algorithm             .... Taylor
   White noise on init. David. guess    .... on
   Maximum white noise                  ....   0.010
   Quad. conv. algorithm                .... NR
 SOSCF                  CNVSOSCF        .... on
   Start iteration      SOSCFMaxIt      ....   150
   Startup grad/error   SOSCFStart      ....  0.003300
 Level Shifting         CNVShift        .... on
   Level shift para.    LevelShift      ....    0.2500
   Turn off err/grad.   ShiftErr        ....    0.0010
 Zerner damping         CNVZerner       .... off
 Static damping         CNVDamp         .... on
   Fraction old density DampFac         ....    0.7000
   Max. Damping (<1)    DampMax         ....    0.9800
   Min. Damping (>=0)   DampMin         ....    0.0000
   Turn off err/grad.   DampErr         ....    0.1000
 Fernandez-Rico         CNVRico         .... off

SCF Procedure:
 Maximum # iterations   MaxIter         ....   125
 SCF integral mode      SCFMode         .... Direct
   Integral package                     .... SHARK and LIBINT hybrid scheme
 Reset frequency        DirectResetFreq ....    20
 Integral Threshold     Thresh          ....  2.500e-11 Eh
 Primitive CutOff       TCut            ....  2.500e-12 Eh

Convergence Tolerance:
 Convergence Check Mode ConvCheckMode   .... Total+1el-Energy
 Convergence forced     ConvForced      .... 0
 Energy Change          TolE            ....  1.000e-08 Eh
 1-El. energy change                    ....  1.000e-05 Eh
 Orbital Gradient       TolG            ....  1.000e-05
 Orbital Rotation angle TolX            ....  1.000e-05
 DIIS Error             TolErr          ....  5.000e-07


Diagonalization of the overlap matrix:
Smallest eigenvalue                        ... 3.078e-03
Time for diagonalization                   ...    0.009 sec
Threshold for overlap eigenvalues          ... 1.000e-08
Number of eigenvalues below threshold      ... 0
Time for construction of square roots      ...    0.005 sec
Total time needed                          ...    0.015 sec

Time for model grid setup =    0.262 sec

------------------------------
INITIAL GUESS: MODEL POTENTIAL
------------------------------
Loading Hartree-Fock densities                     ... done
Calculating cut-offs                               ... done
Initializing the effective Hamiltonian             ... done
Setting up the integral package (SHARK)            ... done
Starting the Coulomb interaction                   ... done (   0.2 sec)
Reading the grid                                   ... done
Mapping shells                                     ... done
Starting the XC term evaluation                    ... done (   0.2 sec)
  promolecular density results
     # of electrons  =    109.978183819
     EX              =    -86.925642766
     EC              =     -3.679143140
     EX+EC           =    -90.604785905
Transforming the Hamiltonian                       ... done (   0.0 sec)
Diagonalizing the Hamiltonian                      ... done (   0.0 sec)
Back transforming the eigenvectors                 ... done (   0.0 sec)
Now organizing SCF variables                       ... done
                      ------------------
                      INITIAL GUESS DONE (   0.7 sec)
                      ------------------
-------------------
DFT GRID GENERATION
-------------------

General Integration Accuracy     IntAcc      ... 4.388
Radial Grid Type                 RadialGrid  ... OptM3 with GC (2021)
Angular Grid (max. ang.)         AngularGrid ... 4 (Lebedev-302)
Angular grid pruning method      GridPruning ... 4 (adaptive)
Weight generation scheme         WeightScheme... Becke
Basis function cutoff            BFCut       ... 1.0000e-11
Integration weight cutoff        WCut        ... 1.0000e-14
Angular grids for H and He will be reduced by one unit
Partially contracted basis set               ... off
Rotationally invariant grid construction     ... off

Total number of grid points                  ...   147012
Total number of batches                      ...     2314
Average number of points per batch           ...       63
Average number of grid points per atom       ...     4324
Time for grid setup =    1.177 sec

--------------------
COSX GRID GENERATION
--------------------

GRIDX 1
-------
General Integration Accuracy     IntAcc      ... 3.816
Radial Grid Type                 RadialGrid  ... OptM3 with GC (2021)
Angular Grid (max. ang.)         AngularGrid ... 1 (Lebedev-50)
Angular grid pruning method      GridPruning ... 4 (adaptive)
Weight generation scheme         WeightScheme... Becke
Basis function cutoff            BFCut       ... 1.0000e-11
Integration weight cutoff        WCut        ... 1.0000e-14
Angular grids for H and He will be reduced by one unit
Partially contracted basis set               ... on
Rotationally invariant grid construction     ... off

Total number of grid points                  ...    18751
Total number of batches                      ...      313
Average number of points per batch           ...       59
Average number of grid points per atom       ...      552
UseSFitting                                  ... on

GRIDX 2
-------
General Integration Accuracy     IntAcc      ... 4.020
Radial Grid Type                 RadialGrid  ... OptM3 with GC (2021)
Angular Grid (max. ang.)         AngularGrid ... 2 (Lebedev-110)
Angular grid pruning method      GridPruning ... 4 (adaptive)
Weight generation scheme         WeightScheme... Becke
Basis function cutoff            BFCut       ... 1.0000e-11
Integration weight cutoff        WCut        ... 1.0000e-14
Angular grids for H and He will be reduced by one unit
Partially contracted basis set               ... on
Rotationally invariant grid construction     ... off

Total number of grid points                  ...    39200
Total number of batches                      ...      628
Average number of points per batch           ...       62
Average number of grid points per atom       ...     1153
UseSFitting                                  ... on

GRIDX 3
-------
General Integration Accuracy     IntAcc      ... 4.338
Radial Grid Type                 RadialGrid  ... OptM3 with GC (2021)
Angular Grid (max. ang.)         AngularGrid ... 3 (Lebedev-194)
Angular grid pruning method      GridPruning ... 4 (adaptive)
Weight generation scheme         WeightScheme... Becke
Basis function cutoff            BFCut       ... 1.0000e-11
Integration weight cutoff        WCut        ... 1.0000e-14
Angular grids for H and He will be reduced by one unit
Partially contracted basis set               ... on
Rotationally invariant grid construction     ... off

Total number of grid points                  ...    85275
Total number of batches                      ...     1351
Average number of points per batch           ...       63
Average number of grid points per atom       ...     2508
UseSFitting                                  ... on

Time for X-Grid setup             =    1.218 sec

--------------
SCF ITERATIONS
--------------
ITER       Energy         Delta-E        Max-DP      RMS-DP      [F,P]     Damp
               ***  Starting incremental Fock matrix formation  ***
  0   -652.1866764221   0.000000000000 0.09877547  0.00234493  0.2743752 0.7000
  1   -652.4121200539  -0.225443631877 0.05463633  0.00155912  0.1050472 0.7000
                               ***Turning on DIIS***
  2   -652.4968730891  -0.084753035136 0.06463464  0.00238422  0.0379486 0.0000
  3   -652.6330434940  -0.136170404885 0.03646982  0.00107673  0.0500731 0.0000
  4   -652.6618951861  -0.028851692187 0.01018112  0.00036528  0.0132216 0.0000
  5   -652.6641682415  -0.002273055324 0.00367023  0.00010666  0.0058640 0.0000
                      *** Initiating the SOSCF procedure ***
                           *** Shutting down DIIS ***
                      *** Re-Reading the Fockian *** 
                      *** Removing any level shift *** 
ITER      Energy       Delta-E        Grad      Rot      Max-DP    RMS-DP
  6   -652.66430792  -0.0001396786  0.000228  0.000228  0.001323  0.000046
               *** Restarting incremental Fock matrix formation ***
  7   -652.66428084   0.0000270811  0.000217  0.000705  0.001499  0.000026
  8   -652.66427587   0.0000049734  0.000347  0.000520  0.000989  0.000017
  9   -652.66428406  -0.0000081922  0.000046  0.000136  0.000304  0.000007
 10   -652.66428368   0.0000003768  0.000103  0.000093  0.000214  0.000004
 11   -652.66428417  -0.0000004884  0.000007  0.000008  0.000027  0.000001
 12   -652.66428416   0.0000000133  0.000007  0.000004  0.000014  0.000000
                  ***Gradient check signals convergence***
              ***Rediagonalizing the Fockian in SOSCF/NRSCF***

               *****************************************************
               *                     SUCCESS                       *
               *           SCF CONVERGED AFTER  13 CYCLES          *
               *****************************************************

Old exchange energy                            =    -17.749084404 Eh
New exchange energy                            =    -17.749100059 Eh
Exchange energy change after final integration =     -0.000015655 Eh
Total energy after final integration           =   -652.664299817 Eh
Final COS-X integration done in                =    10.016 sec

----------------
TOTAL SCF ENERGY
----------------

Total Energy       :         -652.66429982 Eh          -17759.89849 eV

Components:
Nuclear Repulsion  :         1014.90012719 Eh           27616.83647 eV
Electronic Energy  :        -1667.56442701 Eh          -45376.73497 eV
One Electron Energy:        -2901.49459175 Eh          -78953.68177 eV
Two Electron Energy:         1233.93016475 Eh           33576.94680 eV
Max COSX asymmetry :            0.00000290 Eh               0.00008 eV

Virial components:
Potential Energy   :        -1301.54040195 Eh          -35416.71489 eV
Kinetic Energy     :          648.87610214 Eh           17656.81639 eV
Virial Ratio       :            2.00583809


DFT components:
N(Alpha)           :       54.999891602095 electrons
N(Beta)            :       54.999891602095 electrons
N(Total)           :      109.999783204191 electrons
E(X)               :      -70.447804055951 Eh       
E(C)               :       -4.337111319964 Eh       
E(XC)              :      -74.784915375914 Eh       
DFET-embed. en.    :        0.000000000000 Eh       

---------------
SCF CONVERGENCE
---------------

  Last Energy change         ...   -5.8399e-09  Tolerance :   1.0000e-08
  Last MAX-Density change    ...    2.2204e-15  Tolerance :   1.0000e-07
  Last RMS-Density change    ...    3.9126e-17  Tolerance :   5.0000e-09
  Last Orbital Gradient      ...    4.2254e-07  Tolerance :   1.0000e-05
  Last Orbital Rotation      ...    7.2276e-07  Tolerance :   1.0000e-05

             **** THE GBW FILE WAS UPDATED (Ni_gas.gbw) ****
             **** DENSITY Ni_gas.scfp WAS UPDATED ****
             **** ENERGY FILE WAS UPDATED (Ni_gas.en.tmp) ****
             **** THE GBW FILE WAS UPDATED (Ni_gas.gbw) ****
             **** DENSITY Ni_gas.scfp WAS UPDATED ****
----------------
ORBITAL ENERGIES
----------------

  NO   OCC          E(Eh)            E(eV) 
   0   2.0000     -19.102255      -519.7988 
   1   2.0000     -19.100893      -519.7617 
   2   2.0000     -14.358318      -390.7097 
   3   2.0000     -14.358261      -390.7081 
   4   2.0000     -10.280761      -279.7537 
   5   2.0000     -10.274787      -279.5912 
   6   2.0000     -10.221410      -278.1387 
   7   2.0000     -10.208976      -277.8004 
   8   2.0000     -10.203879      -277.6617 
   9   2.0000     -10.200265      -277.5633 
  10   2.0000     -10.179550      -276.9996 
  11   2.0000     -10.178770      -276.9784 
  12   2.0000     -10.174717      -276.8681 
  13   2.0000     -10.168754      -276.7059 
  14   2.0000      -1.025969       -27.9180 
  15   2.0000      -1.017852       -27.6971 
  16   2.0000      -0.931192       -25.3390 
  17   2.0000      -0.926585       -25.2137 
  18   2.0000      -0.799091       -21.7444 
  19   2.0000      -0.757713       -20.6184 
  20   2.0000      -0.730342       -19.8736 
  21   2.0000      -0.721994       -19.6464 
  22   2.0000      -0.709012       -19.2932 
  23   2.0000      -0.672526       -18.3004 
  24   2.0000      -0.657401       -17.8888 
  25   2.0000      -0.602540       -16.3960 
  26   2.0000      -0.545013       -14.8306 
  27   2.0000      -0.528111       -14.3706 
  28   2.0000      -0.506842       -13.7919 
  29   2.0000      -0.493535       -13.4298 
  30   2.0000      -0.482468       -13.1286 
  31   2.0000      -0.466119       -12.6837 
  32   2.0000      -0.460288       -12.5251 
  33   2.0000      -0.453184       -12.3318 
  34   2.0000      -0.445742       -12.1293 
  35   2.0000      -0.434112       -11.8128 
  36   2.0000      -0.413827       -11.2608 
  37   2.0000      -0.408976       -11.1288 
  38   2.0000      -0.403311       -10.9747 
  39   2.0000      -0.400538       -10.8992 
  40   2.0000      -0.397751       -10.8234 
  41   2.0000      -0.391946       -10.6654 
  42   2.0000      -0.390910       -10.6372 
  43   2.0000      -0.387310       -10.5393 
  44   2.0000      -0.374018       -10.1776 
  45   2.0000      -0.366560        -9.9746 
  46   2.0000      -0.365170        -9.9368 
  47   2.0000      -0.348437        -9.4814 
  48   2.0000      -0.342913        -9.3311 
  49   2.0000      -0.334803        -9.1104 
  50   2.0000      -0.330479        -8.9928 
  51   2.0000      -0.251781        -6.8513 
  52   2.0000      -0.244682        -6.6581 
  53   2.0000      -0.234567        -6.3829 
  54   2.0000      -0.231067        -6.2876 
  55   0.0000       0.016251         0.4422 
  56   0.0000       0.030503         0.8300 
  57   0.0000       0.071621         1.9489 
  58   0.0000       0.091613         2.4929 
  59   0.0000       0.102750         2.7960 
  60   0.0000       0.117410         3.1949 
  61   0.0000       0.130450         3.5497 
  62   0.0000       0.139441         3.7944 
  63   0.0000       0.146987         3.9997 
  64   0.0000       0.149310         4.0629 
  65   0.0000       0.152094         4.1387 
  66   0.0000       0.160559         4.3690 
  67   0.0000       0.162793         4.4298 
  68   0.0000       0.166730         4.5369 
  69   0.0000       0.168973         4.5980 
  70   0.0000       0.171356         4.6628 
  71   0.0000       0.176361         4.7990 
  72   0.0000       0.185243         5.0407 
  73   0.0000       0.188099         5.1184 
  74   0.0000       0.194319         5.2877 
  75   0.0000       0.208342         5.6693 
  76   0.0000       0.216649         5.8953 
  77   0.0000       0.218630         5.9492 
  78   0.0000       0.223752         6.0886 
  79   0.0000       0.229381         6.2418 
  80   0.0000       0.241717         6.5774 
  81   0.0000       0.247616         6.7380 
  82   0.0000       0.254987         6.9385 
  83   0.0000       0.268192         7.2979 
  84   0.0000       0.275892         7.5074 
  85   0.0000       0.298238         8.1155 
  86   0.0000       0.345190         9.3931 
  87   0.0000       0.368246        10.0205 
  88   0.0000       0.388878        10.5819 
  89   0.0000       0.424385        11.5481 
  90   0.0000       0.465085        12.6556 
  91   0.0000       0.489326        13.3152 
  92   0.0000       0.499836        13.6012 
  93   0.0000       0.504221        13.7205 
  94   0.0000       0.514722        14.0063 
  95   0.0000       0.520168        14.1545 
  96   0.0000       0.535815        14.5803 
  97   0.0000       0.550212        14.9720 
  98   0.0000       0.551057        14.9950 
  99   0.0000       0.575718        15.6661 
 100   0.0000       0.581979        15.8364 
 101   0.0000       0.599279        16.3072 
 102   0.0000       0.612396        16.6641 
 103   0.0000       0.616125        16.7656 
 104   0.0000       0.626653        17.0521 
 105   0.0000       0.641493        17.4559 
 106   0.0000       0.658425        17.9167 
 107   0.0000       0.668336        18.1864 
 108   0.0000       0.678984        18.4761 
 109   0.0000       0.685375        18.6500 
 110   0.0000       0.713816        19.4239 
 111   0.0000       0.727301        19.7909 
 112   0.0000       0.732517        19.9328 
 113   0.0000       0.741563        20.1790 
 114   0.0000       0.768992        20.9253 
 115   0.0000       0.781337        21.2613 
 116   0.0000       0.800943        21.7948 
 117   0.0000       0.808652        22.0045 
 118   0.0000       0.812947        22.1214 
 119   0.0000       0.832061        22.6415 
 120   0.0000       0.847982        23.0748 
 121   0.0000       0.848589        23.0913 
 122   0.0000       0.861172        23.4337 
 123   0.0000       0.871845        23.7241 
 124   0.0000       0.878914        23.9165 
 125   0.0000       0.883316        24.0362 
 126   0.0000       0.891454        24.2577 
 127   0.0000       0.893406        24.3108 
 128   0.0000       0.896709        24.4007 
 129   0.0000       0.901422        24.5289 
 130   0.0000       0.907691        24.6995 
 131   0.0000       0.918523        24.9943 
 132   0.0000       0.923790        25.1376 
 133   0.0000       0.931249        25.3406 
 134   0.0000       0.942283        25.6408 
 135   0.0000       0.956834        26.0368 
 136   0.0000       0.962773        26.1984 
 137   0.0000       0.975411        26.5423 
 138   0.0000       0.979902        26.6645 
 139   0.0000       0.992877        27.0176 
 140   0.0000       1.001794        27.2602 
 141   0.0000       1.017602        27.6904 
 142   0.0000       1.024434        27.8763 
 143   0.0000       1.031748        28.0753 
 144   0.0000       1.060535        28.8586 
 145   0.0000       1.070462        29.1288 
 146   0.0000       1.092467        29.7276 
 147   0.0000       1.097270        29.8582 
 148   0.0000       1.128832        30.7171 
 149   0.0000       1.132401        30.8142 
 150   0.0000       1.164193        31.6793 
 151   0.0000       1.192459        32.4485 
 152   0.0000       1.254014        34.1234 
 153   0.0000       1.276466        34.7344 
 154   0.0000       1.288640        35.0657 
 155   0.0000       1.310030        35.6477 
 156   0.0000       1.345912        36.6241 
 157   0.0000       1.365087        37.1459 
 158   0.0000       1.371402        37.3177 
 159   0.0000       1.391778        37.8722 
 160   0.0000       1.431685        38.9581 
 161   0.0000       1.441286        39.2194 
 162   0.0000       1.443547        39.2809 
 163   0.0000       1.461058        39.7574 
 164   0.0000       1.490856        40.5683 
 165   0.0000       1.543777        42.0083 
 166   0.0000       1.553775        42.2804 
 167   0.0000       1.605477        43.6872 
 168   0.0000       1.627937        44.2984 
 169   0.0000       1.648920        44.8694 
 170   0.0000       1.695169        46.1279 
 171   0.0000       1.722319        46.8667 
 172   0.0000       1.731539        47.1176 
 173   0.0000       1.754787        47.7502 
 174   0.0000       1.768144        48.1136 
 175   0.0000       1.797208        48.9045 
 176   0.0000       1.823035        49.6073 
 177   0.0000       1.825460        49.6733 
 178   0.0000       1.842424        50.1349 
 179   0.0000       1.863602        50.7112 
 180   0.0000       1.871947        50.9383 
 181   0.0000       1.890918        51.4545 
 182   0.0000       1.900547        51.7165 
 183   0.0000       1.911361        52.0108 
 184   0.0000       1.941698        52.8363 
 185   0.0000       1.949201        53.0404 
 186   0.0000       1.953467        53.1566 
 187   0.0000       1.959192        53.3123 
 188   0.0000       1.963349        53.4254 
 189   0.0000       1.989933        54.1488 
 190   0.0000       2.008031        54.6413 
 191   0.0000       2.024739        55.0960 
 192   0.0000       2.042875        55.5895 
 193   0.0000       2.051391        55.8212 
 194   0.0000       2.069131        56.3039 
 195   0.0000       2.079564        56.5878 
 196   0.0000       2.093747        56.9737 
 197   0.0000       2.107456        57.3468 
 198   0.0000       2.111776        57.4644 
 199   0.0000       2.135917        58.1213 
 200   0.0000       2.179590        59.3096 
 201   0.0000       2.190576        59.6086 
 202   0.0000       2.208346        60.0922 
 203   0.0000       2.225143        60.5492 
 204   0.0000       2.229671        60.6724 
 205   0.0000       2.265819        61.6561 
 206   0.0000       2.281469        62.0819 
 207   0.0000       2.284142        62.1547 
 208   0.0000       2.310979        62.8849 
 209   0.0000       2.319080        63.1054 
 210   0.0000       2.334741        63.5315 
 211   0.0000       2.341386        63.7124 
 212   0.0000       2.371639        64.5356 
 213   0.0000       2.383650        64.8624 
 214   0.0000       2.413759        65.6817 
 215   0.0000       2.419200        65.8298 
 216   0.0000       2.447960        66.6124 
 217   0.0000       2.485041        67.6214 
 218   0.0000       2.510468        68.3133 
 219   0.0000       2.540687        69.1356 
 220   0.0000       2.567780        69.8729 
 221   0.0000       2.602598        70.8203 
 222   0.0000       2.613086        71.1057 
 223   0.0000       2.638063        71.7853 
 224   0.0000       2.642111        71.8955 
 225   0.0000       2.690072        73.2006 
 226   0.0000       2.721791        74.0637 
 227   0.0000       2.751253        74.8654 
 228   0.0000       2.769592        75.3644 
 229   0.0000       2.792922        75.9993 
 230   0.0000       2.942542        80.0706 
 231   0.0000       2.975048        80.9552 
 232   0.0000       3.010109        81.9092 
 233   0.0000       3.013013        81.9883 
 234   0.0000       3.169676        86.2513 
 235   0.0000       3.186695        86.7144 

                    ********************************
                    * MULLIKEN POPULATION ANALYSIS *
                    ********************************

-----------------------
MULLIKEN ATOMIC CHARGES
-----------------------
   0 C :   -0.544561
   1 H :    0.163699
   2 H :    0.181156
   3 H :    0.185031
   4 C :    0.525757
   5 O :   -0.490893
   6 N :   -0.389098
   7 C :   -0.257018
   8 H :    0.174083
   9 H :    0.205416
  10 C :    0.524946
  11 N :   -0.365169
  12 O :   -0.492438
  13 C :   -0.345934
  14 H :    0.148759
  15 H :    0.154444
  16 H :    0.216027
  17 C :   -0.321463
  18 H :    0.148811
  19 H :    0.202826
  20 H :    0.152478
  21 C :    0.019882
  22 H :    0.177141
  23 C :   -0.261079
  24 H :    0.151797
  25 H :    0.134187
  26 C :   -0.455659
  27 H :    0.147363
  28 H :    0.146968
  29 H :    0.162926
  30 C :   -0.464805
  31 H :    0.159115
  32 H :    0.148772
  33 H :    0.156533
Sum of atomic charges:    0.0000000

--------------------------------
MULLIKEN REDUCED ORBITAL CHARGES
--------------------------------
  0 C s       :     3.315690  s :     3.315690
      pz      :     1.059541  p :     3.196479
      px      :     1.031332
      py      :     1.105607
      dz2     :     0.001299  d :     0.032392
      dxz     :     0.009530
      dyz     :     0.010341
      dx2y2   :     0.009872
      dxy     :     0.001350
  1 H s       :     0.836301  s :     0.836301
  2 H s       :     0.818844  s :     0.818844
  3 H s       :     0.814969  s :     0.814969
  4 C s       :     2.985890  s :     2.985890
      pz      :     0.815890  p :     2.380558
      px      :     0.815419
      py      :     0.749248
      dz2     :     0.010275  d :     0.107796
      dxz     :     0.008922
      dyz     :     0.028592
      dx2y2   :     0.029380
      dxy     :     0.030627
  5 O s       :     3.877865  s :     3.877865
      pz      :     1.569203  p :     4.587089
      px      :     1.604681
      py      :     1.413205
      dz2     :     0.002682  d :     0.025939
      dxz     :     0.001268
      dyz     :     0.007353
      dx2y2   :     0.007326
      dxy     :     0.007311
  6 N s       :     3.540155  s :     3.540155
      pz      :     1.428073  p :     3.812922
      px      :     1.286217
      py      :     1.098631
      dz2     :     0.005237  d :     0.036021
      dxz     :     0.004754
      dyz     :     0.007650
      dx2y2   :     0.009289
      dxy     :     0.009091
  7 C s       :     3.252731  s :     3.252731
      pz      :     0.989032  p :     2.952385
      px      :     0.860103
      py      :     1.103249
      dz2     :     0.014403  d :     0.051903
      dxz     :     0.011808
      dyz     :     0.004973
      dx2y2   :     0.012931
      dxy     :     0.007787
  8 H s       :     0.825917  s :     0.825917
  9 H s       :     0.794584  s :     0.794584
 10 C s       :     2.980325  s :     2.980325
      pz      :     0.775481  p :     2.387301
      px      :     0.831572
      py      :     0.780248
      dz2     :     0.027460  d :     0.107428
      dxz     :     0.015287
      dyz     :     0.022269
      dx2y2   :     0.015515
      dxy     :     0.026898
 11 N s       :     3.530343  s :     3.530343
      pz      :     1.237491  p :     3.797395
      px      :     1.307112
      py      :     1.252792
      dz2     :     0.007803  d :     0.037432
      dxz     :     0.007226
      dyz     :     0.008080
      dx2y2   :     0.006228
      dxy     :     0.008095
 12 O s       :     3.873164  s :     3.873164
      pz      :     1.577234  p :     4.593215
      px      :     1.639789
      py      :     1.376193
      dz2     :     0.004393  d :     0.026059
      dxz     :     0.002647
      dyz     :     0.007189
      dx2y2   :     0.006538
      dxy     :     0.005293
 13 C s       :     3.269061  s :     3.269061
      pz      :     1.004781  p :     3.028352
      px      :     1.103381
      py      :     0.920189
      dz2     :     0.009940  d :     0.048521
      dxz     :     0.008211
      dyz     :     0.011787
      dx2y2   :     0.006109
      dxy     :     0.012475
 14 H s       :     0.851241  s :     0.851241
 15 H s       :     0.845556  s :     0.845556
 16 H s       :     0.783973  s :     0.783973
 17 C s       :     3.254042  s :     3.254042
      pz      :     1.071944  p :     3.019216
      px      :     0.926542
      py      :     1.020731
      dz2     :     0.008531  d :     0.048204
      dxz     :     0.006082
      dyz     :     0.012681
      dx2y2   :     0.007601
      dxy     :     0.013310
 18 H s       :     0.851189  s :     0.851189
 19 H s       :     0.797174  s :     0.797174
 20 H s       :     0.847522  s :     0.847522
 21 C s       :     3.174448  s :     3.174448
      pz      :     0.999801  p :     2.747277
      px      :     0.964412
      py      :     0.783064
      dz2     :     0.009721  d :     0.058393
      dxz     :     0.011215
      dyz     :     0.012011
      dx2y2   :     0.014098
      dxy     :     0.011348
 22 H s       :     0.822859  s :     0.822859
 23 C s       :     3.248320  s :     3.248320
      pz      :     0.967743  p :     2.972595
      px      :     1.054118
      py      :     0.950734
      dz2     :     0.007908  d :     0.040164
      dxz     :     0.008051
      dyz     :     0.008439
      dx2y2   :     0.009451
      dxy     :     0.006316
 24 H s       :     0.848203  s :     0.848203
 25 H s       :     0.865813  s :     0.865813
 26 C s       :     3.296496  s :     3.296496
      pz      :     1.078378  p :     3.124477
      px      :     1.072651
      py      :     0.973448
      dz2     :     0.006889  d :     0.034686
      dxz     :     0.005899
      dyz     :     0.007271
      dx2y2   :     0.008167
      dxy     :     0.006459
 27 H s       :     0.852637  s :     0.852637
 28 H s       :     0.853032  s :     0.853032
 29 H s       :     0.837074  s :     0.837074
 30 C s       :     3.299507  s :     3.299507
      pz      :     1.070598  p :     3.131204
      px      :     0.978164
      py      :     1.082441
      dz2     :     0.005179  d :     0.034094
      dxz     :     0.009520
      dyz     :     0.006142
      dx2y2   :     0.010016
      dxy     :     0.003236
 31 H s       :     0.840885  s :     0.840885
 32 H s       :     0.851228  s :     0.851228
 33 H s       :     0.843467  s :     0.843467


                     *******************************
                     * LOEWDIN POPULATION ANALYSIS *
                     *******************************

----------------------
LOEWDIN ATOMIC CHARGES
----------------------
   0 C :   -0.388181
   1 H :    0.134882
   2 H :    0.151214
   3 H :    0.152681
   4 C :    0.113894
   5 O :   -0.303530
   6 N :   -0.074534
   7 C :   -0.179799
   8 H :    0.140485
   9 H :    0.159189
  10 C :    0.095733
  11 N :   -0.078822
  12 O :   -0.299720
  13 C :   -0.286738
  14 H :    0.120730
  15 H :    0.126622
  16 H :    0.157480
  17 C :   -0.278797
  18 H :    0.120808
  19 H :    0.156298
  20 H :    0.125908
  21 C :   -0.065440
  22 H :    0.147242
  23 C :   -0.237862
  24 H :    0.129036
  25 H :    0.116688
  26 C :   -0.365913
  27 H :    0.128519
  28 H :    0.123469
  29 H :    0.132609
  30 C :   -0.367714
  31 H :    0.134671
  32 H :    0.125752
  33 H :    0.133141

-------------------------------
LOEWDIN REDUCED ORBITAL CHARGES
-------------------------------
  0 C s       :     2.981217  s :     2.981217
      pz      :     1.112597  p :     3.343008
      px      :     1.088572
      py      :     1.141839
      dz2     :     0.002442  d :     0.063956
      dxz     :     0.019716
      dyz     :     0.019521
      dx2y2   :     0.019478
      dxy     :     0.002799
  1 H s       :     0.865118  s :     0.865118
  2 H s       :     0.848786  s :     0.848786
  3 H s       :     0.847319  s :     0.847319
  4 C s       :     2.848947  s :     2.848947
      pz      :     0.872269  p :     2.783815
      px      :     0.943366
      py      :     0.968180
      dz2     :     0.023089  d :     0.253344
      dxz     :     0.019367
      dyz     :     0.065360
      dx2y2   :     0.072460
      dxy     :     0.073068
  5 O s       :     3.570509  s :     3.570509
      pz      :     1.568907  p :     4.680339
      px      :     1.621474
      py      :     1.489958
      dz2     :     0.006434  d :     0.052682
      dxz     :     0.002415
      dyz     :     0.011854
      dx2y2   :     0.015911
      dxy     :     0.016068
  6 N s       :     3.101754  s :     3.101754
      pz      :     1.425786  p :     3.879813
      px      :     1.290887
      py      :     1.163140
      dz2     :     0.012067  d :     0.092967
      dxz     :     0.011739
      dyz     :     0.019363
      dx2y2   :     0.025490
      dxy     :     0.024308
  7 C s       :     2.932801  s :     2.932801
      pz      :     1.045919  p :     3.137541
      px      :     0.960138
      py      :     1.131483
      dz2     :     0.029911  d :     0.109457
      dxz     :     0.025935
      dyz     :     0.008961
      dx2y2   :     0.027116
      dxy     :     0.017535
  8 H s       :     0.859515  s :     0.859515
  9 H s       :     0.840811  s :     0.840811
 10 C s       :     2.853764  s :     2.853764
      pz      :     0.911645  p :     2.796817
      px      :     0.925055
      py      :     0.960117
      dz2     :     0.064070  d :     0.253686
      dxz     :     0.034779
      dyz     :     0.056370
      dx2y2   :     0.035995
      dxy     :     0.062471
 11 N s       :     3.089294  s :     3.089294
      pz      :     1.287811  p :     3.892028
      px      :     1.323850
      py      :     1.280367
      dz2     :     0.019272  d :     0.097501
      dxz     :     0.020489
      dyz     :     0.022001
      dx2y2   :     0.016096
      dxy     :     0.019643
 12 O s       :     3.570436  s :     3.570436
      pz      :     1.588556  p :     4.676349
      px      :     1.636702
[...]
     76       0.012810   0.017910  -0.001084   0.017599   0.000046   0.000242
     77       0.033787   0.032851  -0.002875   0.032874   0.000091   0.000584
     78       0.001565  -0.001561   0.000015  -0.000638  -0.000174  -0.000032
     79      -0.000497   0.000148  -0.000016  -0.000076  -0.000026   0.000006
     80      -0.003317  -0.000822   0.000131  -0.000514   0.000020  -0.000035
     81      -0.007067  -0.001288   0.000319  -0.000575   0.000230  -0.000143
     82      -0.010270  -0.001723   0.000550  -0.000855   0.000564  -0.000256
     83       0.024505   0.003380  -0.001178   0.001694  -0.001064   0.000377
     84      -0.025190   0.010938   0.000122   0.002698   0.001264   0.000091
     85       0.009729  -0.004458  -0.000051  -0.001292  -0.000568   0.000038
     86       0.005984  -0.003107   0.000007  -0.000774  -0.000306  -0.000046
     87       0.012762   0.009111  -0.000648   0.005533   0.000704   0.000318
     88       0.006342   0.004549  -0.000369   0.002991   0.000404   0.000150
     89       0.011092   0.009553  -0.000571   0.005626   0.000890   0.000320
     90      -0.036223   0.006688   0.000338  -0.003890   0.000047  -0.000047
     91      -0.027806   0.006033   0.000310  -0.002387  -0.000087   0.000052
     92      -0.075487   0.012648   0.000500  -0.006711   0.000058  -0.000031
     93      -0.049576   0.009111   0.000647  -0.003165  -0.000296   0.000222
     94       0.282618  -0.056427  -0.003428   0.020634   0.001150  -0.000838
     95       0.037460  -0.007784  -0.000593   0.003390   0.000243  -0.000164
     96       0.551210  -0.098834  -0.005009   0.055210  -0.000527   0.000484
     97       0.249286  -0.044703  -0.001995   0.024177  -0.000281   0.000241
     98       0.585660  -0.106054  -0.004940   0.057973  -0.000490   0.000442
     99      -0.069632   0.009857   0.000301  -0.005106   0.000223  -0.000104
    100      -0.186717   0.025682   0.000730  -0.013877   0.000344  -0.000115
    101       0.283930  -0.036383  -0.000892   0.021517  -0.000679   0.000267


-----------
IR SPECTRUM
-----------

 Mode   freq       eps      Int      T**2         TX        TY        TZ
       cm**-1   L/(mol*cm) km/mol    a.u.
----------------------------------------------------------------------------
  6:     17.88   0.000550    2.78  0.009596  ( 0.058318 -0.050254  0.060576)
  7:     27.84   0.000343    1.74  0.003850  ( 0.011996 -0.028689  0.053690)
  8:     62.39   0.000098    0.50  0.000491  ( 0.014657  0.001195  0.016567)
  9:     75.55   0.000134    0.68  0.000552  ( 0.012923 -0.001321  0.019583)
 10:     81.43   0.000218    1.10  0.000836  ( 0.015310 -0.005879  0.023804)
 11:    105.62   0.000153    0.77  0.000452  (-0.003885  0.004749 -0.020345)
 12:    119.38   0.002026   10.24  0.005296  (-0.068000 -0.011722  0.023120)
 13:    146.85   0.000554    2.80  0.001178  ( 0.034057 -0.004137  0.001033)
 14:    162.38   0.000048    0.24  0.000093  (-0.005579 -0.005283 -0.005819)
 15:    173.49   0.000191    0.96  0.000343  ( 0.017215  0.004275 -0.005312)
 16:    203.94   0.000167    0.84  0.000256  (-0.003433 -0.011793  0.010230)
 17:    215.46   0.000377    1.91  0.000546  ( 0.010476 -0.004502  0.020398)
 18:    238.08   0.000066    0.34  0.000087  (-0.006957 -0.003074 -0.005403)
 19:    266.01   0.000036    0.18  0.000043  (-0.005086  0.003839 -0.001408)
 20:    274.41   0.000939    4.74  0.001067  ( 0.032461 -0.000629  0.003647)
 21:    282.19   0.000561    2.83  0.000620  ( 0.015873 -0.017166  0.008558)
 22:    305.57   0.000534    2.70  0.000545  ( 0.017866 -0.003342  0.014650)
 23:    351.66   0.001002    5.06  0.000889  (-0.026799 -0.006416  0.011377)
 24:    381.61   0.001698    8.58  0.001389  (-0.020180  0.022193  0.022109)
 25:    400.74   0.000688    3.48  0.000536  (-0.000287 -0.016673  0.016061)
 26:    424.07   0.000708    3.58  0.000521  ( 0.022499  0.000305 -0.003845)
 27:    441.60   0.001055    5.33  0.000745  ( 0.013192  0.019928 -0.013194)
 28:    484.81   0.001086    5.49  0.000699  (-0.018142 -0.013134 -0.014039)
 29:    530.97   0.002731   13.80  0.001605  ( 0.028418  0.000410  0.028240)
 30:    586.85   0.002146   10.84  0.001141  ( 0.025669  0.016388 -0.014616)
 31:    603.80   0.001196    6.05  0.000618  ( 0.003702  0.012740 -0.021032)
 32:    642.03   0.002981   15.06  0.001449  ( 0.019465 -0.022792 -0.023460)
 33:    704.41   0.000481    2.43  0.000213  (-0.009730 -0.008358 -0.006975)
 34:    742.59   0.000105    0.53  0.000044  (-0.000091 -0.005276  0.004051)
 35:    787.36   0.001770    8.94  0.000701  (-0.024082  0.004284  0.010158)
 36:    806.61   0.001946    9.84  0.000753  (-0.021994  0.009228  0.013568)
 37:    866.84   0.000473    2.39  0.000170  (-0.007163  0.010373  0.003354)
 38:    943.89   0.000273    1.38  0.000090  (-0.006119 -0.001824  0.007042)
 39:    989.10   0.002727   13.78  0.000860  (-0.018901 -0.000301  0.022431)
 40:    997.99   0.000885    4.47  0.000277  (-0.013844 -0.004989  0.007752)
 41:   1007.64   0.002665   13.47  0.000825  (-0.017004  0.016313  0.016436)
 42:   1014.49   0.002420   12.23  0.000744  (-0.013214 -0.023672  0.003064)
 43:   1042.30   0.001165    5.89  0.000349  (-0.005126 -0.009918  0.014969)
 44:   1066.85   0.001255    6.34  0.000367  (-0.014544 -0.004111  0.011781)
 45:   1075.82   0.002819   14.25  0.000818  ( 0.003120 -0.008016 -0.027271)
 46:   1096.49   0.000847    4.28  0.000241  ( 0.006789  0.013676 -0.002797)
 47:   1141.90   0.000066    0.33  0.000018  ( 0.001960 -0.003502  0.001367)
 48:   1147.13   0.006960   35.17  0.001893  ( 0.019240 -0.036353 -0.014197)
 49:   1152.62   0.004988   25.21  0.001351  ( 0.034525 -0.008818 -0.008989)
 50:   1167.39   0.001744    8.81  0.000466  ( 0.016421 -0.001271 -0.013963)
 51:   1190.44   0.000487    2.46  0.000128  (-0.008716  0.007161 -0.000548)
 52:   1202.51   0.006641   33.56  0.001723  ( 0.010795 -0.018098 -0.035766)
 53:   1234.85   0.003483   17.60  0.000880  ( 0.004374 -0.024014  0.016862)
 54:   1279.67   0.012941   65.40  0.003156  ( 0.034741  0.027960  0.034163)
 55:   1292.22   0.017626   89.07  0.004257  (-0.053185 -0.037391  0.005457)
 56:   1313.65   0.001845    9.32  0.000438  ( 0.017603 -0.006717  0.009123)
 57:   1358.58   0.003711   18.75  0.000852  ( 0.018837  0.022178  0.002383)
 58:   1372.49   0.000352    1.78  0.000080  (-0.006278  0.006232 -0.001295)
 59:   1384.47   0.008941   45.19  0.002015  (-0.019045 -0.039817 -0.008203)
 60:   1404.76   0.003771   19.06  0.000838  (-0.012176 -0.026121 -0.002676)
 61:   1422.74   0.006512   32.91  0.001428  ( 0.026669  0.020694  0.016994)
 62:   1436.98   0.000420    2.12  0.000091  ( 0.006787 -0.002866 -0.006069)
 63:   1443.32   0.002650   13.39  0.000573  (-0.002698  0.021191  0.010797)
 64:   1448.30   0.007003   35.39  0.001509  ( 0.015695 -0.023342 -0.026792)
 65:   1461.52   0.016216   81.95  0.003462  ( 0.048064 -0.006554 -0.033305)
 66:   1496.59   0.008378   42.34  0.001747  ( 0.011867  0.039862 -0.004129)
 67:   1500.36   0.001139    5.75  0.000237  (-0.013594 -0.003077  0.006523)
 68:   1512.99   0.000328    1.66  0.000068  (-0.005825 -0.004903  0.003102)
 69:   1513.35   0.000786    3.97  0.000162  ( 0.009965  0.007262  0.003175)
 70:   1519.45   0.000388    1.96  0.000080  (-0.006828  0.002350  0.005258)
 71:   1523.87   0.002275   11.50  0.000466  ( 0.017843  0.010418  0.006240)
 72:   1527.35   0.007643   38.63  0.001562  ( 0.027451  0.013565  0.024982)
 73:   1530.19   0.000259    1.31  0.000053  ( 0.000441  0.002925 -0.006635)
 74:   1535.70   0.000771    3.89  0.000157  (-0.007357  0.009941  0.001901)
 75:   1537.48   0.004069   20.56  0.000826  (-0.020175  0.020444  0.000924)
 76:   1538.21   0.003355   16.95  0.000681  ( 0.008790 -0.003816  0.024265)
 77:   1542.98   0.001401    7.08  0.000283  ( 0.008505  0.014518  0.000553)
 78:   1551.13   0.003041   15.37  0.000612  (-0.015124 -0.010422 -0.016567)
 79:   1570.48   0.007819   39.52  0.001554  ( 0.025593  0.005306 -0.029506)
 80:   1730.38   0.055844  282.21  0.010071  (-0.024337  0.097285  0.003787)
 81:   1743.54   0.059379  300.08  0.010628  ( 0.014401 -0.075861 -0.068305)
 82:   3020.91   0.006083   30.74  0.000628  (-0.002836  0.018704  0.016448)
 83:   3031.13   0.016405   82.90  0.001689  ( 0.026642 -0.000603 -0.031285)
 84:   3047.08   0.003355   16.95  0.000344  ( 0.001153 -0.017447  0.006153)
 85:   3048.72   0.006090   30.78  0.000623  (-0.002279 -0.019312 -0.015659)
 86:   3063.29   0.003110   15.72  0.000317  (-0.015740  0.005966  0.005783)
 87:   3066.75   0.009700   49.02  0.000987  (-0.024061  0.016892 -0.011079)
 88:   3075.10   0.001362    6.88  0.000138  (-0.011626  0.001647 -0.000554)
 89:   3077.84   0.005882   29.73  0.000596  ( 0.019198 -0.010816  0.010530)
 90:   3082.79   0.002793   14.12  0.000283  (-0.011697  0.003549 -0.011548)
 91:   3086.08   0.002437   12.32  0.000246  ( 0.006068 -0.004274 -0.013835)
 92:   3093.80   0.000826    4.18  0.000083  (-0.003770 -0.004765 -0.006814)
 93:   3115.50   0.007481   37.81  0.000749  (-0.015387 -0.007005  0.021528)
 94:   3118.81   0.007044   35.60  0.000705  ( 0.024807  0.001655  0.009309)
 95:   3127.96   0.005073   25.64  0.000506  ( 0.009466 -0.019914  0.004459)
 96:   3144.65   0.005964   30.14  0.000592  (-0.010767 -0.009063 -0.019845)
 97:   3148.47   0.001204    6.08  0.000119  ( 0.000974  0.002751 -0.010527)
 98:   3172.77   0.000254    1.28  0.000025  (-0.004932 -0.000734  0.000275)
 99:   3179.01   0.002103   10.63  0.000206  (-0.003033  0.013726 -0.002982)
100:   3189.71   0.002087   10.54  0.000204  (-0.013882 -0.003346  0.000489)
101:   3191.53   0.000930    4.70  0.000091  ( 0.009396 -0.001633 -0.000073)

* The epsilon (eps) is given for a Dirac delta lineshape.
** The dipole moment derivative (T) already includes vibrational overlap.

The first frequency considered to be a vibration is 6
The total number of vibrations considered is 96


--------------------------
THERMOCHEMISTRY AT 298.15K
--------------------------

Temperature         ... 298.15 K
Pressure            ... 1.00 atm
Total Mass          ... 200.28 AMU

Throughout the following assumptions are being made:
  (1) The electronic state is orbitally nondegenerate
  (2) There are no thermally accessible electronically excited states
  (3) Hindered rotations indicated by low frequency modes are not
      treated as such but are treated as vibrations and this may
      cause some error
  (4) All equations used are the standard statistical mechanics
      equations for an ideal gas
  (5) All vibrations are strictly harmonic

freq.      17.88  E(vib)   ...       0.57 
freq.      27.84  E(vib)   ...       0.55 
freq.      62.39  E(vib)   ...       0.51 
freq.      75.55  E(vib)   ...       0.49 
freq.      81.43  E(vib)   ...       0.48 
freq.     105.62  E(vib)   ...       0.45 
freq.     119.38  E(vib)   ...       0.44 
freq.     146.85  E(vib)   ...       0.41 
freq.     162.38  E(vib)   ...       0.39 
freq.     173.49  E(vib)   ...       0.38 
freq.     203.94  E(vib)   ...       0.35 
freq.     215.46  E(vib)   ...       0.34 
freq.     238.08  E(vib)   ...       0.32 
freq.     266.01  E(vib)   ...       0.29 
freq.     274.41  E(vib)   ...       0.28 
freq.     282.19  E(vib)   ...       0.28 
freq.     305.57  E(vib)   ...       0.26 
freq.     351.66  E(vib)   ...       0.23 
freq.     381.61  E(vib)   ...       0.21 
freq.     400.74  E(vib)   ...       0.19 
freq.     424.07  E(vib)   ...       0.18 
freq.     441.60  E(vib)   ...       0.17 
freq.     484.81  E(vib)   ...       0.15 
freq.     530.97  E(vib)   ...       0.13 
freq.     586.85  E(vib)   ...       0.11 
freq.     603.80  E(vib)   ...       0.10 
freq.     642.03  E(vib)   ...       0.09 
freq.     704.41  E(vib)   ...       0.07 
freq.     742.59  E(vib)   ...       0.06 
freq.     787.36  E(vib)   ...       0.05 
freq.     806.61  E(vib)   ...       0.05 
freq.     866.84  E(vib)   ...       0.04 
freq.     943.89  E(vib)   ...       0.03 
freq.     989.10  E(vib)   ...       0.02 
freq.     997.99  E(vib)   ...       0.02 
freq.    1007.64  E(vib)   ...       0.02 
freq.    1014.49  E(vib)   ...       0.02 
freq.    1042.30  E(vib)   ...       0.02 
freq.    1066.85  E(vib)   ...       0.02 
freq.    1075.82  E(vib)   ...       0.02 
freq.    1096.49  E(vib)   ...       0.02 
freq.    1141.90  E(vib)   ...       0.01 
freq.    1147.13  E(vib)   ...       0.01 
freq.    1152.62  E(vib)   ...       0.01 
freq.    1167.39  E(vib)   ...       0.01 
freq.    1190.44  E(vib)   ...       0.01 
freq.    1202.51  E(vib)   ...       0.01 
freq.    1234.85  E(vib)   ...       0.01 
freq.    1279.67  E(vib)   ...       0.01 
freq.    1292.22  E(vib)   ...       0.01 
freq.    1313.65  E(vib)   ...       0.01 
freq.    1358.58  E(vib)   ...       0.01 
freq.    1372.49  E(vib)   ...       0.01 
freq.    1384.47  E(vib)   ...       0.00 
freq.    1404.76  E(vib)   ...       0.00 
freq.    1422.74  E(vib)   ...       0.00 
freq.    1436.98  E(vib)   ...       0.00 
freq.    1443.32  E(vib)   ...       0.00 
freq.    1448.30  E(vib)   ...       0.00 
freq.    1461.52  E(vib)   ...       0.00 
freq.    1496.59  E(vib)   ...       0.00 
freq.    1500.36  E(vib)   ...       0.00 
freq.    1512.99  E(vib)   ...       0.00 
freq.    1513.35  E(vib)   ...       0.00 
freq.    1519.45  E(vib)   ...       0.00 
freq.    1523.87  E(vib)   ...       0.00 
freq.    1527.35  E(vib)   ...       0.00 
freq.    1530.19  E(vib)   ...       0.00 
freq.    1535.70  E(vib)   ...       0.00 
freq.    1537.48  E(vib)   ...       0.00 
freq.    1538.21  E(vib)   ...       0.00 
freq.    1542.98  E(vib)   ...       0.00 
freq.    1551.13  E(vib)   ...       0.00 
freq.    1570.48  E(vib)   ...       0.00 
freq.    1730.38  E(vib)   ...       0.00 
freq.    1743.54  E(vib)   ...       0.00 
freq.    3020.91  E(vib)   ...       0.00 
freq.    3031.13  E(vib)   ...       0.00 
freq.    3047.08  E(vib)   ...       0.00 
freq.    3048.72  E(vib)   ...       0.00 
freq.    3063.29  E(vib)   ...       0.00 
freq.    3066.75  E(vib)   ...       0.00 
freq.    3075.10  E(vib)   ...       0.00 
freq.    3077.84  E(vib)   ...       0.00 
freq.    3082.79  E(vib)   ...       0.00 
freq.    3086.08  E(vib)   ...       0.00 
freq.    3093.80  E(vib)   ...       0.00 
freq.    3115.50  E(vib)   ...       0.00 
freq.    3118.81  E(vib)   ...       0.00 
freq.    3127.96  E(vib)   ...       0.00 
freq.    3144.65  E(vib)   ...       0.00 
freq.    3148.47  E(vib)   ...       0.00 
freq.    3172.77  E(vib)   ...       0.00 
freq.    3179.01  E(vib)   ...       0.00 
freq.    3189.71  E(vib)   ...       0.00 
freq.    3191.53  E(vib)   ...       0.00 

------------
INNER ENERGY
------------

The inner energy is: U= E(el) + E(ZPE) + E(vib) + E(rot) + E(trans)
    E(el)   - is the total energy from the electronic structure calculation
              = E(kin-el) + E(nuc-el) + E(el-el) + E(nuc-nuc)
    E(ZPE)  - the the zero temperature vibrational energy from the frequency calculation
    E(vib)  - the the finite temperature correction to E(ZPE) due to population
              of excited vibrational states
    E(rot)  - is the rotational thermal energy
    E(trans)- is the translational thermal energy

Summary of contributions to the inner energy U:
Electronic energy                ...   -652.72319862 Eh
Zero point energy                ...      0.30199503 Eh     189.50 kcal/mol
Thermal vibrational correction   ...      0.01429327 Eh       8.97 kcal/mol
Thermal rotational correction    ...      0.00141627 Eh       0.89 kcal/mol
Thermal translational correction ...      0.00141627 Eh       0.89 kcal/mol
-----------------------------------------------------------------------
Total thermal energy                   -652.40407778 Eh


Summary of corrections to the electronic energy:
(perhaps to be used in another calculation)
Total thermal correction                  0.01712581 Eh      10.75 kcal/mol
Non-thermal (ZPE) correction              0.30199503 Eh     189.50 kcal/mol
-----------------------------------------------------------------------
Total correction                          0.31912084 Eh     200.25 kcal/mol


--------
ENTHALPY
--------

The enthalpy is H = U + kB*T
                kB is Boltzmann's constant
Total free energy                 ...   -652.40407778 Eh 
Thermal Enthalpy correction       ...      0.00094421 Eh       0.59 kcal/mol
-----------------------------------------------------------------------
Total Enthalpy                    ...   -652.40313357 Eh


Note: Only C1 symmetry has been detected, increase convergence thresholds 
      if your molecule has a higher symmetry. Symmetry factor of 1.0 is   
      used for the rotational entropy correction. 
 

Note: Rotational entropy computed according to Herzberg 
Infrared and Raman Spectra, Chapter V,1, Van Nostrand Reinhold, 1945 
Point Group:  C1, Symmetry Number:   1  
Rotational constants in cm-1:     0.026249     0.019310     0.014165 

Vibrational entropy computed according to the QRRHO of S. Grimme
Chem.Eur.J. 2012 18 9955


-------
ENTROPY
-------

The entropy contributions are T*S = T*(S(el)+S(vib)+S(rot)+S(trans))
     S(el)   - electronic entropy
     S(vib)  - vibrational entropy
     S(rot)  - rotational entropy
     S(trans)- translational entropy
The entropies will be listed as multiplied by the temperature to get
units of energy

Electronic entropy                ...      0.00000000 Eh      0.00 kcal/mol
Vibrational entropy               ...      0.02592457 Eh     16.27 kcal/mol
Rotational entropy                ...      0.01510235 Eh      9.48 kcal/mol
Translational entropy             ...      0.01985492 Eh     12.46 kcal/mol
-----------------------------------------------------------------------
Final entropy term                ...      0.06088184 Eh     38.20 kcal/mol

In case the symmetry of your molecule has not been determined correctly
or in case you have a reason to use a different symmetry number we print 
out the resulting rotational entropy values for sn=1,12 :
 --------------------------------------------------------
|  sn= 1 | S(rot)=       0.01510235 Eh      9.48 kcal/mol|
|  sn= 2 | S(rot)=       0.01444790 Eh      9.07 kcal/mol|
|  sn= 3 | S(rot)=       0.01406506 Eh      8.83 kcal/mol|
|  sn= 4 | S(rot)=       0.01379344 Eh      8.66 kcal/mol|
|  sn= 5 | S(rot)=       0.01358275 Eh      8.52 kcal/mol|
|  sn= 6 | S(rot)=       0.01341061 Eh      8.42 kcal/mol|
|  sn= 7 | S(rot)=       0.01326506 Eh      8.32 kcal/mol|
|  sn= 8 | S(rot)=       0.01313898 Eh      8.24 kcal/mol|
|  sn= 9 | S(rot)=       0.01302777 Eh      8.18 kcal/mol|
|  sn=10 | S(rot)=       0.01292829 Eh      8.11 kcal/mol|
|  sn=11 | S(rot)=       0.01283830 Eh      8.06 kcal/mol|
|  sn=12 | S(rot)=       0.01275615 Eh      8.00 kcal/mol|
 --------------------------------------------------------


-------------------
GIBBS FREE ENERGY
-------------------

The Gibbs free energy is G = H - T*S

Total enthalpy                    ...   -652.40313357 Eh 
Total entropy correction          ...     -0.06088184 Eh    -38.20 kcal/mol
-----------------------------------------------------------------------
Final Gibbs free energy         ...   -652.46401541 Eh

For completeness - the Gibbs free energy minus the electronic energy
G-E(el)                           ...      0.25918320 Eh    162.64 kcal/mol


Timings for individual modules:

Sum of individual times         ...     1650.433 sec (=  27.507 min)
GTO integral calculation        ...       20.912 sec (=   0.349 min)   1.3 %
SCF iterations                  ...      823.355 sec (=  13.723 min)  49.9 %
SCF Gradient evaluation         ...      260.808 sec (=   4.347 min)  15.8 %
Geometry relaxation             ...        1.325 sec (=   0.022 min)   0.1 %
Analytical frequency calculation...      544.034 sec (=   9.067 min)  33.0 %
                             ****ORCA TERMINATED NORMALLY****
TOTAL RUN TIME: 0 days 0 hours 27 minutes 37 seconds 747 msec
