
                                 *****************
                                 * O   R   C   A *
                                 *****************

                                            #,                                       
                                            ###                                      
                                            ####                                     
                                            #####                                    
                                            ######                                   
                                           ########,                                 
                                     ,,################,,,,,                         
                               ,,#################################,,                 
                          ,,##########################################,,             
                       ,#########################################, ''#####,          
                    ,#############################################,,   '####,        
                  ,##################################################,,,,####,       
                ,###########''''           ''''###############################       
              ,#####''   ,,,,##########,,,,          '''####'''          '####       
            ,##' ,,,,###########################,,,                        '##       
           ' ,,###''''                  '''############,,,                           
         ,,##''                                '''############,,,,        ,,,,,,###''
      ,#''                                            '''#######################'''  
     '                                                          ''''####''''         
             ,#######,   #######,   ,#######,      ##                                
            ,#'     '#,  ##    ##  ,#'     '#,    #''#        ######   ,####,        
            ##       ##  ##   ,#'  ##            #'  '#       #        #'  '#        
            ##       ##  #######   ##           ,######,      #####,   #    #        
            '#,     ,#'  ##    ##  '#,     ,#' ,#      #,         ##   #,  ,#        
             '#######'   ##     ##  '#######'  #'      '#     #####' # '####'        



                  #######################################################
                  #                        -***-                        #
                  #          Department of theory and spectroscopy      #
                  #    Directorship and core code : Frank Neese         #
                  #        Max Planck Institute fuer Kohlenforschung    #
                  #                Kaiser Wilhelm Platz 1               #
                  #                 D-45470 Muelheim/Ruhr               #
                  #                      Germany                        #
                  #                                                     #
                  #                  All rights reserved                #
                  #                        -***-                        #
                  #######################################################


                         Program Version 5.0.4 -  RELEASE  -


 With contributions from (in alphabetic order):
   Daniel Aravena         : Magnetic Suceptibility
   Michael Atanasov       : Ab Initio Ligand Field Theory (pilot matlab implementation)
   Alexander A. Auer      : GIAO ZORA, VPT2 properties, NMR spectrum
   Ute Becker             : Parallelization
   Giovanni Bistoni       : ED, misc. LED, open-shell LED, HFLD
   Martin Brehm           : Molecular dynamics
   Dmytro Bykov           : SCF Hessian
   Vijay G. Chilkuri      : MRCI spin determinant printing, contributions to CSF-ICE
   Dipayan Datta          : RHF DLPNO-CCSD density
   Achintya Kumar Dutta   : EOM-CC, STEOM-CC
   Dmitry Ganyushin       : Spin-Orbit,Spin-Spin,Magnetic field MRCI
   Miquel Garcia          : C-PCM and meta-GGA Hessian, CC/C-PCM, Gaussian charge scheme
   Yang Guo               : DLPNO-NEVPT2, F12-NEVPT2, CIM, IAO-localization
   Andreas Hansen         : Spin unrestricted coupled pair/coupled cluster methods
   Benjamin Helmich-Paris : MC-RPA, TRAH-SCF, COSX integrals
   Lee Huntington         : MR-EOM, pCC
   Robert Izsak           : Overlap fitted RIJCOSX, COSX-SCS-MP3, EOM
   Marcus Kettner         : VPT2
   Christian Kollmar      : KDIIS, OOCD, Brueckner-CCSD(T), CCSD density, CASPT2, CASPT2-K
   Simone Kossmann        : Meta GGA functionals, TD-DFT gradient, OOMP2, MP2 Hessian
   Martin Krupicka        : Initial AUTO-CI
   Lucas Lang             : DCDCAS
   Marvin Lechner         : AUTO-CI (C++ implementation), FIC-MRCC
   Dagmar Lenk            : GEPOL surface, SMD
   Dimitrios Liakos       : Extrapolation schemes; Compound Job, initial MDCI parallelization
   Dimitrios Manganas     : Further ROCIS development; embedding schemes
   Dimitrios Pantazis     : SARC Basis sets
   Anastasios Papadopoulos: AUTO-CI, single reference methods and gradients
   Taras Petrenko         : DFT Hessian,TD-DFT gradient, ASA, ECA, R-Raman, ABS, FL, XAS/XES, NRVS
   Peter Pinski           : DLPNO-MP2, DLPNO-MP2 Gradient
   Christoph Reimann      : Effective Core Potentials
   Marius Retegan         : Local ZFS, SOC
   Christoph Riplinger    : Optimizer, TS searches, QM/MM, DLPNO-CCSD(T), (RO)-DLPNO pert. Triples
   Tobias Risthaus        : Range-separated hybrids, TD-DFT gradient, RPA, STAB
   Michael Roemelt        : Original ROCIS implementation
   Masaaki Saitow         : Open-shell DLPNO-CCSD energy and density
   Barbara Sandhoefer     : DKH picture change effects
   Avijit Sen             : IP-ROCIS
   Kantharuban Sivalingam : CASSCF convergence, NEVPT2, FIC-MRCI
   Bernardo de Souza      : ESD, SOC TD-DFT
   Georgi Stoychev        : AutoAux, RI-MP2 NMR, DLPNO-MP2 response
   Willem Van den Heuvel  : Paramagnetic NMR
   Boris Wezisla          : Elementary symmetry handling
   Frank Wennmohs         : Technical directorship


 We gratefully acknowledge several colleagues who have allowed us to
 interface, adapt or use parts of their codes:
   Stefan Grimme, W. Hujo, H. Kruse, P. Pracht,  : VdW corrections, initial TS optimization,
                  C. Bannwarth, S. Ehlert          DFT functionals, gCP, sTDA/sTD-DF
   Ed Valeev, F. Pavosevic, A. Kumar             : LibInt (2-el integral package), F12 methods
   Garnet Chan, S. Sharma, J. Yang, R. Olivares  : DMRG
   Ulf Ekstrom                                   : XCFun DFT Library
   Mihaly Kallay                                 : mrcc  (arbitrary order and MRCC methods)
   Jiri Pittner, Ondrej Demel                    : Mk-CCSD
   Frank Weinhold                                : gennbo (NPA and NBO analysis)
   Christopher J. Cramer and Donald G. Truhlar   : smd solvation model
   Lars Goerigk                                  : TD-DFT with DH, B97 family of functionals
   V. Asgeirsson, H. Jonsson                     : NEB implementation
   FAccTs GmbH                                   : IRC, NEB, NEB-TS, DLPNO-Multilevel, CI-OPT
                                                   MM, QMMM, 2- and 3-layer-ONIOM, Crystal-QMMM,
                                                   LR-CPCM, SF, NACMEs, symmetry and pop. for TD-DFT,
                                                   nearIR, NL-DFT gradient (VV10), updates on ESD,
                                                   ML-optimized integration grids
   S Lehtola, MJT Oliveira, MAL Marques          : LibXC Library
   Liviu Ungur et al                             : ANISO software


 Your calculation uses the libint2 library for the computation of 2-el integrals
 For citations please refer to: http://libint.valeyev.net

 Your ORCA version has been built with support for libXC version: 5.1.0
 For citations please refer to: https://tddft.org/programs/libxc/

 This ORCA versions uses:
   CBLAS   interface :  Fast vector & matrix operations
   LAPACKE interface :  Fast linear algebra routines
   SCALAPACK package :  Parallel linear algebra routines
   Shared memory     :  Shared parallel matrices
   BLAS/LAPACK       :  OpenBLAS 0.3.15  USE64BITINT DYNAMIC_ARCH NO_AFFINITY SkylakeX SINGLE_THREADED
        Core in use  :  SkylakeX
   Copyright (c) 2011-2014, The OpenBLAS Project




***************************************
The coordinates will be read from file: /users/fjb15167/WWenergy/structures/Nl.xyz
***************************************


Your calculation utilizes the atom-pairwise dispersion correction
based on tight binding partial charges (D4)
Cite in your paper:
E.Caldeweyher, C.Bannwarth, S.Grimme, J.Chem.Phys., (2017), 147, 034112.
E.Caldeweyher, S.Ehlert, A.Hansen, H.Neugebauer, S.Grimme, J.Chem.Phys., (2018), in progress.
   

================================================================================

----- Orbital basis set information -----
Your calculation utilizes the basis: 6-31G(d)
   H-He, Li-Ne : W. J. Hehre, R. Ditchfield and J.A. Pople, J. Chem. Phys. 56, 2257 (1972).
                 Note: He and Ne are unpublished basis sets taken from the Gaussian program.
                 Note: Li and B from J. D. Dill and J. A. Pople, J. Chem. Phys. 62, 2921 (1975).
   Na - Ar     : M. M. Francl, W. J. Pietro, W. J. Hehre, J. S. Binkley, M. S. Gordon, 
                 D. J. DeFrees and J. A. Pople, J. Chem. Phys. 77, 3654 (1982).
   K - Zn      : V. A. Rassolov, J. A. Pople, M. A. Ratner, and T. L. Windus, J. Chem. Phys. 109, 1223 (1998).

----- AuxJ basis set information -----
Your calculation utilizes the AutoAux generation procedure.
  G. L. Stoychev, A. A. Auer, F. Neese, J. Chem. Theory Comput. 13, 554 (2017)

----- AuxC basis set information -----
Your calculation utilizes the AutoAux generation procedure.
  G. L. Stoychev, A. A. Auer, F. Neese, J. Chem. Theory Comput. 13, 554 (2017)

----- AuxJK basis set information -----
Your calculation utilizes the AutoAux generation procedure.
  G. L. Stoychev, A. A. Auer, F. Neese, J. Chem. Theory Comput. 13, 554 (2017)

================================================================================
                                        WARNINGS
                       Please study these warnings very carefully!
================================================================================


WARNING: Geometry Optimization
  ===> : Switching off AutoStart
         For restart on a previous wavefunction, please use MOREAD

INFO   : the flag for use of the SHARK integral package has been found!

================================================================================
                                       INPUT FILE
================================================================================
NAME = Nl_octanol.inp
|  1> ! OPT FREQ B3LYP 6-31G(d) D4 AUTOAUX
|  2> ! CPCM
|  3> 
|  4> %cpcm
|  5> epsilon 9.8629 
|  6> refrac  1.4295 
|  7> end
|  8> 
|  9> %PAL NPROCS 4 END
| 10> 
| 11> %maxcore 3375
| 12> 
| 13> *xyzfile 0 1 /users/fjb15167/WWenergy/structures/Nl.xyz
| 14> 
| 15>                          ****END OF INPUT****
================================================================================

                       *****************************
                       * Geometry Optimization Run *
                       *****************************

Geometry optimization settings:
Update method            Update   .... BFGS
Choice of coordinates    CoordSys .... Z-matrix Internals
Initial Hessian          InHess   .... Almoef's Model

Convergence Tolerances:
Energy Change            TolE     ....  5.0000e-06 Eh
Max. Gradient            TolMAXG  ....  3.0000e-04 Eh/bohr
RMS Gradient             TolRMSG  ....  1.0000e-04 Eh/bohr
Max. Displacement        TolMAXD  ....  4.0000e-03 bohr
RMS Displacement         TolRMSD  ....  2.0000e-03 bohr
Strict Convergence                ....  False
------------------------------------------------------------------------------
                        ORCA OPTIMIZATION COORDINATE SETUP
------------------------------------------------------------------------------

The optimization will be done in new redundant internal coordinates
Making redundant internal coordinates   ...  (new redundants) done
Evaluating the initial hessian          ...  (Almloef) done
Evaluating the coordinates              ...  done
Calculating the B-matrix                .... done
Calculating the G-matrix                .... done
Diagonalizing the G-matrix              .... done
Small eigenvalue found = 5.210e-03
Small eigenvalue found = 6.631e-03
Small eigenvalue found = 1.117e-02
Small eigenvalue found = 1.595e-02
Small eigenvalue found = 2.574e-02
The first mode is                       ....   68
The number of degrees of freedom        ....   96

    -----------------------------------------------------------------
                    Redundant Internal Coordinates


    -----------------------------------------------------------------
         Definition                    Initial Value    Approx d2E/dq
    -----------------------------------------------------------------
      1. B(H   1,C   0)                  1.0937         0.355292   
      2. B(H   2,C   0)                  1.0891         0.361229   
      3. B(H   3,C   0)                  1.0940         0.354782   
      4. B(C   4,C   0)                  1.5188         0.389206   
      5. B(O   5,C   4)                  1.2353         0.987841   
      6. B(N   6,C   4)                  1.3833         0.573461   
      7. B(C   7,N   6)                  1.4637         0.426884   
      8. B(H   8,C   7)                  1.0974         0.350482   
      9. B(H   9,C   7)                  1.0903         0.359761   
     10. B(C  10,C   7)                  1.5293         0.374506   
     11. B(N  11,C  10)                  1.3637         0.616384   
     12. B(O  12,C  10)                  1.2390         0.974345   
     13. B(C  13,N  11)                  1.4535         0.443228   
     14. B(H  14,C  13)                  1.0943         0.354420   
     15. B(H  15,C  13)                  1.0975         0.350336   
     16. B(H  16,C  13)                  1.0871         0.363913   
     17. B(C  17,N  11)                  1.4547         0.441295   
     18. B(H  18,C  17)                  1.0952         0.353237   
     19. B(H  19,C  17)                  1.0887         0.361890   
     20. B(H  20,C  17)                  1.0945         0.354191   
     21. B(C  21,N   6)                  1.4746         0.410098   
     22. B(H  22,C  21)                  1.0942         0.354624   
     23. B(C  23,C  21)                  1.5278         0.376667   
     24. B(H  24,C  23)                  1.0944         0.354384   
     25. B(C  25,C  23)                  1.5288         0.375193   
     26. B(H  26,C  25)                  1.0947         0.353907   
     27. B(H  27,C  25)                  1.0947         0.353906   
     28. B(H  28,C  25)                  1.0960         0.352215   
     29. B(H  29,C  21)                  1.0978         0.349967   
     30. B(C  30,C  23)                  1.5253         0.380032   
     31. B(H  31,C  30)                  1.0968         0.351273   
     32. B(H  32,C  30)                  1.0923         0.357121   
     33. B(H  33,C  30)                  1.0950         0.353527   
     34. A(H   3,C   0,C   4)          111.3144         0.325714   
     35. A(H   1,C   0,H   3)          108.0691         0.289550   
     36. A(H   2,C   0,C   4)          106.6595         0.326681   
     37. A(H   1,C   0,C   4)          112.9048         0.325791   
     38. A(H   2,C   0,H   3)          108.8104         0.290303   
     39. A(H   1,C   0,H   2)          108.9957         0.290369   
     40. A(C   0,C   4,N   6)          118.5689         0.391605   
     41. A(O   5,C   4,N   6)          120.8186         0.459546   
     42. A(C   0,C   4,O   5)          120.6118         0.431241   
     43. A(C   4,N   6,C   7)          121.9021         0.395457   
     44. A(C   7,N   6,C  21)          115.8634         0.373061   
     45. A(C   4,N   6,C  21)          115.4916         0.392688   
     46. A(N   6,C   7,C  10)          111.7949         0.369592   
     47. A(H   8,C   7,H   9)          108.1888         0.289564   
     48. A(N   6,C   7,H   8)          110.8970         0.328067   
     49. A(N   6,C   7,H   9)          109.9058         0.329485   
     50. A(H   9,C   7,C  10)          110.6857         0.324401   
     51. A(H   8,C   7,C  10)          105.2282         0.323013   
     52. A(N  11,C  10,O  12)          122.9617         0.464479   
     53. A(C   7,C  10,O  12)          119.4740         0.427217   
     54. A(C   7,C  10,N  11)          117.5642         0.393920   
     55. A(C  13,N  11,C  17)          116.3391         0.380281   
     56. A(C  10,N  11,C  13)          124.5674         0.403165   
     57. A(C  10,N  11,C  17)          119.0927         0.402855   
     58. A(H  14,C  13,H  16)          107.5614         0.290594   
     59. A(H  15,C  13,H  16)          110.1116         0.290066   
     60. A(N  11,C  13,H  16)          110.3135         0.332170   
     61. A(H  14,C  13,H  15)          108.3389         0.288867   
     62. A(N  11,C  13,H  15)          111.8617         0.330086   
     63. A(N  11,C  13,H  14)          108.5223         0.330719   
     64. A(H  18,C  17,H  19)          109.5650         0.290188   
     65. A(N  11,C  17,H  19)          108.1710         0.331623   
     66. A(N  11,C  17,H  18)          110.2726         0.330297   
     67. A(H  19,C  17,H  20)          109.9349         0.290311   
     68. A(H  18,C  17,H  20)          108.9812         0.289211   
     69. A(N  11,C  17,H  20)          109.9063         0.330445   
     70. A(H  22,C  21,H  29)          108.4488         0.288845   
     71. A(N   6,C  21,H  29)          108.0019         0.325827   
     72. A(C  23,C  21,H  29)          109.0543         0.323240   
     73. A(H  22,C  21,C  23)          109.5635         0.323942   
     74. A(N   6,C  21,C  23)          114.4699         0.367419   
     75. A(N   6,C  21,H  22)          107.1361         0.326537   
     76. A(C  25,C  23,C  30)          110.7893         0.364687   
     77. A(H  24,C  23,C  30)          109.2415         0.324379   
     78. A(C  21,C  23,C  30)          112.0754         0.364932   
     79. A(H  24,C  23,C  25)          108.6053         0.323698   
     80. A(C  21,C  23,C  25)          108.6716         0.364133   
     81. A(C  21,C  23,H  24)          107.3407         0.323906   
     82. A(H  27,C  25,H  28)          108.2162         0.289043   
     83. A(H  26,C  25,H  28)          107.8208         0.289043   
     84. A(C  23,C  25,H  28)          110.6487         0.323372   
     85. A(H  26,C  25,H  27)          107.9518         0.289260   
     86. A(C  23,C  25,H  27)          111.2864         0.323626   
     87. A(C  23,C  25,H  26)          110.7890         0.323626   
     88. A(H  32,C  30,H  33)          108.0971         0.289622   
     89. A(H  31,C  30,H  33)          108.1376         0.288874   
     90. A(C  23,C  30,H  33)          110.5043         0.324250   
     91. A(H  31,C  30,H  32)          108.1896         0.289332   
     92. A(C  23,C  30,H  32)          111.2285         0.324790   
     93. A(C  23,C  30,H  31)          110.5771         0.323910   
     94. D(O   5,C   4,C   0,H   1)    125.6184         0.011272   
     95. D(O   5,C   4,C   0,H   3)   -112.6265         0.011272   
     96. D(O   5,C   4,C   0,H   2)      5.9305         0.011272   
     97. D(N   6,C   4,C   0,H   1)    -54.0814         0.011272   
     98. D(N   6,C   4,C   0,H   2)   -173.7693         0.011272   
     99. D(N   6,C   4,C   0,H   3)     67.6737         0.011272   
    100. D(C   7,N   6,C   4,O   5)    162.6425         0.026338   
    101. D(C  21,N   6,C   4,C   0)   -167.6627         0.026338   
    102. D(C  21,N   6,C   4,O   5)     12.6382         0.026338   
    103. D(C   7,N   6,C   4,C   0)    -17.6583         0.026338   
    104. D(C  10,C   7,N   6,C   4)    150.3380         0.015537   
    105. D(H   8,C   7,N   6,C  21)     57.3344         0.015537   
    106. D(H   9,C   7,N   6,C   4)     27.0118         0.015537   
    107. D(H   9,C   7,N   6,C  21)    176.9127         0.015537   
    108. D(H   8,C   7,N   6,C   4)    -92.5665         0.015537   
    109. D(C  10,C   7,N   6,C  21)    -59.7610         0.015537   
    110. D(O  12,C  10,C   7,H   9)   -136.8089         0.010485   
    111. D(O  12,C  10,C   7,H   8)    -20.1558         0.010485   
    112. D(O  12,C  10,C   7,N   6)    100.3072         0.010485   
    113. D(N  11,C  10,C   7,H   8)    159.7251         0.010485   
    114. D(N  11,C  10,C   7,N   6)    -79.8119         0.010485   
    115. D(N  11,C  10,C   7,H   9)     43.0720         0.010485   
    116. D(C  17,N  11,C  10,C   7)   -177.7679         0.030737   
    117. D(C  13,N  11,C  10,O  12)   -177.5548         0.030737   
    118. D(C  13,N  11,C  10,C   7)      2.5688         0.030737   
    119. D(C  17,N  11,C  10,O  12)      2.1085         0.030737   
    120. D(H  15,C  13,N  11,C  10)    -97.6265         0.016753   
    121. D(H  14,C  13,N  11,C  17)    -36.7676         0.016753   
    122. D(H  15,C  13,N  11,C  17)     82.7018         0.016753   
    123. D(H  14,C  13,N  11,C  10)    142.9041         0.016753   
    124. D(H  16,C  13,N  11,C  10)     25.3016         0.016753   
    125. D(H  16,C  13,N  11,C  17)   -154.3701         0.016753   
    126. D(H  20,C  17,N  11,C  13)    -54.9653         0.016606   
    127. D(H  20,C  17,N  11,C  10)    125.3441         0.016606   
    128. D(H  19,C  17,N  11,C  13)   -174.9989         0.016606   
    129. D(H  19,C  17,N  11,C  10)      5.3105         0.016606   
    130. D(H  18,C  17,N  11,C  13)     65.2019         0.016606   
    131. D(H  18,C  17,N  11,C  10)   -114.4888         0.016606   
    132. D(H  29,C  21,N   6,C   7)   -111.1978         0.014347   
    133. D(H  29,C  21,N   6,C   4)     40.6598         0.014347   
    134. D(C  23,C  21,N   6,C   7)    127.1320         0.014347   
    135. D(C  23,C  21,N   6,C   4)    -81.0104         0.014347   
    136. D(H  22,C  21,N   6,C   7)      5.4432         0.014347   
    137. D(H  22,C  21,N   6,C   4)    157.3008         0.014347   
    138. D(C  30,C  23,C  21,H  29)    177.1347         0.011318   
    139. D(C  30,C  23,C  21,H  22)     58.5765         0.011318   
    140. D(C  30,C  23,C  21,N   6)    -61.7733         0.011318   
    141. D(C  25,C  23,C  21,H  29)     54.3599         0.011318   
    142. D(C  25,C  23,C  21,H  22)    -64.1984         0.011318   
    143. D(C  25,C  23,C  21,N   6)    175.4519         0.011318   
    144. D(H  24,C  23,C  21,H  29)    -62.9191         0.011318   
    145. D(H  24,C  23,C  21,H  22)    178.5226         0.011318   
    146. D(H  24,C  23,C  21,N   6)     58.1729         0.011318   
    147. D(H  28,C  25,C  23,C  30)    -61.4319         0.011235   
    148. D(H  28,C  25,C  23,H  24)    178.5850         0.011235   
    149. D(H  28,C  25,C  23,C  21)     62.1155         0.011235   
    150. D(H  27,C  25,C  23,C  30)    178.2137         0.011235   
    151. D(H  27,C  25,C  23,H  24)     58.2307         0.011235   
    152. D(H  27,C  25,C  23,C  21)    -58.2388         0.011235   
    153. D(H  26,C  25,C  23,C  30)     58.0990         0.011235   
    154. D(H  26,C  25,C  23,H  24)    -61.8841         0.011235   
    155. D(H  26,C  25,C  23,C  21)   -178.3535         0.011235   
    156. D(H  31,C  30,C  23,C  21)    -59.0120         0.011511   
    157. D(H  33,C  30,C  23,H  24)     62.4613         0.011511   
    158. D(H  33,C  30,C  23,C  21)   -178.7082         0.011511   
    159. D(H  32,C  30,C  23,C  25)   -177.2102         0.011511   
    160. D(H  32,C  30,C  23,H  24)    -57.6081         0.011511   
    161. D(H  32,C  30,C  23,C  21)     61.2225         0.011511   
    162. D(H  31,C  30,C  23,C  25)     62.5553         0.011511   
    163. D(H  33,C  30,C  23,C  25)    -57.1408         0.011511   
    164. D(H  31,C  30,C  23,H  24)   -177.8425         0.011511   
    -----------------------------------------------------------------

Number of atoms                         .... 34
Number of degrees of freedom            .... 164

         *************************************************************
         *                GEOMETRY OPTIMIZATION CYCLE   1            *
         *************************************************************
---------------------------------
CARTESIAN COORDINATES (ANGSTROEM)
---------------------------------
  C     -1.276000   -3.022000   -0.195000
  H     -0.369000   -3.157000   -0.791000
  H     -2.099000   -3.547000   -0.678000
  H     -1.104000   -3.466000    0.790000
  C     -1.696000   -1.567000   -0.079000
  O     -2.836000   -1.214000   -0.398000
  N     -0.773000   -0.647000    0.385000
  C      0.430000   -1.057000    1.111000
  H      0.253000   -1.056000    2.194000
  H      0.717000   -2.066000    0.814000
  C      1.586000   -0.080000    0.892000
  N      2.293000   -0.189000   -0.269000
  O      1.843000    0.765000    1.761000
  C      1.991000   -1.132000   -1.333000
  H      2.183000   -0.645000   -2.294000
  H      2.616000   -2.032000   -1.271000
  H      0.939000   -1.405000   -1.308000
  C      3.430000    0.691000   -0.490000
  H      3.230000    1.366000   -1.329000
  H      3.590000    1.273000    0.416000
  H      4.322000    0.098000   -0.715000
  C     -1.319000    0.676000    0.740000
  H     -0.618000    1.136000    1.443000
  C     -1.538000    1.610000   -0.449000
  H     -2.221000    1.105000   -1.139000
  C     -2.208000    2.890000    0.051000
  H     -2.408000    3.574000   -0.780000
  H     -3.160000    2.673000    0.546000
  H     -1.561000    3.411000    0.766000
  H     -2.276000    0.521000    1.255000
  C     -0.235000    1.929000   -1.175000
  H      0.481000    2.402000   -0.492000
  H      0.225000    1.024000   -1.578000
  H     -0.418000    2.617000   -2.007000

----------------------------
CARTESIAN COORDINATES (A.U.)
----------------------------
  NO LB      ZA    FRAG     MASS         X           Y           Z
   0 C     6.0000    0    12.011   -2.411291   -5.710752   -0.368497
   1 H     1.0000    0     1.008   -0.697309   -5.965865   -1.494773
   2 H     1.0000    0     1.008   -3.966535   -6.702859   -1.281234
   3 H     1.0000    0     1.008   -2.086258   -6.549791    1.492884
   4 C     6.0000    0    12.011   -3.204976   -2.961201   -0.149288
   5 O     8.0000    0    15.999   -5.359263   -2.294128   -0.752111
   6 N     7.0000    0    14.007   -1.460758   -1.222653    0.727545
   7 C     6.0000    0    12.011    0.812582   -1.997441    2.099486
   8 H     1.0000    0     1.008    0.478101   -1.995551    4.146059
   9 H     1.0000    0     1.008    1.354934   -3.904174    1.538237
  10 C     6.0000    0    12.011    2.997106   -0.151178    1.685636
  11 N     7.0000    0    14.007    4.333142   -0.357158   -0.508336
  12 O     8.0000    0    15.999    3.482765    1.445640    3.327808
  13 C     6.0000    0    12.011    3.762445   -2.139170   -2.519005
  14 H     1.0000    0     1.008    4.125272   -1.218873   -4.335032
  15 H     1.0000    0     1.008    4.943524   -3.839924   -2.401842
  16 H     1.0000    0     1.008    1.774453   -2.655065   -2.471762
  17 C     6.0000    0    12.011    6.481761    1.305801   -0.925966
  18 H     1.0000    0     1.008    6.103815    2.581366   -2.511446
  19 H     1.0000    0     1.008    6.784117    2.405621    0.786126
  20 H     1.0000    0     1.008    8.167396    0.185193   -1.351154
  21 C     6.0000    0    12.011   -2.492549    1.277455    1.398397
  22 H     1.0000    0     1.008   -1.167851    2.146729    2.726875
  23 C     6.0000    0    12.011   -2.906399    3.042459   -0.848487
  24 H     1.0000    0     1.008   -4.197082    2.088147   -2.152398
  25 C     6.0000    0    12.011   -4.172515    5.461309    0.096376
  26 H     1.0000    0     1.008   -4.550461    6.753881   -1.473986
  27 H     1.0000    0     1.008   -5.971535    5.051238    1.031790
  28 H     1.0000    0     1.008   -2.949862    6.445856    1.447530
  29 H     1.0000    0     1.008   -4.301017    0.984547    2.371606
  30 C     6.0000    0    12.011   -0.444086    3.645282   -2.220428
  31 H     1.0000    0     1.008    0.908958    4.539122   -0.929745
  32 H     1.0000    0     1.008    0.425188    1.935080   -2.981988
  33 H     1.0000    0     1.008   -0.789906    4.945413   -3.792680

--------------------------------
INTERNAL COORDINATES (ANGSTROEM)
--------------------------------
 C      0   0   0     0.000000000000     0.00000000     0.00000000
 H      1   0   0     1.093658996214     0.00000000     0.00000000
 H      1   2   0     1.089147832023   108.99569795     0.00000000
 H      1   2   3     1.094049816050   108.06908242   118.09977478
 C      1   2   3     1.518841993099   112.90483299   241.66705109
 O      5   1   2     1.235301582610   120.61182512   125.61841934
 N      5   1   2     1.383338353405   118.56887539   305.91863281
 C      7   5   1     1.463688833052   121.90210878   342.34167547
 H      8   7   5     1.097369126593   110.89701982   267.43349000
 H      8   7   5     1.090256391864   109.90582852    27.01180350
 C      8   7   5     1.529322072031   111.79490173   150.33804252
 N     11   8   7     1.363690214088   117.56417307   280.18808443
 O     11   8   7     1.239046003989   119.47403106   100.30716238
 C     12  11   8     1.453461041790   124.56736787     2.56878445
 H     14  12  11     1.094328104364   108.52225584   142.90407215
 H     14  12  11     1.097483029482   111.86171765   262.37347465
 H     14  12  11     1.087132926555   110.31345958    25.30161201
 C     12  11   8     1.454651160932   119.09271609   182.23206853
 H     18  12  11     1.095237873706   110.27258302   245.51124950
 H     18  12  11     1.088650540807   108.17099266     5.31050719
 H     18  12  11     1.094503540424   109.90626235   125.34406908
 C      7   5   1     1.474608422599   115.49159797   192.33734168
 H     22   7   5     1.094170919007   107.13614183   157.30080434
 C     22   7   5     1.527755870550   114.46989621   278.98960913
 H     24  22   7     1.094355518102   107.34069153    58.17288637
 C     24  22   7     1.528823076749   108.67162756   175.45187779
 H     26  24  22     1.094722339226   110.78901147   181.64647660
 H     26  24  22     1.094722795963   111.28637324   301.76122678
 H     26  24  22     1.096026915728   110.64870646    62.11554109
 H     22   7   5     1.097770012343   108.00190508    40.65984203
 C     24  22   7     1.525334717365   112.07540012   298.22669577
 H     31  24  22     1.096756126037   110.57709738   300.98801042
 H     31  24  22     1.092260957830   111.22853358    61.22248588
 H     31  24  22     1.095014611775   110.50425881   181.29184514

---------------------------
INTERNAL COORDINATES (A.U.)
---------------------------
 C      0   0   0     0.000000000000     0.00000000     0.00000000
 H      1   0   0     2.066715986744     0.00000000     0.00000000
 H      1   2   0     2.058191121877   108.99569795     0.00000000
 H      1   2   3     2.067454529202   108.06908242   118.09977478
 C      1   2   3     2.870195407656   112.90483299   241.66705109
 O      5   1   2     2.334381683933   120.61182512   125.61841934
 N      5   1   2     2.614130638484   118.56887539   305.91863281
 C      7   5   1     2.765971039746   121.90210878   342.34167547
 H      8   7   5     2.073727117082   110.89701982   267.43349000
 H      8   7   5     2.060285996380   109.90582852    27.01180350
 C      8   7   5     2.889999886699   111.79490173   150.33804252
 N     11   8   7     2.577001036135   117.56417307   280.18808443
 O     11   8   7     2.341457614868   119.47403106   100.30716238
 C     12  11   8     2.746643315306   124.56736787     2.56878445
 H     14  12  11     2.067980417900   108.52225584   142.90407215
 H     14  12  11     2.073942362346   111.86171765   262.37347465
 H     14  12  11     2.054383502357   110.31345958    25.30161201
 C     12  11   8     2.748892314552   119.09271609   182.23206853
 H     18  12  11     2.069699632803   110.27258302   245.51124950
 H     18  12  11     2.057251377671   108.17099266     5.31050719
 H     18  12  11     2.068311944008   109.90626235   125.34406908
 C      7   5   1     2.786606073486   115.49159797   192.33734168
 H     22   7   5     2.067683380624   107.13614183   157.30080434
 C     22   7   5     2.887040194830   114.46989621   278.98960913
 H     24  22   7     2.068032222358   107.34069153    58.17288637
 C     24  22   7     2.889056922274   108.67162756   175.45187779
 H     26  24  22     2.068725413822   110.78901147   181.64647660
 H     26  24  22     2.068726276930   111.28637324   301.76122678
 H     26  24  22     2.071190706132   110.64870646    62.11554109
 H     22   7   5     2.074484681360   108.00190508    40.65984203
 C     24  22   7     2.882464878383   112.07540012   298.22669577
 H     31  24  22     2.072568713911   110.57709738   300.98801042
 H     31  24  22     2.064074077073   111.22853358    61.22248588
 H     31  24  22     2.069277728896   110.50425881   181.29184514

---------------------
BASIS SET INFORMATION
---------------------
There are 4 groups of distinct atoms

 Group   1 Type C   : 10s4p1d contracted to 3s2p1d pattern {631/31/1}
 Group   2 Type H   : 4s contracted to 2s pattern {31}
 Group   3 Type O   : 10s4p1d contracted to 3s2p1d pattern {631/31/1}
 Group   4 Type N   : 10s4p1d contracted to 3s2p1d pattern {631/31/1}

Atom   0C    basis set group =>   1
Atom   1H    basis set group =>   2
Atom   2H    basis set group =>   2
Atom   3H    basis set group =>   2
Atom   4C    basis set group =>   1
Atom   5O    basis set group =>   3
Atom   6N    basis set group =>   4
Atom   7C    basis set group =>   1
Atom   8H    basis set group =>   2
Atom   9H    basis set group =>   2
Atom  10C    basis set group =>   1
Atom  11N    basis set group =>   4
Atom  12O    basis set group =>   3
Atom  13C    basis set group =>   1
Atom  14H    basis set group =>   2
Atom  15H    basis set group =>   2
Atom  16H    basis set group =>   2
Atom  17C    basis set group =>   1
Atom  18H    basis set group =>   2
Atom  19H    basis set group =>   2
Atom  20H    basis set group =>   2
Atom  21C    basis set group =>   1
Atom  22H    basis set group =>   2
Atom  23C    basis set group =>   1
Atom  24H    basis set group =>   2
Atom  25C    basis set group =>   1
Atom  26H    basis set group =>   2
Atom  27H    basis set group =>   2
Atom  28H    basis set group =>   2
Atom  29H    basis set group =>   2
Atom  30C    basis set group =>   1
Atom  31H    basis set group =>   2
Atom  32H    basis set group =>   2
Atom  33H    basis set group =>   2
---------------------------------
AUXILIARY/J BASIS SET INFORMATION
---------------------------------
There are 4 groups of distinct atoms

 Group   1 Type C   : 13s11p10d2f contracted to 13s11p10d2f pattern {1111111111111/11111111111/1111111111/11}
 Group   2 Type H   : 9s2p contracted to 9s2p pattern {111111111/11}
 Group   3 Type O   : 14s11p10d2f contracted to 14s11p10d2f pattern {11111111111111/11111111111/1111111111/11}
 Group   4 Type N   : 14s11p10d2f contracted to 14s11p10d2f pattern {11111111111111/11111111111/1111111111/11}

Atom   0C    basis set group =>   1
Atom   1H    basis set group =>   2
Atom   2H    basis set group =>   2
Atom   3H    basis set group =>   2
Atom   4C    basis set group =>   1
Atom   5O    basis set group =>   3
Atom   6N    basis set group =>   4
Atom   7C    basis set group =>   1
Atom   8H    basis set group =>   2
Atom   9H    basis set group =>   2
Atom  10C    basis set group =>   1
Atom  11N    basis set group =>   4
Atom  12O    basis set group =>   3
Atom  13C    basis set group =>   1
Atom  14H    basis set group =>   2
Atom  15H    basis set group =>   2
Atom  16H    basis set group =>   2
Atom  17C    basis set group =>   1
Atom  18H    basis set group =>   2
Atom  19H    basis set group =>   2
Atom  20H    basis set group =>   2
Atom  21C    basis set group =>   1
Atom  22H    basis set group =>   2
Atom  23C    basis set group =>   1
Atom  24H    basis set group =>   2
Atom  25C    basis set group =>   1
Atom  26H    basis set group =>   2
Atom  27H    basis set group =>   2
Atom  28H    basis set group =>   2
Atom  29H    basis set group =>   2
Atom  30C    basis set group =>   1
Atom  31H    basis set group =>   2
Atom  32H    basis set group =>   2
Atom  33H    basis set group =>   2
---------------------------------
AUXILIARY/C BASIS SET INFORMATION
---------------------------------
There are 4 groups of distinct atoms

 Group   1 Type C   : 13s11p10d2f contracted to 13s11p10d2f pattern {1111111111111/11111111111/1111111111/11}
 Group   2 Type H   : 9s2p contracted to 9s2p pattern {111111111/11}
 Group   3 Type O   : 14s11p10d2f contracted to 14s11p10d2f pattern {11111111111111/11111111111/1111111111/11}
 Group   4 Type N   : 14s11p10d2f contracted to 14s11p10d2f pattern {11111111111111/11111111111/1111111111/11}

Atom   0C    basis set group =>   1
Atom   1H    basis set group =>   2
Atom   2H    basis set group =>   2
Atom   3H    basis set group =>   2
Atom   4C    basis set group =>   1
Atom   5O    basis set group =>   3
Atom   6N    basis set group =>   4
Atom   7C    basis set group =>   1
Atom   8H    basis set group =>   2
Atom   9H    basis set group =>   2
Atom  10C    basis set group =>   1
Atom  11N    basis set group =>   4
Atom  12O    basis set group =>   3
Atom  13C    basis set group =>   1
Atom  14H    basis set group =>   2
Atom  15H    basis set group =>   2
Atom  16H    basis set group =>   2
Atom  17C    basis set group =>   1
Atom  18H    basis set group =>   2
Atom  19H    basis set group =>   2
Atom  20H    basis set group =>   2
Atom  21C    basis set group =>   1
Atom  22H    basis set group =>   2
Atom  23C    basis set group =>   1
Atom  24H    basis set group =>   2
Atom  25C    basis set group =>   1
Atom  26H    basis set group =>   2
Atom  27H    basis set group =>   2
Atom  28H    basis set group =>   2
Atom  29H    basis set group =>   2
Atom  30C    basis set group =>   1
Atom  31H    basis set group =>   2
Atom  32H    basis set group =>   2
Atom  33H    basis set group =>   2
----------------------------------
AUXILIARY/JK BASIS SET INFORMATION
----------------------------------
There are 4 groups of distinct atoms

 Group   1 Type C   : 13s11p10d2f contracted to 13s11p10d2f pattern {1111111111111/11111111111/1111111111/11}
 Group   2 Type H   : 9s2p contracted to 9s2p pattern {111111111/11}
 Group   3 Type O   : 14s11p10d2f contracted to 14s11p10d2f pattern {11111111111111/11111111111/1111111111/11}
 Group   4 Type N   : 14s11p10d2f contracted to 14s11p10d2f pattern {11111111111111/11111111111/1111111111/11}

Atom   0C    basis set group =>   1
Atom   1H    basis set group =>   2
Atom   2H    basis set group =>   2
Atom   3H    basis set group =>   2
Atom   4C    basis set group =>   1
Atom   5O    basis set group =>   3
Atom   6N    basis set group =>   4
Atom   7C    basis set group =>   1
Atom   8H    basis set group =>   2
Atom   9H    basis set group =>   2
Atom  10C    basis set group =>   1
Atom  11N    basis set group =>   4
Atom  12O    basis set group =>   3
Atom  13C    basis set group =>   1
Atom  14H    basis set group =>   2
Atom  15H    basis set group =>   2
Atom  16H    basis set group =>   2
Atom  17C    basis set group =>   1
Atom  18H    basis set group =>   2
Atom  19H    basis set group =>   2
Atom  20H    basis set group =>   2
Atom  21C    basis set group =>   1
Atom  22H    basis set group =>   2
Atom  23C    basis set group =>   1
Atom  24H    basis set group =>   2
Atom  25C    basis set group =>   1
Atom  26H    basis set group =>   2
Atom  27H    basis set group =>   2
Atom  28H    basis set group =>   2
Atom  29H    basis set group =>   2
Atom  30C    basis set group =>   1
Atom  31H    basis set group =>   2
Atom  32H    basis set group =>   2
Atom  33H    basis set group =>   2


           ************************************************************
           *        Program running with 4 parallel MPI-processes     *
           *              working on a common directory               *
           ************************************************************
------------------------------------------------------------------------------
                           ORCA GTO INTEGRAL CALCULATION
                           -- RI-GTO INTEGRALS CHOSEN --
------------------------------------------------------------------------------
------------------------------------------------------------------------------
                   ___                                                        
                  /   \      - P O W E R E D   B Y -                         
                 /     \                                                     
                 |  |  |   _    _      __       _____    __    __             
                 |  |  |  | |  | |    /  \     |  _  \  |  |  /  |          
                  \  \/   | |  | |   /    \    | | | |  |  | /  /          
                 / \  \   | |__| |  /  /\  \   | |_| |  |  |/  /          
                |  |  |   |  __  | /  /__\  \  |    /   |      \           
                |  |  |   | |  | | |   __   |  |    \   |  |\   \          
                \     /   | |  | | |  |  |  |  | |\  \  |  | \   \       
                 \___/    |_|  |_| |__|  |__|  |_| \__\ |__|  \__/        
                                                                              
                      - O R C A' S   B I G   F R I E N D -                    
                                      &                                       
                       - I N T E G R A L  F E E D E R -                       
                                                                              
 v1 FN, 2020, v2 2021                                                         
------------------------------------------------------------------------------


Reading SHARK input file Nl_octanol.SHARKINP.tmp ... ok
----------------------
SHARK INTEGRAL PACKAGE
----------------------

Number of atoms                             ...     34
Number of basis functions                   ...    236
Number of shells                            ...    124
Maximum angular momentum                    ...      2
Integral batch strategy                     ... SHARK/LIBINT Hybrid
RI-J (if used) integral strategy            ... SPLIT-RIJ (Revised 2003 algorithm where possible)
Printlevel                                  ...      1
Contraction scheme used                     ... SEGMENTED contraction
Coulomb Range Separation                    ... NOT USED
Exchange Range Separation                   ... NOT USED
Finite Nucleus Model                        ... NOT USED
Auxiliary Coulomb fitting basis             ... AVAILABLE
   # of basis functions in Aux-J            ...   1844
   # of shells in Aux-J                     ...    728
   Maximum angular momentum in Aux-J        ...      3
Auxiliary J/K fitting basis                 ... AVAILABLE
   # of basis functions in Aux-JK           ...   1844
   # of shells in Aux-JK                    ...    728
   Maximum angular momentum in Aux-JK       ...      3
Auxiliary Correlation fitting basis         ... AVAILABLE
   # of basis functions in Aux-C            ...   1844
   # of shells in Aux-C                     ...    728
   Maximum angular momentum in Aux-C        ...      3
Auxiliary 'external' fitting basis          ... NOT available
Integral threshold                          ...     2.500000e-11
Primitive cut-off                           ...     2.500000e-12
Primitive pair pre-selection threshold      ...     2.500000e-12

Calculating pre-screening integrals         ... done (  0.0 sec) Dimension = 124
Organizing shell pair data                  ... done (  3.5 sec)
Shell pair information
Total number of shell pairs                 ...      7750
Shell pairs after pre-screening             ...      6812
Total number of primitive shell pairs       ...     42549
Primitive shell pairs kept                  ...     22118
          la=0 lb=0:   2892 shell pairs
          la=1 lb=0:   2122 shell pairs
          la=1 lb=1:    394 shell pairs
          la=2 lb=0:    948 shell pairs
          la=2 lb=1:    368 shell pairs
          la=2 lb=2:     88 shell pairs

Calculating one electron integrals          ... done (  0.0 sec)
Calculating RI/J V-Matrix + Cholesky decomp.... done (  0.2 sec)
Calculating RI/JK V-Matrix + Cholesky decomp... done (  0.2 sec)
Calculating RI/C V-Matrix + Cholesky decomp.... done (  0.2 sec)
Calculating Nuclear repulsion               ... done (  0.0 sec) ENN=   1007.611292957794 Eh

SHARK setup successfully completed in   4.7 seconds

Maximum memory used throughout the entire GTOINT-calculation: 31.1 MB


           ************************************************************
           *        Program running with 4 parallel MPI-processes     *
           *              working on a common directory               *
           ************************************************************
-------------------------------------------------------------------------------
                                 ORCA SCF
-------------------------------------------------------------------------------

------------
SCF SETTINGS
------------
Hamiltonian:
 Density Functional     Method          .... DFT(GTOs)
 Exchange Functional    Exchange        .... B88
   X-Alpha parameter    XAlpha          ....  0.666667
   Becke's b parameter  XBeta           ....  0.004200
 Correlation Functional Correlation     .... LYP
 LDA part of GGA corr.  LDAOpt          .... VWN-5
 Gradients option       PostSCFGGA      .... off
 Hybrid DFT is turned on
   Fraction HF Exchange ScalHFX         ....  0.200000
   Scaling of DF-GGA-X  ScalDFX         ....  0.720000
   Scaling of DF-GGA-C  ScalDFC         ....  0.810000
   Scaling of DF-LDA-C  ScalLDAC        ....  1.000000
   Perturbative correction              ....  0.000000
   Density functional embedding theory  .... OFF
   NL short-range parameter             ....  4.800000
 RI-approximation to the Coulomb term is turned on
   Number of AuxJ basis functions       .... 1844
   RIJ-COSX (HFX calculated with COS-X)).... on


General Settings:
 Integral files         IntName         .... Nl_octanol
 Hartree-Fock type      HFTyp           .... RHF
 Total Charge           Charge          ....    0
 Multiplicity           Mult            ....    1
 Number of Electrons    NEL             ....  110
 Basis Dimension        Dim             ....  236
 Nuclear Repulsion      ENuc            ....   1007.6112929578 Eh

Convergence Acceleration:
 DIIS                   CNVDIIS         .... on
   Start iteration      DIISMaxIt       ....    12
   Startup error        DIISStart       ....  0.200000
   # of expansion vecs  DIISMaxEq       ....     5
   Bias factor          DIISBfac        ....   1.050
   Max. coefficient     DIISMaxC        ....  10.000
 Trust-Rad. Augm. Hess. CNVTRAH         .... auto
   Auto Start mean grad. ratio tolernc. ....  1.125000
   Auto Start start iteration           ....    20
   Auto Start num. interpolation iter.  ....    10
   Max. Number of Micro iterations      ....    16
   Max. Number of Macro iterations      .... Maxiter - #DIIS iter
   Number of Davidson start vectors     ....     2
   Converg. threshold I  (grad. norm)   ....   1.000e-05
   Converg. threshold II (energy diff.) ....   1.000e-08
   Grad. Scal. Fac. for Micro threshold ....   0.100
   Minimum threshold for Micro iter.    ....   0.010
   NR start threshold (gradient norm)   ....   0.001
   Initial trust radius                 ....   0.400
   Minimum AH scaling param. (alpha)    ....   1.000
   Maximum AH scaling param. (alpha)    .... 1000.000
   Orbital update algorithm             .... Taylor
   White noise on init. David. guess    .... on
   Maximum white noise                  ....   0.010
   Quad. conv. algorithm                .... NR
 SOSCF                  CNVSOSCF        .... on
   Start iteration      SOSCFMaxIt      ....   150
   Startup grad/error   SOSCFStart      ....  0.003300
 Level Shifting         CNVShift        .... on
   Level shift para.    LevelShift      ....    0.2500
   Turn off err/grad.   ShiftErr        ....    0.0010
 Zerner damping         CNVZerner       .... off
 Static damping         CNVDamp         .... on
   Fraction old density DampFac         ....    0.7000
   Max. Damping (<1)    DampMax         ....    0.9800
   Min. Damping (>=0)   DampMin         ....    0.0000
   Turn off err/grad.   DampErr         ....    0.1000
 Fernandez-Rico         CNVRico         .... off

SCF Procedure:
 Maximum # iterations   MaxIter         ....   125
 SCF integral mode      SCFMode         .... Direct
   Integral package                     .... SHARK and LIBINT hybrid scheme
 Reset frequency        DirectResetFreq ....    20
 Integral Threshold     Thresh          ....  2.500e-11 Eh
 Primitive CutOff       TCut            ....  2.500e-12 Eh

Convergence Tolerance:
 Convergence Check Mode ConvCheckMode   .... Total+1el-Energy
 Convergence forced     ConvForced      .... 0
 Energy Change          TolE            ....  1.000e-08 Eh
 1-El. energy change                    ....  1.000e-05 Eh
 Orbital Gradient       TolG            ....  1.000e-05
 Orbital Rotation angle TolX            ....  1.000e-05
 DIIS Error             TolErr          ....  5.000e-07


Diagonalization of the overlap matrix:
Smallest eigenvalue                        ... 3.255e-03
Time for diagonalization                   ...    0.009 sec
Threshold for overlap eigenvalues          ... 1.000e-08
Number of eigenvalues below threshold      ... 0
Time for construction of square roots      ...    0.010 sec
Total time needed                          ...    0.020 sec

Time for model grid setup =    0.268 sec

------------------------------
INITIAL GUESS: MODEL POTENTIAL
------------------------------
Loading Hartree-Fock densities                     ... done
Calculating cut-offs                               ... done
Initializing the effective Hamiltonian             ... done
Setting up the integral package (SHARK)            ... done
Starting the Coulomb interaction                   ... done (   0.2 sec)
Reading the grid                                   ... done
Mapping shells                                     ... done
Starting the XC term evaluation                    ... done (   0.2 sec)
  promolecular density results
     # of electrons  =    109.997302341
     EX              =    -86.927586007
     EC              =     -3.678538563
     EX+EC           =    -90.606124569
Transforming the Hamiltonian                       ... done (   0.0 sec)
Diagonalizing the Hamiltonian                      ... done (   0.0 sec)
Back transforming the eigenvectors                 ... done (   0.0 sec)
Now organizing SCF variables                       ... done
                      ------------------
                      INITIAL GUESS DONE (   0.7 sec)
                      ------------------
-------------------
DFT GRID GENERATION
-------------------

General Integration Accuracy     IntAcc      ... 4.388
Radial Grid Type                 RadialGrid  ... OptM3 with GC (2021)
Angular Grid (max. ang.)         AngularGrid ... 4 (Lebedev-302)
Angular grid pruning method      GridPruning ... 4 (adaptive)
Weight generation scheme         WeightScheme... Becke
Basis function cutoff            BFCut       ... 1.0000e-11
Integration weight cutoff        WCut        ... 1.0000e-14
Angular grids for H and He will be reduced by one unit
Partially contracted basis set               ... off
Rotationally invariant grid construction     ... off

Total number of grid points                  ...   147101
Total number of batches                      ...     2316
Average number of points per batch           ...       63
Average number of grid points per atom       ...     4326
Time for grid setup =    1.179 sec

--------------------
COSX GRID GENERATION
--------------------

GRIDX 1
-------
General Integration Accuracy     IntAcc      ... 3.816
Radial Grid Type                 RadialGrid  ... OptM3 with GC (2021)
Angular Grid (max. ang.)         AngularGrid ... 1 (Lebedev-50)
Angular grid pruning method      GridPruning ... 4 (adaptive)
Weight generation scheme         WeightScheme... Becke
Basis function cutoff            BFCut       ... 1.0000e-11
Integration weight cutoff        WCut        ... 1.0000e-14
Angular grids for H and He will be reduced by one unit
Partially contracted basis set               ... on
Rotationally invariant grid construction     ... off

Total number of grid points                  ...    18762
Total number of batches                      ...      313
Average number of points per batch           ...       59
Average number of grid points per atom       ...      552
UseSFitting                                  ... on

GRIDX 2
-------
General Integration Accuracy     IntAcc      ... 4.020
Radial Grid Type                 RadialGrid  ... OptM3 with GC (2021)
Angular Grid (max. ang.)         AngularGrid ... 2 (Lebedev-110)
Angular grid pruning method      GridPruning ... 4 (adaptive)
Weight generation scheme         WeightScheme... Becke
Basis function cutoff            BFCut       ... 1.0000e-11
Integration weight cutoff        WCut        ... 1.0000e-14
Angular grids for H and He will be reduced by one unit
Partially contracted basis set               ... on
Rotationally invariant grid construction     ... off

Total number of grid points                  ...    39308
Total number of batches                      ...      631
Average number of points per batch           ...       62
Average number of grid points per atom       ...     1156
UseSFitting                                  ... on

GRIDX 3
-------
General Integration Accuracy     IntAcc      ... 4.338
Radial Grid Type                 RadialGrid  ... OptM3 with GC (2021)
Angular Grid (max. ang.)         AngularGrid ... 3 (Lebedev-194)
Angular grid pruning method      GridPruning ... 4 (adaptive)
Weight generation scheme         WeightScheme... Becke
Basis function cutoff            BFCut       ... 1.0000e-11
Integration weight cutoff        WCut        ... 1.0000e-14
Angular grids for H and He will be reduced by one unit
Partially contracted basis set               ... on
Rotationally invariant grid construction     ... off

Total number of grid points                  ...    85437
Total number of batches                      ...     1355
Average number of points per batch           ...       63
Average number of grid points per atom       ...     2513
UseSFitting                                  ... on

Time for X-Grid setup             =    2.430 sec


--------------------
CPCM SOLVATION MODEL
--------------------
CPCM parameters:
  Epsilon                                         ...       9.8629
  Refrac                                          ...       1.4295
  Rsolv                                           ...       1.3000
  Surface type                                    ... GAUSSIAN VDW
  Epsilon function type                           ...         CPCM
Radii:
 Radius for C  used is    3.8550 Bohr (=   2.0400 Ang.)
 Radius for H  used is    2.4944 Bohr (=   1.3200 Ang.)
 Radius for O  used is    3.4469 Bohr (=   1.8240 Ang.)
 Radius for N  used is    3.5149 Bohr (=   1.8600 Ang.)
Calculating surface                               ...        done! (  0.0s)
GEPOL surface points                              ...         1778
GEPOL Volume                                      ...    1775.7506
GEPOL Surface-area                                ...     931.2555
Calculating surface distance matrix               ...        done! (  0.0s)
Performing Cholesky decomposition & store         ...        done! (  0.1s)
Overall time for CPCM initialization              ...                 0.1s
--------------
SCF ITERATIONS
--------------
ITER       Energy         Delta-E        Max-DP      RMS-DP      [F,P]     Damp
               ***  Starting incremental Fock matrix formation  ***
  0   -652.2166606009   0.000000000000 0.09849900  0.00219900  0.2741825 0.7000
  1   -652.4338522789  -0.217191678030 0.05718136  0.00148800  0.1111096 0.7000
                               ***Turning on DIIS***
  2   -652.5170593574  -0.083207078463 0.06544234  0.00233226  0.0399691 0.0000
  3   -652.6479015873  -0.130842229935 0.03740786  0.00101223  0.0539693 0.0000
  4   -652.6767589308  -0.028857343432 0.00924437  0.00033916  0.0130625 0.0000
  5   -652.6786870970  -0.001928166269 0.00411637  0.00010479  0.0066977 0.0000
                      *** Initiating the SOSCF procedure ***
                           *** Shutting down DIIS ***
                      *** Re-Reading the Fockian *** 
                      *** Removing any level shift *** 
ITER      Energy       Delta-E        Grad      Rot      Max-DP    RMS-DP
  6   -652.67883242  -0.0001453239  0.000220  0.000220  0.001329  0.000045
               *** Restarting incremental Fock matrix formation ***
  7   -652.67880503   0.0000273936  0.000203  0.000797  0.001484  0.000026
  8   -652.67880003   0.0000049980  0.000416  0.000609  0.000963  0.000016
  9   -652.67880805  -0.0000080219  0.000049  0.000152  0.000301  0.000006
 10   -652.67880777   0.0000002790  0.000091  0.000099  0.000213  0.000004
 11   -652.67880815  -0.0000003766  0.000006  0.000010  0.000028  0.000001
 12   -652.67880814   0.0000000073  0.000006  0.000004  0.000015  0.000000
                  ***Gradient check signals convergence***
              ***Rediagonalizing the Fockian in SOSCF/NRSCF***

               *****************************************************
               *                     SUCCESS                       *
               *           SCF CONVERGED AFTER  13 CYCLES          *
               *****************************************************

Old exchange energy                            =    -17.751257158 Eh
New exchange energy                            =    -17.751244967 Eh
Exchange energy change after final integration =      0.000012191 Eh
Total energy after final integration           =   -652.678795952 Eh
Final COS-X integration done in                =     9.875 sec

----------------
TOTAL SCF ENERGY
----------------

Total Energy       :         -652.67879595 Eh          -17760.29295 eV

Components:
Nuclear Repulsion  :         1007.61129296 Eh           27418.49721 eV
Electronic Energy  :        -1660.29008891 Eh          -45178.79016 eV
One Electron Energy:        -2887.08724612 Eh          -78561.63796 eV
Two Electron Energy:         1226.79715721 Eh           33382.84780 eV
Max COSX asymmetry :            0.00000273 Eh               0.00007 eV
CPCM Dielectric    :           -0.01854534 Eh              -0.50464 eV

Virial components:
Potential Energy   :        -1301.54203975 Eh          -35416.75945 eV
Kinetic Energy     :          648.86324380 Eh           17656.46650 eV
Virial Ratio       :            2.00588036


DFT components:
N(Alpha)           :       54.999947689000 electrons
N(Beta)            :       54.999947689000 electrons
N(Total)           :      109.999895377999 electrons
E(X)               :      -70.450634660141 Eh       
E(C)               :       -4.336389133570 Eh       
E(XC)              :      -74.787023793711 Eh       
DFET-embed. en.    :        0.000000000000 Eh       
CPCM Solvation Model Properties:
Surface-charge          :           -0.02247307
Charge-correction       :           -0.00020861 Eh              -0.00568 eV
Free-energy (cav+disp)  :  This term is not implemented in the current solvation scheme

---------------
SCF CONVERGENCE
---------------

  Last Energy change         ...   -1.0149e-09  Tolerance :   1.0000e-08
  Last MAX-Density change    ...    4.8850e-15  Tolerance :   1.0000e-07
  Last RMS-Density change    ...    4.8087e-17  Tolerance :   5.0000e-09
  Last Orbital Gradient      ...    6.0376e-07  Tolerance :   1.0000e-05
  Last Orbital Rotation      ...    2.1345e-06  Tolerance :   1.0000e-05

             **** THE GBW FILE WAS UPDATED (Nl_octanol.gbw) ****
             **** DENSITY Nl_octanol.scfp WAS UPDATED ****
             **** ENERGY FILE WAS UPDATED (Nl_octanol.en.tmp) ****
             **** THE GBW FILE WAS UPDATED (Nl_octanol.gbw) ****
             **** DENSITY Nl_octanol.scfp WAS UPDATED ****
----------------
ORBITAL ENERGIES
----------------

  NO   OCC          E(Eh)            E(eV) 
   0   2.0000     -19.110105      -520.0124 
   1   2.0000     -19.109905      -520.0069 
   2   2.0000     -14.360855      -390.7787 
   3   2.0000     -14.357161      -390.6782 
   4   2.0000     -10.282395      -279.7982 
   5   2.0000     -10.281677      -279.7787 
   6   2.0000     -10.217947      -278.0445 
   7   2.0000     -10.204892      -277.6892 
   8   2.0000     -10.196311      -277.4557 
   9   2.0000     -10.195461      -277.4326 
  10   2.0000     -10.174201      -276.8541 
  11   2.0000     -10.168772      -276.7063 
  12   2.0000     -10.154312      -276.3129 
  13   2.0000     -10.151920      -276.2478 
  14   2.0000      -1.032018       -28.0826 
  15   2.0000      -1.026740       -27.9390 
  16   2.0000      -0.933726       -25.4080 
  17   2.0000      -0.926072       -25.1997 
  18   2.0000      -0.795857       -21.6564 
  19   2.0000      -0.743729       -20.2379 
  20   2.0000      -0.736525       -20.0419 
  21   2.0000      -0.714685       -19.4476 
  22   2.0000      -0.679967       -18.5029 
  23   2.0000      -0.672771       -18.3070 
  24   2.0000      -0.663383       -18.0516 
  25   2.0000      -0.572288       -15.5727 
  26   2.0000      -0.542988       -14.7754 
  27   2.0000      -0.530642       -14.4395 
  28   2.0000      -0.505526       -13.7561 
  29   2.0000      -0.496451       -13.5091 
  30   2.0000      -0.479758       -13.0549 
  31   2.0000      -0.469047       -12.7634 
  32   2.0000      -0.456734       -12.4284 
  33   2.0000      -0.446703       -12.1554 
  34   2.0000      -0.438974       -11.9451 
  35   2.0000      -0.424734       -11.5576 
  36   2.0000      -0.409685       -11.1481 
  37   2.0000      -0.407841       -11.0979 
  38   2.0000      -0.401000       -10.9118 
  39   2.0000      -0.399533       -10.8719 
  40   2.0000      -0.397785       -10.8243 
  41   2.0000      -0.392715       -10.6863 
  42   2.0000      -0.377647       -10.2763 
  43   2.0000      -0.375004       -10.2044 
  44   2.0000      -0.373905       -10.1745 
  45   2.0000      -0.367777       -10.0077 
  46   2.0000      -0.360605        -9.8126 
  47   2.0000      -0.349613        -9.5135 
  48   2.0000      -0.323790        -8.8108 
  49   2.0000      -0.322825        -8.7845 
  50   2.0000      -0.314004        -8.5445 
  51   2.0000      -0.260100        -7.0777 
  52   2.0000      -0.248899        -6.7729 
  53   2.0000      -0.239392        -6.5142 
  54   2.0000      -0.235069        -6.3966 
  55   0.0000       0.014952         0.4069 
  56   0.0000       0.021458         0.5839 
  57   0.0000       0.087009         2.3676 
  58   0.0000       0.107164         2.9161 
  59   0.0000       0.113029         3.0757 
  60   0.0000       0.133441         3.6311 
  61   0.0000       0.138250         3.7620 
  62   0.0000       0.143312         3.8997 
  63   0.0000       0.144077         3.9205 
  64   0.0000       0.152825         4.1586 
  65   0.0000       0.161478         4.3940 
  66   0.0000       0.164372         4.4728 
  67   0.0000       0.169019         4.5992 
  68   0.0000       0.169717         4.6182 
  69   0.0000       0.176576         4.8049 
  70   0.0000       0.178949         4.8694 
  71   0.0000       0.182244         4.9591 
  72   0.0000       0.185969         5.0605 
  73   0.0000       0.192439         5.2365 
  74   0.0000       0.199583         5.4309 
  75   0.0000       0.205189         5.5835 
  76   0.0000       0.214068         5.8251 
  77   0.0000       0.222910         6.0657 
  78   0.0000       0.234950         6.3933 
  79   0.0000       0.240183         6.5357 
  80   0.0000       0.248513         6.7624 
  81   0.0000       0.254135         6.9154 
  82   0.0000       0.264954         7.2098 
  83   0.0000       0.273105         7.4316 
  84   0.0000       0.282890         7.6978 
  85   0.0000       0.291556         7.9336 
  86   0.0000       0.332227         9.0404 
  87   0.0000       0.363686         9.8964 
  88   0.0000       0.392404        10.6778 
  89   0.0000       0.398022        10.8307 
  90   0.0000       0.469832        12.7848 
  91   0.0000       0.499951        13.6044 
  92   0.0000       0.512741        13.9524 
  93   0.0000       0.518576        14.1112 
  94   0.0000       0.526605        14.3297 
  95   0.0000       0.529333        14.4039 
  96   0.0000       0.534240        14.5374 
  97   0.0000       0.552794        15.0423 
  98   0.0000       0.574606        15.6358 
  99   0.0000       0.591810        16.1040 
 100   0.0000       0.594385        16.1740 
 101   0.0000       0.616339        16.7714 
 102   0.0000       0.623107        16.9556 
 103   0.0000       0.637788        17.3551 
 104   0.0000       0.647800        17.6275 
 105   0.0000       0.653596        17.7852 
 106   0.0000       0.669958        18.2305 
 107   0.0000       0.676775        18.4160 
 108   0.0000       0.692813        18.8524 
 109   0.0000       0.697310        18.9748 
 110   0.0000       0.713115        19.4048 
 111   0.0000       0.719841        19.5879 
 112   0.0000       0.740378        20.1467 
 113   0.0000       0.749111        20.3843 
 114   0.0000       0.755251        20.5514 
 115   0.0000       0.764871        20.8132 
 116   0.0000       0.774898        21.0861 
 117   0.0000       0.787689        21.4341 
 118   0.0000       0.819126        22.2896 
 119   0.0000       0.825142        22.4532 
 120   0.0000       0.842686        22.9307 
 121   0.0000       0.847318        23.0567 
 122   0.0000       0.852145        23.1881 
 123   0.0000       0.871399        23.7120 
 124   0.0000       0.876846        23.8602 
 125   0.0000       0.887057        24.1381 
 126   0.0000       0.889916        24.2158 
 127   0.0000       0.897905        24.4332 
 128   0.0000       0.904040        24.6002 
 129   0.0000       0.910327        24.7712 
 130   0.0000       0.920949        25.0603 
 131   0.0000       0.926309        25.2061 
 132   0.0000       0.928811        25.2742 
 133   0.0000       0.933598        25.4045 
 134   0.0000       0.954504        25.9734 
 135   0.0000       0.958290        26.0764 
 136   0.0000       0.963773        26.2256 
 137   0.0000       0.977883        26.6096 
 138   0.0000       0.986093        26.8330 
 139   0.0000       0.997289        27.1376 
 140   0.0000       1.003098        27.2957 
 141   0.0000       1.006262        27.3818 
 142   0.0000       1.025016        27.8921 
 143   0.0000       1.038826        28.2679 
 144   0.0000       1.053981        28.6803 
 145   0.0000       1.060060        28.8457 
 146   0.0000       1.086459        29.5641 
 147   0.0000       1.109257        30.1844 
 148   0.0000       1.118537        30.4369 
 149   0.0000       1.166313        31.7370 
 150   0.0000       1.167016        31.7561 
 151   0.0000       1.180919        32.1344 
 152   0.0000       1.215124        33.0652 
 153   0.0000       1.229299        33.4509 
 154   0.0000       1.321781        35.9675 
 155   0.0000       1.337689        36.4004 
 156   0.0000       1.354956        36.8702 
 157   0.0000       1.378547        37.5122 
 158   0.0000       1.394216        37.9385 
 159   0.0000       1.403747        38.1979 
 160   0.0000       1.428070        38.8598 
 161   0.0000       1.436202        39.0810 
 162   0.0000       1.448347        39.4115 
 163   0.0000       1.490084        40.5473 
 164   0.0000       1.508169        41.0394 
 165   0.0000       1.531495        41.6741 
 166   0.0000       1.581356        43.0309 
 167   0.0000       1.609605        43.7996 
 168   0.0000       1.620274        44.0899 
 169   0.0000       1.631530        44.3962 
 170   0.0000       1.683254        45.8037 
 171   0.0000       1.710917        46.5564 
 172   0.0000       1.739262        47.3277 
 173   0.0000       1.756693        47.8020 
 174   0.0000       1.785529        48.5867 
 175   0.0000       1.804779        49.1105 
 176   0.0000       1.819428        49.5092 
 177   0.0000       1.825540        49.6755 
 178   0.0000       1.848015        50.2870 
 179   0.0000       1.865200        50.7547 
 180   0.0000       1.870834        50.9080 
 181   0.0000       1.883290        51.2469 
 182   0.0000       1.895519        51.5797 
 183   0.0000       1.921392        52.2837 
 184   0.0000       1.932289        52.5803 
 185   0.0000       1.951674        53.1077 
 186   0.0000       1.957098        53.2553 
 187   0.0000       1.960748        53.3547 
 188   0.0000       1.976188        53.7748 
 189   0.0000       1.987773        54.0901 
 190   0.0000       2.013108        54.7794 
 191   0.0000       2.023742        55.0688 
 192   0.0000       2.050741        55.8035 
 193   0.0000       2.053822        55.8873 
 194   0.0000       2.056507        55.9604 
 195   0.0000       2.078883        56.5693 
 196   0.0000       2.092874        56.9500 
 197   0.0000       2.106802        57.3290 
 198   0.0000       2.132390        58.0253 
 199   0.0000       2.138156        58.1822 
 200   0.0000       2.156358        58.6775 
 201   0.0000       2.180584        59.3367 
 202   0.0000       2.218653        60.3726 
 203   0.0000       2.236867        60.8682 
 204   0.0000       2.256120        61.3921 
 205   0.0000       2.262216        61.5580 
 206   0.0000       2.265902        61.6583 
 207   0.0000       2.273568        61.8669 
 208   0.0000       2.277330        61.9693 
 209   0.0000       2.325496        63.2800 
 210   0.0000       2.360381        64.2292 
 211   0.0000       2.370473        64.5038 
 212   0.0000       2.376275        64.6617 
 213   0.0000       2.410497        65.5930 
 214   0.0000       2.425233        65.9940 
 215   0.0000       2.457185        66.8634 
 216   0.0000       2.464114        67.0520 
 217   0.0000       2.496589        67.9357 
 218   0.0000       2.540843        69.1398 
 219   0.0000       2.549979        69.3884 
 220   0.0000       2.564138        69.7737 
 221   0.0000       2.603245        70.8379 
 222   0.0000       2.613191        71.1085 
 223   0.0000       2.646479        72.0144 
 224   0.0000       2.685154        73.0668 
 225   0.0000       2.710872        73.7666 
 226   0.0000       2.721600        74.0585 
 227   0.0000       2.735432        74.4349 
 228   0.0000       2.775407        75.5227 
 229   0.0000       2.810349        76.4735 
 230   0.0000       2.921443        79.4965 
 231   0.0000       2.959541        80.5332 
 232   0.0000       2.998264        81.5869 
 233   0.0000       3.011403        81.9444 
 234   0.0000       3.149877        85.7125 
 235   0.0000       3.182496        86.6001 

                    ********************************
                    * MULLIKEN POPULATION ANALYSIS *
                    ********************************

-----------------------
MULLIKEN ATOMIC CHARGES
-----------------------
   0 C :   -0.570010
   1 H :    0.193064
   2 H :    0.183164
   3 H :    0.195805
   4 C :    0.531291
   5 O :   -0.519451
   6 N :   -0.390517
   7 C :   -0.252566
   8 H :    0.184490
   9 H :    0.199977
  10 C :    0.537310
  11 N :   -0.358989
  12 O :   -0.536452
  13 C :   -0.339807
  14 H :    0.182024
  15 H :    0.176511
  16 H :    0.185643
  17 C :   -0.332547
  18 H :    0.172499
  19 H :    0.187721
  20 H :    0.172013
  21 C :   -0.145373
  22 H :    0.160218
  23 C :   -0.065100
  24 H :    0.140250
  25 C :   -0.459472
  26 H :    0.147368
  27 H :    0.146949
  28 H :    0.144504
  29 H :    0.152794
  30 C :   -0.467211
  31 H :    0.144297
  32 H :    0.155819
  33 H :    0.143784
Sum of atomic charges:   -0.0000000

--------------------------------
MULLIKEN REDUCED ORBITAL CHARGES
--------------------------------
  0 C s       :     3.326924  s :     3.326924
      pz      :     1.101776  p :     3.211102
      px      :     1.112149
      py      :     0.997177
      dz2     :     0.005844  d :     0.031984
      dxz     :     0.007459
      dyz     :     0.005384
      dx2y2   :     0.007666
      dxy     :     0.005630
  1 H s       :     0.806936  s :     0.806936
  2 H s       :     0.816836  s :     0.816836
  3 H s       :     0.804195  s :     0.804195
  4 C s       :     2.988126  s :     2.988126
      pz      :     0.788084  p :     2.373369
      px      :     0.757780
      py      :     0.827505
      dz2     :     0.010506  d :     0.107214
      dxz     :     0.021753
      dyz     :     0.009869
      dx2y2   :     0.027973
      dxy     :     0.037113
  5 O s       :     3.859050  s :     3.859050
      pz      :     1.484138  p :     4.635069
      px      :     1.393737
      py      :     1.757194
      dz2     :     0.003236  d :     0.025332
      dxz     :     0.007777
      dyz     :     0.001338
      dx2y2   :     0.007127
      dxy     :     0.005854
  6 N s       :     3.563223  s :     3.563223
      pz      :     1.471099  p :     3.790603
      px      :     1.173408
      py      :     1.146096
      dz2     :     0.004640  d :     0.036691
      dxz     :     0.006302
      dyz     :     0.006333
      dx2y2   :     0.008215
      dxy     :     0.011201
  7 C s       :     3.254313  s :     3.254313
      pz      :     1.054858  p :     2.945959
      px      :     0.854233
      py      :     1.036867
      dz2     :     0.016448  d :     0.052295
      dxz     :     0.009499
      dyz     :     0.004554
      dx2y2   :     0.011357
      dxy     :     0.010437
  8 H s       :     0.815510  s :     0.815510
  9 H s       :     0.800023  s :     0.800023
 10 C s       :     2.974502  s :     2.974502
      pz      :     0.753479  p :     2.380408
      px      :     0.833207
      py      :     0.793722
      dz2     :     0.033713  d :     0.107780
      dxz     :     0.022878
      dyz     :     0.020765
      dx2y2   :     0.010940
      dxy     :     0.019485
 11 N s       :     3.529673  s :     3.529673
      pz      :     1.170266  p :     3.791706
      px      :     1.291326
      py      :     1.330114
      dz2     :     0.009087  d :     0.037609
      dxz     :     0.007990
      dyz     :     0.007883
      dx2y2   :     0.005959
      dxy     :     0.006691
 12 O s       :     3.863528  s :     3.863528
      pz      :     1.531949  p :     4.647768
      px      :     1.659017
      py      :     1.456803
      dz2     :     0.006079  d :     0.025157
      dxz     :     0.004280
      dyz     :     0.007123
      dx2y2   :     0.004324
      dxy     :     0.003350
 13 C s       :     3.268429  s :     3.268429
      pz      :     0.937805  p :     3.022843
      px      :     1.099711
      py      :     0.985327
      dz2     :     0.012832  d :     0.048535
      dxz     :     0.003849
      dyz     :     0.013090
      dx2y2   :     0.009276
      dxy     :     0.009488
 14 H s       :     0.817976  s :     0.817976
 15 H s       :     0.823489  s :     0.823489
 16 H s       :     0.814357  s :     0.814357
 17 C s       :     3.259332  s :     3.259332
      pz      :     1.121306  p :     3.025228
      px      :     0.908537
      py      :     0.995385
      dz2     :     0.008238  d :     0.047986
      dxz     :     0.004036
      dyz     :     0.012598
      dx2y2   :     0.008798
      dxy     :     0.014316
 18 H s       :     0.827501  s :     0.827501
 19 H s       :     0.812279  s :     0.812279
 20 H s       :     0.827987  s :     0.827987
 21 C s       :     3.213311  s :     3.213311
      pz      :     1.016760  p :     2.878797
      px      :     1.050239
      py      :     0.811797
      dz2     :     0.006191  d :     0.053265
      dxz     :     0.013000
      dyz     :     0.011874
      dx2y2   :     0.012471
      dxy     :     0.009729
 22 H s       :     0.839782  s :     0.839782
 23 C s       :     3.195085  s :     3.195085
      pz      :     0.951899  p :     2.824686
      px      :     0.949856
      py      :     0.922931
      dz2     :     0.005105  d :     0.045328
      dxz     :     0.011681
      dyz     :     0.011802
      dx2y2   :     0.007419
      dxy     :     0.009321
 24 H s       :     0.859750  s :     0.859750
 25 C s       :     3.298796  s :     3.298796
      pz      :     1.059861  p :     3.125696
      px      :     1.054996
      py      :     1.010839
      dz2     :     0.002495  d :     0.034981
      dxz     :     0.008713
      dyz     :     0.010824
      dx2y2   :     0.006796
      dxy     :     0.006153
 26 H s       :     0.852632  s :     0.852632
 27 H s       :     0.853051  s :     0.853051
 28 H s       :     0.855496  s :     0.855496
 29 H s       :     0.847206  s :     0.847206
 30 C s       :     3.299831  s :     3.299831
      pz      :     1.053042  p :     3.132432
      px      :     1.008657
      py      :     1.070733
      dz2     :     0.003099  d :     0.034948
      dxz     :     0.008673
      dyz     :     0.010284
      dx2y2   :     0.005274
      dxy     :     0.007618
 31 H s       :     0.855703  s :     0.855703
 32 H s       :     0.844181  s :     0.844181
 33 H s       :     0.856216  s :     0.856216


                     *******************************
                     * LOEWDIN POPULATION ANALYSIS *
                     *******************************

----------------------
LOEWDIN ATOMIC CHARGES
----------------------
   0 C :   -0.398005
   1 H :    0.151387
   2 H :    0.151654
   3 H :    0.156563
   4 C :    0.118550
   5 O :   -0.317766
   6 N :   -0.086122
   7 C :   -0.176666
   8 H :    0.144139
   9 H :    0.154996
  10 C :    0.100870
  11 N :   -0.067112
  12 O :   -0.332792
  13 C :   -0.281416
  14 H :    0.143263
  15 H :    0.134761
  16 H :    0.142761
  17 C :   -0.281000
  18 H :    0.134092
  19 H :    0.149287
  20 H :    0.135292
  21 C :   -0.154029
  22 H :    0.134794
  23 C :   -0.134776
  24 H :    0.125062
  25 C :   -0.361554
  26 H :    0.126792
  27 H :    0.125368
  28 H :    0.123782
  29 H :    0.129370
  30 C :   -0.367602
  31 H :    0.123737
  32 H :    0.127229
  33 H :    0.125091

-------------------------------
LOEWDIN REDUCED ORBITAL CHARGES
-------------------------------
  0 C s       :     2.983256  s :     2.983256
      pz      :     1.141400  p :     3.351859
      px      :     1.144423
      py      :     1.066037
      dz2     :     0.010901  d :     0.062890
      dxz     :     0.013258
      dyz     :     0.010854
      dx2y2   :     0.015990
      dxy     :     0.011888
  1 H s       :     0.848613  s :     0.848613
  2 H s       :     0.848346  s :     0.848346
  3 H s       :     0.843437  s :     0.843437
  4 C s       :     2.854238  s :     2.854238
      pz      :     0.821167  p :     2.774777
      px      :     0.962477
      py      :     0.991133
      dz2     :     0.023307  d :     0.252435
      dxz     :     0.048788
      dyz     :     0.020455
      dx2y2   :     0.066633
      dxy     :     0.093252
  5 O s       :     3.564171  s :     3.564171
      pz      :     1.477967  p :     4.701915
      px      :     1.465153
      py      :     1.758795
[...]
     76      -0.002225   0.000355  -0.000002  -0.000008   0.000006  -0.000001
     77      -0.003549  -0.001270   0.000022   0.000005   0.000001   0.000006
     78       0.005618   0.001689  -0.000170  -0.000167   0.000017  -0.000042
     79      -0.018228  -0.007843   0.000488   0.000464  -0.000043   0.000127
     80       0.022265   0.010510  -0.000456  -0.000418   0.000035  -0.000096
     81       0.050608   0.008063  -0.000521  -0.000478  -0.000006   0.000157
     82       0.009492   0.000851  -0.000093  -0.000090   0.000001  -0.000031
     83      -0.028615  -0.004819   0.000311   0.000283  -0.000003  -0.000075
     84       0.045265   0.009989  -0.000254  -0.000120  -0.000038  -0.000035
     85       0.038783   0.009758  -0.000274  -0.000158  -0.000039  -0.000023
     86       0.049591   0.012203  -0.000293  -0.000134  -0.000054  -0.000027
     87       0.350183   0.045457  -0.006843  -0.006850   0.000274  -0.000566
     88       0.054573   0.007656  -0.000750  -0.001284  -0.000021   0.000171
     89      -0.187454  -0.024749   0.003428   0.003126  -0.000139   0.000168
     90      -0.006762   0.017654   0.000068   0.000065   0.000080  -0.000133
     91       0.013589  -0.083370  -0.000117  -0.000140   0.000003   0.000471
     92      -0.003007  -0.026588   0.000080   0.000074   0.000051   0.000126
     93       0.017717   0.192557  -0.000383  -0.000188  -0.000748  -0.000877
     94       0.014068   0.101506  -0.000303  -0.000181  -0.000380  -0.000690
     95       0.012440   0.167496  -0.000278  -0.000094  -0.000613  -0.000893
     96       0.053382  -0.363222  -0.000348  -0.000433  -0.000187   0.001792
     97      -0.115477   0.766150   0.000773   0.000894   0.000258  -0.003536
     98      -0.051621   0.336671   0.000445   0.000469   0.000118  -0.002074
     99       0.016692  -0.041508  -0.000236  -0.000244  -0.000073   0.000450
    100      -0.059217   0.137976   0.000931   0.001001   0.000173  -0.001352
    101       0.075515  -0.190947  -0.001120  -0.001204  -0.000207   0.001215


-----------
IR SPECTRUM
-----------

 Mode   freq       eps      Int      T**2         TX        TY        TZ
       cm**-1   L/(mol*cm) km/mol    a.u.
----------------------------------------------------------------------------
  6:     22.63   0.000374    1.89  0.005154  ( 0.044702 -0.052389  0.020286)
  7:     49.25   0.000214    1.08  0.001353  (-0.036465  0.004625  0.001542)
  8:     64.46   0.001321    6.68  0.006397  (-0.048358  0.040075 -0.049521)
  9:     70.06   0.001013    5.12  0.004513  ( 0.046340 -0.006015 -0.048259)
 10:     78.47   0.001253    6.33  0.004982  (-0.057892  0.006928  0.039777)
 11:     96.25   0.000626    3.17  0.002031  (-0.019179 -0.017187  0.036987)
 12:    111.06   0.000226    1.14  0.000636  (-0.008789 -0.021649 -0.009489)
 13:    122.40   0.000219    1.11  0.000558  (-0.001957  0.020873 -0.010881)
 14:    154.34   0.000638    3.23  0.001291  ( 0.024078 -0.021227  0.016144)
 15:    183.28   0.000465    2.35  0.000791  (-0.008763  0.023453 -0.012810)
 16:    186.93   0.000131    0.66  0.000218  (-0.007769  0.010400  0.007034)
 17:    229.36   0.000336    1.70  0.000457  ( 0.003038  0.021167 -0.000332)
 18:    238.48   0.001047    5.29  0.001370  (-0.000623  0.036990 -0.001186)
 19:    248.30   0.001816    9.17  0.002282  ( 0.043604 -0.009899  0.016807)
 20:    273.16   0.000300    1.51  0.000342  ( 0.017486  0.005443  0.002622)
 21:    298.47   0.000879    4.44  0.000919  ( 0.002798 -0.029963  0.003672)
 22:    324.56   0.000564    2.85  0.000543  ( 0.013391  0.010092 -0.016171)
 23:    345.73   0.004536   22.92  0.004095  ( 0.045363  0.039912 -0.021070)
 24:    372.04   0.001366    6.90  0.001145  ( 0.014428 -0.014413 -0.027011)
 25:    414.21   0.000387    1.96  0.000292  ( 0.012758 -0.001308  0.011288)
 26:    416.43   0.000652    3.30  0.000489  ( 0.020047  0.000409 -0.009311)
 27:    428.86   0.001564    7.90  0.001138  ( 0.022006  0.025563  0.000273)
 28:    461.11   0.001035    5.23  0.000700  (-0.018754 -0.015148 -0.010915)
 29:    514.67   0.002546   12.86  0.001543  (-0.011263  0.034263 -0.015577)
 30:    562.92   0.003872   19.57  0.002147  (-0.016133 -0.014668 -0.040882)
 31:    611.74   0.001262    6.38  0.000644  ( 0.011248  0.003812 -0.022426)
 32:    631.11   0.006569   33.20  0.003248  (-0.048835 -0.011045  0.027223)
 33:    707.95   0.003015   15.24  0.001329  ( 0.001638  0.036417  0.000004)
 34:    771.90   0.000794    4.01  0.000321  ( 0.017407 -0.004015 -0.001308)
 35:    821.51   0.005019   25.36  0.001906  (-0.032485  0.006061  0.028538)
 36:    827.29   0.001241    6.27  0.000468  (-0.019831  0.008568 -0.001249)
 37:    908.81   0.000444    2.24  0.000152  ( 0.004690 -0.010641 -0.004152)
 38:    937.94   0.000613    3.10  0.000204  (-0.005247  0.012830  0.003441)
 39:    948.88   0.000465    2.35  0.000153  (-0.009728 -0.000339  0.007634)
 40:    975.46   0.000733    3.70  0.000235  ( 0.001181  0.015113 -0.002174)
 41:    981.55   0.001973    9.97  0.000627  ( 0.007591  0.023239  0.005440)
 42:   1000.67   0.002892   14.62  0.000902  ( 0.028655  0.007532  0.004904)
 43:   1006.04   0.011475   57.99  0.003559  (-0.045887 -0.019647  0.032675)
 44:   1062.31   0.002354   11.90  0.000692  (-0.012835 -0.008436  0.021345)
 45:   1083.79   0.006396   32.32  0.001842  ( 0.019359  0.024686  0.029281)
 46:   1087.98   0.001936    9.78  0.000555  (-0.004793  0.010248 -0.020670)
 47:   1132.90   0.000930    4.70  0.000256  (-0.004220  0.009228  0.012378)
 48:   1147.11   0.008226   41.57  0.002238  (-0.031948  0.033579  0.009471)
 49:   1155.64   0.004785   24.18  0.001292  (-0.025313  0.018131  0.017964)
 50:   1176.98   0.001552    7.84  0.000411  ( 0.012667  0.000471  0.015834)
 51:   1200.43   0.010956   55.37  0.002848  ( 0.015919 -0.009459 -0.050053)
 52:   1203.99   0.002291   11.58  0.000594  ( 0.007065  0.011809 -0.020109)
 53:   1241.50   0.003561   17.99  0.000895  (-0.013821  0.026366 -0.002974)
 54:   1271.22   0.035968  181.77  0.008830  ( 0.059238  0.065017  0.033065)
 55:   1294.18   0.015949   80.60  0.003846  ( 0.046775  0.038109 -0.014337)
 56:   1330.21   0.005996   30.30  0.001407  ( 0.011773  0.035586 -0.001260)
 57:   1349.46   0.000177    0.90  0.000041  ( 0.003846  0.004000  0.003195)
 58:   1383.60   0.006614   33.43  0.001492  ( 0.006273  0.038111 -0.000077)
 59:   1394.80   0.003405   17.21  0.000762  ( 0.016065  0.019357  0.011363)
 60:   1405.10   0.007386   37.32  0.001640  (-0.036476 -0.015683 -0.007990)
 61:   1420.14   0.008005   40.45  0.001759  ( 0.007867  0.041067  0.003267)
 62:   1422.79   0.003465   17.51  0.000760  (-0.022306 -0.015334  0.005221)
 63:   1436.84   0.012815   64.76  0.002783  ( 0.038272  0.034118 -0.012428)
 64:   1441.33   0.011965   60.46  0.002590  (-0.018710  0.018737  0.043467)
 65:   1454.51   0.012315   62.23  0.002642  (-0.043141 -0.020511  0.018980)
 66:   1468.18   0.026117  131.99  0.005551  (-0.025929 -0.058755 -0.037771)
 67:   1487.52   0.001037    5.24  0.000217  ( 0.013489  0.005882 -0.000955)
 68:   1490.09   0.003625   18.32  0.000759  (-0.021567  0.010640 -0.013450)
 69:   1500.64   0.001922    9.71  0.000400  (-0.005316 -0.008999  0.017043)
 70:   1504.33   0.002661   13.45  0.000552  (-0.014432 -0.017431  0.006313)
 71:   1507.85   0.002103   10.63  0.000435  (-0.011059  0.013469  0.011470)
 72:   1509.14   0.000761    3.85  0.000157  (-0.009529  0.008124 -0.000778)
 73:   1510.91   0.002646   13.37  0.000547  ( 0.009764  0.005477  0.020524)
 74:   1515.14   0.002029   10.25  0.000418  ( 0.002236 -0.000632 -0.020309)
 75:   1516.08   0.007076   35.76  0.001456  ( 0.009743 -0.033859 -0.014667)
 76:   1519.85   0.000965    4.88  0.000198  ( 0.005319  0.012341  0.004192)
 77:   1526.84   0.004694   23.72  0.000959  ( 0.011206 -0.000723  0.028867)
 78:   1532.86   0.000638    3.23  0.000130  ( 0.010744  0.000063  0.003810)
 79:   1553.22   0.014813   74.86  0.002976  ( 0.038333  0.006841 -0.038208)
 80:   1715.05   0.118878  600.76  0.021631  ( 0.017775  0.070464  0.127865)
 81:   1722.22   0.084382  426.43  0.015290  ( 0.121244 -0.022022  0.010242)
 82:   3031.17   0.007302   36.90  0.000752  (-0.012183  0.020723  0.013185)
 83:   3041.95   0.005668   28.64  0.000581  ( 0.018541  0.010814 -0.010989)
 84:   3042.75   0.010679   53.97  0.001095  (-0.013794 -0.029808  0.004061)
 85:   3048.33   0.015821   79.95  0.001620  (-0.024859  0.012218  0.029196)
 86:   3059.39   0.007239   36.58  0.000738  (-0.017965  0.011474  0.016851)
 87:   3061.46   0.001047    5.29  0.000107  (-0.006404  0.007859  0.002000)
 88:   3066.59   0.009733   49.19  0.000991  ( 0.005201 -0.005684  0.030515)
 89:   3068.02   0.001135    5.74  0.000115  ( 0.001244 -0.009223 -0.005368)
 90:   3094.18   0.005502   27.81  0.000555  ( 0.021605  0.009285 -0.001391)
 91:   3098.42   0.010180   51.45  0.001025  ( 0.021418 -0.019679  0.013390)
 92:   3101.69   0.010579   53.46  0.001064  (-0.026626 -0.003760 -0.018473)
 93:   3107.01   0.015911   80.41  0.001598  ( 0.002677 -0.016065  0.036508)
 94:   3115.19   0.003935   19.89  0.000394  ( 0.002858 -0.011171  0.016164)
 95:   3124.45   0.002239   11.31  0.000224  (-0.007366 -0.001346  0.012943)
 96:   3125.37   0.005900   29.82  0.000589  (-0.022287 -0.005080 -0.008163)
 97:   3133.69   0.010147   51.28  0.001010  ( 0.003927 -0.029304 -0.011676)
 98:   3166.08   0.003238   16.36  0.000319  ( 0.011500  0.010947  0.008190)
 99:   3174.76   0.002394   12.10  0.000235  (-0.013348  0.006511  0.003839)
100:   3195.11   0.000534    2.70  0.000052  ( 0.004086  0.004478  0.003924)
101:   3199.34   0.002000   10.11  0.000195  ( 0.011874  0.006028  0.004211)

* The epsilon (eps) is given for a Dirac delta lineshape.
** The dipole moment derivative (T) already includes vibrational overlap.

The first frequency considered to be a vibration is 6
The total number of vibrations considered is 96


--------------------------
THERMOCHEMISTRY AT 298.15K
--------------------------

Temperature         ... 298.15 K
Pressure            ... 1.00 atm
Total Mass          ... 200.28 AMU

Throughout the following assumptions are being made:
  (1) The electronic state is orbitally nondegenerate
  (2) There are no thermally accessible electronically excited states
  (3) Hindered rotations indicated by low frequency modes are not
      treated as such but are treated as vibrations and this may
      cause some error
  (4) All equations used are the standard statistical mechanics
      equations for an ideal gas
  (5) All vibrations are strictly harmonic

freq.      22.63  E(vib)   ...       0.56 
freq.      49.25  E(vib)   ...       0.52 
freq.      64.46  E(vib)   ...       0.51 
freq.      70.06  E(vib)   ...       0.50 
freq.      78.47  E(vib)   ...       0.49 
freq.      96.25  E(vib)   ...       0.47 
freq.     111.06  E(vib)   ...       0.45 
freq.     122.40  E(vib)   ...       0.43 
freq.     154.34  E(vib)   ...       0.40 
freq.     183.28  E(vib)   ...       0.37 
freq.     186.93  E(vib)   ...       0.36 
freq.     229.36  E(vib)   ...       0.32 
freq.     238.48  E(vib)   ...       0.32 
freq.     248.30  E(vib)   ...       0.31 
freq.     273.16  E(vib)   ...       0.29 
freq.     298.47  E(vib)   ...       0.26 
freq.     324.56  E(vib)   ...       0.24 
freq.     345.73  E(vib)   ...       0.23 
freq.     372.04  E(vib)   ...       0.21 
freq.     414.21  E(vib)   ...       0.19 
freq.     416.43  E(vib)   ...       0.18 
freq.     428.86  E(vib)   ...       0.18 
freq.     461.11  E(vib)   ...       0.16 
freq.     514.67  E(vib)   ...       0.13 
freq.     562.92  E(vib)   ...       0.11 
freq.     611.74  E(vib)   ...       0.10 
freq.     631.11  E(vib)   ...       0.09 
freq.     707.95  E(vib)   ...       0.07 
freq.     771.90  E(vib)   ...       0.05 
freq.     821.51  E(vib)   ...       0.05 
freq.     827.29  E(vib)   ...       0.04 
freq.     908.81  E(vib)   ...       0.03 
freq.     937.94  E(vib)   ...       0.03 
freq.     948.88  E(vib)   ...       0.03 
freq.     975.46  E(vib)   ...       0.03 
freq.     981.55  E(vib)   ...       0.02 
freq.    1000.67  E(vib)   ...       0.02 
freq.    1006.04  E(vib)   ...       0.02 
freq.    1062.31  E(vib)   ...       0.02 
freq.    1083.79  E(vib)   ...       0.02 
freq.    1087.98  E(vib)   ...       0.02 
freq.    1132.90  E(vib)   ...       0.01 
freq.    1147.11  E(vib)   ...       0.01 
freq.    1155.64  E(vib)   ...       0.01 
freq.    1176.98  E(vib)   ...       0.01 
freq.    1200.43  E(vib)   ...       0.01 
freq.    1203.99  E(vib)   ...       0.01 
freq.    1241.50  E(vib)   ...       0.01 
freq.    1271.22  E(vib)   ...       0.01 
freq.    1294.18  E(vib)   ...       0.01 
freq.    1330.21  E(vib)   ...       0.01 
freq.    1349.46  E(vib)   ...       0.01 
freq.    1383.60  E(vib)   ...       0.00 
freq.    1394.80  E(vib)   ...       0.00 
freq.    1405.10  E(vib)   ...       0.00 
freq.    1420.14  E(vib)   ...       0.00 
freq.    1422.79  E(vib)   ...       0.00 
freq.    1436.84  E(vib)   ...       0.00 
freq.    1441.33  E(vib)   ...       0.00 
freq.    1454.51  E(vib)   ...       0.00 
freq.    1468.18  E(vib)   ...       0.00 
freq.    1487.52  E(vib)   ...       0.00 
freq.    1490.09  E(vib)   ...       0.00 
freq.    1500.64  E(vib)   ...       0.00 
freq.    1504.33  E(vib)   ...       0.00 
freq.    1507.85  E(vib)   ...       0.00 
freq.    1509.14  E(vib)   ...       0.00 
freq.    1510.91  E(vib)   ...       0.00 
freq.    1515.14  E(vib)   ...       0.00 
freq.    1516.08  E(vib)   ...       0.00 
freq.    1519.85  E(vib)   ...       0.00 
freq.    1526.84  E(vib)   ...       0.00 
freq.    1532.86  E(vib)   ...       0.00 
freq.    1553.22  E(vib)   ...       0.00 
freq.    1715.05  E(vib)   ...       0.00 
freq.    1722.22  E(vib)   ...       0.00 
freq.    3031.17  E(vib)   ...       0.00 
freq.    3041.95  E(vib)   ...       0.00 
freq.    3042.75  E(vib)   ...       0.00 
freq.    3048.33  E(vib)   ...       0.00 
freq.    3059.39  E(vib)   ...       0.00 
freq.    3061.46  E(vib)   ...       0.00 
freq.    3066.59  E(vib)   ...       0.00 
freq.    3068.02  E(vib)   ...       0.00 
freq.    3094.18  E(vib)   ...       0.00 
freq.    3098.42  E(vib)   ...       0.00 
freq.    3101.69  E(vib)   ...       0.00 
freq.    3107.01  E(vib)   ...       0.00 
freq.    3115.19  E(vib)   ...       0.00 
freq.    3124.45  E(vib)   ...       0.00 
freq.    3125.37  E(vib)   ...       0.00 
freq.    3133.69  E(vib)   ...       0.00 
freq.    3166.08  E(vib)   ...       0.00 
freq.    3174.76  E(vib)   ...       0.00 
freq.    3195.11  E(vib)   ...       0.00 
freq.    3199.34  E(vib)   ...       0.00 

------------
INNER ENERGY
------------

The inner energy is: U= E(el) + E(ZPE) + E(vib) + E(rot) + E(trans)
    E(el)   - is the total energy from the electronic structure calculation
              = E(kin-el) + E(nuc-el) + E(el-el) + E(nuc-nuc)
    E(ZPE)  - the the zero temperature vibrational energy from the frequency calculation
    E(vib)  - the the finite temperature correction to E(ZPE) due to population
              of excited vibrational states
    E(rot)  - is the rotational thermal energy
    E(trans)- is the translational thermal energy

Summary of contributions to the inner energy U:
Electronic energy                ...   -652.73704601 Eh
Zero point energy                ...      0.30101408 Eh     188.89 kcal/mol
Thermal vibrational correction   ...      0.01437062 Eh       9.02 kcal/mol
Thermal rotational correction    ...      0.00141627 Eh       0.89 kcal/mol
Thermal translational correction ...      0.00141627 Eh       0.89 kcal/mol
-----------------------------------------------------------------------
Total thermal energy                   -652.41882877 Eh


Summary of corrections to the electronic energy:
(perhaps to be used in another calculation)
Total thermal correction                  0.01720316 Eh      10.80 kcal/mol
Non-thermal (ZPE) correction              0.30101408 Eh     188.89 kcal/mol
-----------------------------------------------------------------------
Total correction                          0.31821724 Eh     199.68 kcal/mol


--------
ENTHALPY
--------

The enthalpy is H = U + kB*T
                kB is Boltzmann's constant
Total free energy                 ...   -652.41882877 Eh 
Thermal Enthalpy correction       ...      0.00094421 Eh       0.59 kcal/mol
-----------------------------------------------------------------------
Total Enthalpy                    ...   -652.41788456 Eh


Note: Only C1 symmetry has been detected, increase convergence thresholds 
      if your molecule has a higher symmetry. Symmetry factor of 1.0 is   
      used for the rotational entropy correction. 
 

Note: Rotational entropy computed according to Herzberg 
Infrared and Raman Spectra, Chapter V,1, Van Nostrand Reinhold, 1945 
Point Group:  C1, Symmetry Number:   1  
Rotational constants in cm-1:     0.025540     0.018720     0.013659 

Vibrational entropy computed according to the QRRHO of S. Grimme
Chem.Eur.J. 2012 18 9955


-------
ENTROPY
-------

The entropy contributions are T*S = T*(S(el)+S(vib)+S(rot)+S(trans))
     S(el)   - electronic entropy
     S(vib)  - vibrational entropy
     S(rot)  - rotational entropy
     S(trans)- translational entropy
The entropies will be listed as multiplied by the temperature to get
units of energy

Electronic entropy                ...      0.00000000 Eh      0.00 kcal/mol
Vibrational entropy               ...      0.02588173 Eh     16.24 kcal/mol
Rotational entropy                ...      0.01514710 Eh      9.50 kcal/mol
Translational entropy             ...      0.01985492 Eh     12.46 kcal/mol
-----------------------------------------------------------------------
Final entropy term                ...      0.06088376 Eh     38.21 kcal/mol

In case the symmetry of your molecule has not been determined correctly
or in case you have a reason to use a different symmetry number we print 
out the resulting rotational entropy values for sn=1,12 :
 --------------------------------------------------------
|  sn= 1 | S(rot)=       0.01514710 Eh      9.50 kcal/mol|
|  sn= 2 | S(rot)=       0.01449265 Eh      9.09 kcal/mol|
|  sn= 3 | S(rot)=       0.01410982 Eh      8.85 kcal/mol|
|  sn= 4 | S(rot)=       0.01383819 Eh      8.68 kcal/mol|
|  sn= 5 | S(rot)=       0.01362750 Eh      8.55 kcal/mol|
|  sn= 6 | S(rot)=       0.01345536 Eh      8.44 kcal/mol|
|  sn= 7 | S(rot)=       0.01330981 Eh      8.35 kcal/mol|
|  sn= 8 | S(rot)=       0.01318374 Eh      8.27 kcal/mol|
|  sn= 9 | S(rot)=       0.01307253 Eh      8.20 kcal/mol|
|  sn=10 | S(rot)=       0.01297305 Eh      8.14 kcal/mol|
|  sn=11 | S(rot)=       0.01288306 Eh      8.08 kcal/mol|
|  sn=12 | S(rot)=       0.01280090 Eh      8.03 kcal/mol|
 --------------------------------------------------------


-------------------
GIBBS FREE ENERGY
-------------------

The Gibbs free energy is G = H - T*S

Total enthalpy                    ...   -652.41788456 Eh 
Total entropy correction          ...     -0.06088376 Eh    -38.21 kcal/mol
-----------------------------------------------------------------------
Final Gibbs free energy         ...   -652.47876832 Eh

For completeness - the Gibbs free energy minus the electronic energy
G-E(el)                           ...      0.25827769 Eh    162.07 kcal/mol


Timings for individual modules:

Sum of individual times         ...     1319.741 sec (=  21.996 min)
GTO integral calculation        ...       14.746 sec (=   0.246 min)   1.1 %
SCF iterations                  ...      515.417 sec (=   8.590 min)  39.1 %
SCF Gradient evaluation         ...      148.422 sec (=   2.474 min)  11.2 %
Geometry relaxation             ...        0.710 sec (=   0.012 min)   0.1 %
Analytical frequency calculation...      640.447 sec (=  10.674 min)  48.5 %
                             ****ORCA TERMINATED NORMALLY****
TOTAL RUN TIME: 0 days 0 hours 22 minutes 4 seconds 38 msec
