
                                 *****************
                                 * O   R   C   A *
                                 *****************

                                            #,                                       
                                            ###                                      
                                            ####                                     
                                            #####                                    
                                            ######                                   
                                           ########,                                 
                                     ,,################,,,,,                         
                               ,,#################################,,                 
                          ,,##########################################,,             
                       ,#########################################, ''#####,          
                    ,#############################################,,   '####,        
                  ,##################################################,,,,####,       
                ,###########''''           ''''###############################       
              ,#####''   ,,,,##########,,,,          '''####'''          '####       
            ,##' ,,,,###########################,,,                        '##       
           ' ,,###''''                  '''############,,,                           
         ,,##''                                '''############,,,,        ,,,,,,###''
      ,#''                                            '''#######################'''  
     '                                                          ''''####''''         
             ,#######,   #######,   ,#######,      ##                                
            ,#'     '#,  ##    ##  ,#'     '#,    #''#        ######   ,####,        
            ##       ##  ##   ,#'  ##            #'  '#       #        #'  '#        
            ##       ##  #######   ##           ,######,      #####,   #    #        
            '#,     ,#'  ##    ##  '#,     ,#' ,#      #,         ##   #,  ,#        
             '#######'   ##     ##  '#######'  #'      '#     #####' # '####'        



                  #######################################################
                  #                        -***-                        #
                  #          Department of theory and spectroscopy      #
                  #    Directorship and core code : Frank Neese         #
                  #        Max Planck Institute fuer Kohlenforschung    #
                  #                Kaiser Wilhelm Platz 1               #
                  #                 D-45470 Muelheim/Ruhr               #
                  #                      Germany                        #
                  #                                                     #
                  #                  All rights reserved                #
                  #                        -***-                        #
                  #######################################################


                         Program Version 5.0.4 -  RELEASE  -


 With contributions from (in alphabetic order):
   Daniel Aravena         : Magnetic Suceptibility
   Michael Atanasov       : Ab Initio Ligand Field Theory (pilot matlab implementation)
   Alexander A. Auer      : GIAO ZORA, VPT2 properties, NMR spectrum
   Ute Becker             : Parallelization
   Giovanni Bistoni       : ED, misc. LED, open-shell LED, HFLD
   Martin Brehm           : Molecular dynamics
   Dmytro Bykov           : SCF Hessian
   Vijay G. Chilkuri      : MRCI spin determinant printing, contributions to CSF-ICE
   Dipayan Datta          : RHF DLPNO-CCSD density
   Achintya Kumar Dutta   : EOM-CC, STEOM-CC
   Dmitry Ganyushin       : Spin-Orbit,Spin-Spin,Magnetic field MRCI
   Miquel Garcia          : C-PCM and meta-GGA Hessian, CC/C-PCM, Gaussian charge scheme
   Yang Guo               : DLPNO-NEVPT2, F12-NEVPT2, CIM, IAO-localization
   Andreas Hansen         : Spin unrestricted coupled pair/coupled cluster methods
   Benjamin Helmich-Paris : MC-RPA, TRAH-SCF, COSX integrals
   Lee Huntington         : MR-EOM, pCC
   Robert Izsak           : Overlap fitted RIJCOSX, COSX-SCS-MP3, EOM
   Marcus Kettner         : VPT2
   Christian Kollmar      : KDIIS, OOCD, Brueckner-CCSD(T), CCSD density, CASPT2, CASPT2-K
   Simone Kossmann        : Meta GGA functionals, TD-DFT gradient, OOMP2, MP2 Hessian
   Martin Krupicka        : Initial AUTO-CI
   Lucas Lang             : DCDCAS
   Marvin Lechner         : AUTO-CI (C++ implementation), FIC-MRCC
   Dagmar Lenk            : GEPOL surface, SMD
   Dimitrios Liakos       : Extrapolation schemes; Compound Job, initial MDCI parallelization
   Dimitrios Manganas     : Further ROCIS development; embedding schemes
   Dimitrios Pantazis     : SARC Basis sets
   Anastasios Papadopoulos: AUTO-CI, single reference methods and gradients
   Taras Petrenko         : DFT Hessian,TD-DFT gradient, ASA, ECA, R-Raman, ABS, FL, XAS/XES, NRVS
   Peter Pinski           : DLPNO-MP2, DLPNO-MP2 Gradient
   Christoph Reimann      : Effective Core Potentials
   Marius Retegan         : Local ZFS, SOC
   Christoph Riplinger    : Optimizer, TS searches, QM/MM, DLPNO-CCSD(T), (RO)-DLPNO pert. Triples
   Tobias Risthaus        : Range-separated hybrids, TD-DFT gradient, RPA, STAB
   Michael Roemelt        : Original ROCIS implementation
   Masaaki Saitow         : Open-shell DLPNO-CCSD energy and density
   Barbara Sandhoefer     : DKH picture change effects
   Avijit Sen             : IP-ROCIS
   Kantharuban Sivalingam : CASSCF convergence, NEVPT2, FIC-MRCI
   Bernardo de Souza      : ESD, SOC TD-DFT
   Georgi Stoychev        : AutoAux, RI-MP2 NMR, DLPNO-MP2 response
   Willem Van den Heuvel  : Paramagnetic NMR
   Boris Wezisla          : Elementary symmetry handling
   Frank Wennmohs         : Technical directorship


 We gratefully acknowledge several colleagues who have allowed us to
 interface, adapt or use parts of their codes:
   Stefan Grimme, W. Hujo, H. Kruse, P. Pracht,  : VdW corrections, initial TS optimization,
                  C. Bannwarth, S. Ehlert          DFT functionals, gCP, sTDA/sTD-DF
   Ed Valeev, F. Pavosevic, A. Kumar             : LibInt (2-el integral package), F12 methods
   Garnet Chan, S. Sharma, J. Yang, R. Olivares  : DMRG
   Ulf Ekstrom                                   : XCFun DFT Library
   Mihaly Kallay                                 : mrcc  (arbitrary order and MRCC methods)
   Jiri Pittner, Ondrej Demel                    : Mk-CCSD
   Frank Weinhold                                : gennbo (NPA and NBO analysis)
   Christopher J. Cramer and Donald G. Truhlar   : smd solvation model
   Lars Goerigk                                  : TD-DFT with DH, B97 family of functionals
   V. Asgeirsson, H. Jonsson                     : NEB implementation
   FAccTs GmbH                                   : IRC, NEB, NEB-TS, DLPNO-Multilevel, CI-OPT
                                                   MM, QMMM, 2- and 3-layer-ONIOM, Crystal-QMMM,
                                                   LR-CPCM, SF, NACMEs, symmetry and pop. for TD-DFT,
                                                   nearIR, NL-DFT gradient (VV10), updates on ESD,
                                                   ML-optimized integration grids
   S Lehtola, MJT Oliveira, MAL Marques          : LibXC Library
   Liviu Ungur et al                             : ANISO software


 Your calculation uses the libint2 library for the computation of 2-el integrals
 For citations please refer to: http://libint.valeyev.net

 Your ORCA version has been built with support for libXC version: 5.1.0
 For citations please refer to: https://tddft.org/programs/libxc/

 This ORCA versions uses:
   CBLAS   interface :  Fast vector & matrix operations
   LAPACKE interface :  Fast linear algebra routines
   SCALAPACK package :  Parallel linear algebra routines
   Shared memory     :  Shared parallel matrices
   BLAS/LAPACK       :  OpenBLAS 0.3.15  USE64BITINT DYNAMIC_ARCH NO_AFFINITY SkylakeX SINGLE_THREADED
        Core in use  :  SkylakeX
   Copyright (c) 2011-2014, The OpenBLAS Project




***************************************
The coordinates will be read from file: /users/fjb15167/WWenergy/structures/Nfe.xyz
***************************************


Your calculation utilizes the atom-pairwise dispersion correction
based on tight binding partial charges (D4)
Cite in your paper:
E.Caldeweyher, C.Bannwarth, S.Grimme, J.Chem.Phys., (2017), 147, 034112.
E.Caldeweyher, S.Ehlert, A.Hansen, H.Neugebauer, S.Grimme, J.Chem.Phys., (2018), in progress.
   

================================================================================

----- Orbital basis set information -----
Your calculation utilizes the basis: 6-31G(d)
   H-He, Li-Ne : W. J. Hehre, R. Ditchfield and J.A. Pople, J. Chem. Phys. 56, 2257 (1972).
                 Note: He and Ne are unpublished basis sets taken from the Gaussian program.
                 Note: Li and B from J. D. Dill and J. A. Pople, J. Chem. Phys. 62, 2921 (1975).
   Na - Ar     : M. M. Francl, W. J. Pietro, W. J. Hehre, J. S. Binkley, M. S. Gordon, 
                 D. J. DeFrees and J. A. Pople, J. Chem. Phys. 77, 3654 (1982).
   K - Zn      : V. A. Rassolov, J. A. Pople, M. A. Ratner, and T. L. Windus, J. Chem. Phys. 109, 1223 (1998).

----- AuxJ basis set information -----
Your calculation utilizes the AutoAux generation procedure.
  G. L. Stoychev, A. A. Auer, F. Neese, J. Chem. Theory Comput. 13, 554 (2017)

----- AuxC basis set information -----
Your calculation utilizes the AutoAux generation procedure.
  G. L. Stoychev, A. A. Auer, F. Neese, J. Chem. Theory Comput. 13, 554 (2017)

----- AuxJK basis set information -----
Your calculation utilizes the AutoAux generation procedure.
  G. L. Stoychev, A. A. Auer, F. Neese, J. Chem. Theory Comput. 13, 554 (2017)

================================================================================
                                        WARNINGS
                       Please study these warnings very carefully!
================================================================================


WARNING: Geometry Optimization
  ===> : Switching off AutoStart
         For restart on a previous wavefunction, please use MOREAD

INFO   : the flag for use of the SHARK integral package has been found!

================================================================================
                                       INPUT FILE
================================================================================
NAME = Nfe_gas.inp
|  1> ! OPT FREQ B3LYP 6-31G(d) D4 AUTOAUX
|  2> 
|  3> %PAL NPROCS 4 END
|  4> 
|  5> %maxcore 3375
|  6> 
|  7> *xyzfile 0 1 /users/fjb15167/WWenergy/structures/Nfe.xyz
|  8> 
|  9>                          ****END OF INPUT****
================================================================================

                       *****************************
                       * Geometry Optimization Run *
                       *****************************

Geometry optimization settings:
Update method            Update   .... BFGS
Choice of coordinates    CoordSys .... Z-matrix Internals
Initial Hessian          InHess   .... Almoef's Model

Convergence Tolerances:
Energy Change            TolE     ....  5.0000e-06 Eh
Max. Gradient            TolMAXG  ....  3.0000e-04 Eh/bohr
RMS Gradient             TolRMSG  ....  1.0000e-04 Eh/bohr
Max. Displacement        TolMAXD  ....  4.0000e-03 bohr
RMS Displacement         TolRMSD  ....  2.0000e-03 bohr
Strict Convergence                ....  False
------------------------------------------------------------------------------
                        ORCA OPTIMIZATION COORDINATE SETUP
------------------------------------------------------------------------------

The optimization will be done in new redundant internal coordinates
Making redundant internal coordinates   ...  (new redundants) done
Evaluating the initial hessian          ...  (Almloef) done
Evaluating the coordinates              ...  done
Calculating the B-matrix                .... done
Calculating the G-matrix                .... done
Diagonalizing the G-matrix              .... done
Small eigenvalue found = 2.790e-03
Small eigenvalue found = 4.893e-03
Small eigenvalue found = 7.091e-03
Small eigenvalue found = 1.154e-02
Small eigenvalue found = 2.025e-02
Small eigenvalue found = 2.221e-02
Small eigenvalue found = 2.860e-02
The first mode is                       ....   79
The number of degrees of freedom        ....  108

    -----------------------------------------------------------------
                    Redundant Internal Coordinates


    -----------------------------------------------------------------
         Definition                    Initial Value    Approx d2E/dq
    -----------------------------------------------------------------
      1. B(H   1,C   0)                  1.0928         0.356441   
      2. B(H   2,C   0)                  1.0946         0.354056   
      3. B(H   3,C   0)                  1.0888         0.361722   
      4. B(C   4,C   0)                  1.5153         0.394285   
      5. B(O   5,C   4)                  1.2395         0.972698   
      6. B(N   6,C   4)                  1.3726         0.596508   
      7. B(C   7,N   6)                  1.4604         0.432146   
      8. B(H   8,C   7)                  1.0946         0.354030   
      9. B(H   9,C   7)                  1.0903         0.359684   
     10. B(C  10,N   6)                  1.4613         0.430617   
     11. B(H  11,C  10)                  1.0941         0.354660   
     12. B(H  12,C  10)                  1.0946         0.354011   
     13. B(C  13,C  10)                  1.5371         0.363951   
     14. B(H  14,C  13)                  1.0940         0.354808   
     15. B(H  15,C  13)                  1.0968         0.351192   
     16. B(C  16,C  13)                  1.5049         0.409643   
     17. B(C  17,C  16)                  1.4032         0.595164   
     18. B(C  18,C  16)                  1.3997         0.603000   
     19. B(C  19,C  17)                  1.3959         0.611443   
     20. B(H  20,C  17)                  1.0895         0.360777   
     21. B(C  21,C  18)                  1.3968         0.609339   
     22. B(H  22,C  18)                  1.0892         0.361197   
     23. B(C  23,C  21)                  1.3964         0.610198   
     24. B(C  23,C  19)                  1.3975         0.607865   
     25. B(H  24,C  19)                  1.0884         0.362279   
     26. B(H  25,C  21)                  1.0880         0.362703   
     27. B(H  26,C  23)                  1.0867         0.364517   
     28. B(C  27,C   7)                  1.5258         0.379368   
     29. B(N  28,C  27)                  1.3644         0.614883   
     30. B(O  29,C  27)                  1.2415         0.965626   
     31. B(C  30,N  28)                  1.4548         0.441003   
     32. B(H  31,C  30)                  1.0977         0.350090   
     33. B(H  32,C  30)                  1.0953         0.353186   
     34. B(H  33,C  30)                  1.0882         0.362537   
     35. B(C  34,N  28)                  1.4554         0.440057   
     36. B(H  35,C  34)                  1.0983         0.349329   
     37. B(H  36,C  34)                  1.0879         0.362883   
     38. B(H  37,C  34)                  1.0933         0.355712   
     39. A(H   3,C   0,C   4)          107.2091         0.327453   
     40. A(H   2,C   0,H   3)          108.8619         0.290272   
     41. A(H   2,C   0,C   4)          110.7417         0.326299   
     42. A(H   1,C   0,H   3)          109.5021         0.290578   
     43. A(H   1,C   0,C   4)          112.4604         0.326660   
     44. A(H   1,C   0,H   2)          108.0134         0.289603   
     45. A(O   5,C   4,N   6)          122.0134         0.461561   
     46. A(C   0,C   4,N   6)          116.9811         0.395213   
     47. A(C   0,C   4,O   5)          121.0012         0.431049   
     48. A(C   4,N   6,C  10)          124.7615         0.398813   
     49. A(C   4,N   6,C   7)          119.0979         0.399061   
     50. A(C   7,N   6,C  10)          116.0491         0.377015   
     51. A(H   8,C   7,H   9)          109.0230         0.290012   
     52. A(H   9,C   7,C  27)          113.6679         0.325078   
     53. A(N   6,C   7,H   9)          107.9814         0.330141   
     54. A(N   6,C   7,H   8)          109.6465         0.329278   
     55. A(H   8,C   7,C  27)          105.3640         0.324233   
     56. A(N   6,C   7,C  27)          111.0916         0.371194   
     57. A(H  12,C  10,C  13)          108.7341         0.322032   
     58. A(H  11,C  10,C  13)          109.9603         0.322128   
     59. A(N   6,C  10,C  13)          113.6969         0.368333   
     60. A(H  11,C  10,H  12)          107.0560         0.289370   
     61. A(N   6,C  10,H  12)          106.9181         0.329082   
     62. A(N   6,C  10,H  11)          110.2091         0.329182   
     63. A(H  15,C  13,C  16)          110.5010         0.327921   
     64. A(H  14,C  13,C  16)          109.8792         0.328476   
     65. A(C  10,C  13,C  16)          110.3713         0.367485   
     66. A(H  14,C  13,H  15)          107.2067         0.289027   
     67. A(C  10,C  13,H  15)          109.8757         0.321610   
     68. A(C  10,C  13,H  14)          108.9400         0.322150   
     69. A(C  17,C  16,C  18)          119.1049         0.428743   
     70. A(C  13,C  16,C  18)          121.4998         0.401199   
     71. A(C  13,C  16,C  17)          119.3163         0.400276   
     72. A(C  16,C  17,C  19)          120.3258         0.429814   
     73. A(C  19,C  17,H  20)          120.5197         0.352192   
     74. A(C  16,C  17,H  20)          119.1538         0.350589   
     75. A(C  21,C  18,H  22)          119.8331         0.352056   
     76. A(C  16,C  18,H  22)          119.6003         0.351434   
     77. A(C  16,C  18,C  21)          120.5572         0.430558   
     78. A(C  23,C  19,H  24)          120.0359         0.352090   
     79. A(C  17,C  19,H  24)          119.7384         0.352440   
     80. A(C  17,C  19,C  23)          120.2255         0.431447   
     81. A(C  23,C  21,H  25)          120.0714         0.352388   
     82. A(C  18,C  21,H  25)          119.8691         0.352304   
     83. A(C  18,C  21,C  23)          120.0593         0.431476   
     84. A(C  21,C  23,H  26)          120.0991         0.352685   
     85. A(C  19,C  23,H  26)          120.1783         0.352457   
     86. A(C  19,C  23,C  21)          119.7211         0.431289   
     87. A(N  28,C  27,O  29)          122.7340         0.463509   
     88. A(C   7,C  27,O  29)          119.2301         0.427517   
     89. A(C   7,C  27,N  28)          118.0156         0.394643   
     90. A(C  30,N  28,C  34)          115.4460         0.379764   
     91. A(C  27,N  28,C  34)          118.1948         0.402482   
     92. A(C  27,N  28,C  30)          125.1468         0.402635   
     93. A(H  32,C  30,H  33)          108.7774         0.290263   
     94. A(H  31,C  30,H  33)          108.4786         0.289862   
     95. A(N  28,C  30,H  33)          111.9470         0.331685   
     96. A(H  31,C  30,H  32)          108.2516         0.288677   
     97. A(N  28,C  30,H  32)          109.0128         0.330253   
     98. A(N  28,C  30,H  31)          110.2910         0.329773   
     99. A(H  35,C  34,H  36)          109.2772         0.289806   
    100. A(N  28,C  34,H  36)          108.6415         0.331619   
    101. A(N  28,C  34,H  35)          110.7795         0.329538   
    102. A(H  36,C  34,H  37)          110.2430         0.290631   
    103. A(H  35,C  34,H  37)          108.6550         0.288901   
    104. A(N  28,C  34,H  37)          109.2410         0.330526   
    105. D(N   6,C   4,C   0,H   2)    -67.9334         0.011553   
    106. D(O   5,C   4,C   0,H   1)   -127.7172         0.011553   
    107. D(N   6,C   4,C   0,H   1)     53.0219         0.011553   
    108. D(O   5,C   4,C   0,H   2)    111.3274         0.011553   
    109. D(O   5,C   4,C   0,H   3)     -7.3051         0.011553   
    110. D(N   6,C   4,C   0,H   3)    173.4341         0.011553   
    111. D(C   7,N   6,C   4,O   5)     -5.5981         0.028648   
    112. D(C  10,N   6,C   4,C   0)     -2.7224         0.028648   
    113. D(C  10,N   6,C   4,O   5)    178.0248         0.028648   
    114. D(C   7,N   6,C   4,C   0)    173.6547         0.028648   
    115. D(C  27,C   7,N   6,C   4)    127.0918         0.015922   
    116. D(H   8,C   7,N   6,C   4)   -116.8538         0.015922   
    117. D(H   9,C   7,N   6,C  10)    178.5018         0.015922   
    118. D(H   8,C   7,N   6,C  10)     59.8337         0.015922   
    119. D(H   9,C   7,N   6,C   4)      1.8143         0.015922   
    120. D(C  27,C   7,N   6,C  10)    -56.2207         0.015922   
    121. D(C  13,C  10,N   6,C   7)     95.3058         0.015809   
    122. D(C  13,C  10,N   6,C   4)    -88.2177         0.015809   
    123. D(H  12,C  10,N   6,C   7)    -24.7020         0.015809   
    124. D(H  11,C  10,N   6,C   7)   -140.7199         0.015809   
    125. D(H  11,C  10,N   6,C   4)     35.7567         0.015809   
    126. D(H  12,C  10,N   6,C   4)    151.7745         0.015809   
    127. D(C  16,C  13,C  10,N   6)   -167.5611         0.010611   
    128. D(C  16,C  13,C  10,H  11)     68.3299         0.010611   
    129. D(H  15,C  13,C  10,H  12)   -170.6923         0.010611   
    130. D(H  15,C  13,C  10,H  11)    -53.7764         0.010611   
    131. D(H  15,C  13,C  10,N   6)     70.3326         0.010611   
    132. D(H  14,C  13,C  10,H  12)     72.1386         0.010611   
    133. D(H  14,C  13,C  10,H  11)   -170.9456         0.010611   
    134. D(C  16,C  13,C  10,H  12)    -48.5859         0.010611   
    135. D(H  14,C  13,C  10,N   6)    -46.8366         0.010611   
    136. D(C  18,C  16,C  13,H  15)     23.4578         0.012429   
    137. D(C  18,C  16,C  13,H  14)    141.5590         0.012429   
    138. D(C  18,C  16,C  13,C  10)    -98.2796         0.012429   
    139. D(C  17,C  16,C  13,H  15)   -159.8029         0.012429   
    140. D(C  17,C  16,C  13,H  14)    -41.7016         0.012429   
    141. D(C  17,C  16,C  13,C  10)     78.4598         0.012429   
    142. D(H  20,C  17,C  16,C  18)    179.4997         0.024398   
    143. D(H  20,C  17,C  16,C  13)      2.6815         0.024398   
    144. D(C  19,C  17,C  16,C  18)     -0.8024         0.024398   
    145. D(C  19,C  17,C  16,C  13)   -177.6206         0.024398   
    146. D(H  22,C  18,C  16,C  17)    179.7590         0.025080   
    147. D(H  22,C  18,C  16,C  13)     -3.4949         0.025080   
    148. D(C  21,C  18,C  16,C  17)      0.8733         0.025080   
    149. D(C  21,C  18,C  16,C  13)    177.6193         0.025080   
    150. D(H  24,C  19,C  17,H  20)      0.0771         0.025828   
    151. D(H  24,C  19,C  17,C  16)   -179.6167         0.025828   
    152. D(C  23,C  19,C  17,H  20)   -179.7916         0.025828   
    153. D(C  23,C  19,C  17,C  16)      0.5147         0.025828   
    154. D(H  25,C  21,C  18,H  22)      0.6333         0.025640   
    155. D(H  25,C  21,C  18,C  16)    179.5165         0.025640   
    156. D(C  23,C  21,C  18,H  22)   -179.5377         0.025640   
    157. D(C  23,C  21,C  18,C  16)     -0.6545         0.025640   
    158. D(H  26,C  23,C  21,H  25)     -0.2635         0.025717   
    159. D(H  26,C  23,C  21,C  18)    179.9079         0.025717   
    160. D(C  19,C  23,C  21,H  25)   -179.8187         0.025717   
    161. D(C  19,C  23,C  21,C  18)      0.3527         0.025717   
    162. D(H  26,C  23,C  19,H  24)      0.2923         0.025509   
    163. D(H  26,C  23,C  19,C  17)   -179.8394         0.025509   
    164. D(C  21,C  23,C  19,H  24)    179.8471         0.025509   
    165. D(C  21,C  23,C  19,C  17)     -0.2846         0.025509   
    166. D(N  28,C  27,C   7,H   8)    163.0618         0.010742   
    167. D(N  28,C  27,C   7,N   6)    -78.2728         0.010742   
    168. D(O  29,C  27,C   7,H   9)   -137.8403         0.010742   
    169. D(O  29,C  27,C   7,H   8)    -18.5323         0.010742   
    170. D(O  29,C  27,C   7,N   6)    100.1331         0.010742   
    171. D(N  28,C  27,C   7,H   9)     43.7538         0.010742   
    172. D(C  34,N  28,C  27,O  29)     -2.9836         0.030576   
    173. D(C  34,N  28,C  27,C   7)    175.3626         0.030576   
    174. D(C  30,N  28,C  27,O  29)   -169.7945         0.030576   
    175. D(C  30,N  28,C  27,C   7)      8.5518         0.030576   
    176. D(H  33,C  30,N  28,C  34)    176.4249         0.016584   
    177. D(H  33,C  30,N  28,C  27)    -16.4426         0.016584   
    178. D(H  32,C  30,N  28,C  34)     56.0328         0.016584   
    179. D(H  32,C  30,N  28,C  27)   -136.8347         0.016584   
    180. D(H  31,C  30,N  28,C  34)    -62.6906         0.016584   
    181. D(H  31,C  30,N  28,C  27)    104.4419         0.016584   
    182. D(H  37,C  34,N  28,C  30)    -52.3203         0.016513   
    183. D(H  37,C  34,N  28,C  27)    139.6034         0.016513   
    184. D(H  36,C  34,N  28,C  30)   -172.6192         0.016513   
    185. D(H  36,C  34,N  28,C  27)     19.3046         0.016513   
    186. D(H  35,C  34,N  28,C  30)     67.3368         0.016513   
    187. D(H  35,C  34,N  28,C  27)   -100.7394         0.016513   
    -----------------------------------------------------------------

Number of atoms                         .... 38
Number of degrees of freedom            .... 187

         *************************************************************
         *                GEOMETRY OPTIMIZATION CYCLE   1            *
         *************************************************************
---------------------------------
CARTESIAN COORDINATES (ANGSTROEM)
---------------------------------
  C     -1.531000    3.230000   -0.350000
  H     -0.755000    2.993000   -1.082000
  H     -1.065000    3.787000    0.469000
  H     -2.290000    3.857000   -0.815000
  C     -2.231000    1.992000    0.173000
  O     -3.467000    1.901000    0.153000
  N     -1.436000    0.994000    0.679000
  C     -2.064000   -0.157000    1.322000
  H     -1.771000   -0.195000    2.376000
  H     -3.145000   -0.030000    1.258000
  C      0.025000    1.020000    0.695000
  H      0.383000    2.039000    0.870000
  H      0.345000    0.416000    1.550000
  C      0.667000    0.450000   -0.580000
  H      0.181000   -0.498000   -0.829000
  H      0.496000    1.133000   -1.421000
  C      2.141000    0.230000   -0.371000
  C      2.573000   -0.900000    0.340000
  C      3.089000    1.161000   -0.811000
  C      3.932000   -1.099000    0.589000
  H      1.835000   -1.621000    0.690000
  C      4.449000    0.961000   -0.563000
  H      2.763000    2.039000   -1.367000
  C      4.873000   -0.168000    0.141000
  H      4.257000   -1.982000    1.136000
  H      5.177000    1.688000   -0.917000
  H      5.931000   -0.325000    0.333000
  C     -1.564000   -1.465000    0.716000
  N     -2.083000   -1.855000   -0.484000
  O     -0.688000   -2.113000    1.311000
  C     -2.948000   -1.043000   -1.326000
  H     -2.386000   -0.652000   -2.184000
  H     -3.764000   -1.667000   -1.706000
  H     -3.374000   -0.203000   -0.781000
  C     -1.536000   -3.047000   -1.115000
  H     -0.828000   -2.777000   -1.910000
  H     -1.020000   -3.635000   -0.359000
  H     -2.351000   -3.628000   -1.555000

----------------------------
CARTESIAN COORDINATES (A.U.)
----------------------------
  NO LB      ZA    FRAG     MASS         X           Y           Z
   0 C     6.0000    0    12.011   -2.893171    6.103815   -0.661404
   1 H     1.0000    0     1.008   -1.426743    5.655950   -2.044684
   2 H     1.0000    0     1.008   -2.012558    7.156393    0.886282
   3 H     1.0000    0     1.008   -4.327473    7.288674   -1.540127
   4 C     6.0000    0    12.011   -4.215979    3.764334    0.326923
   5 O     8.0000    0    15.999   -6.551681    3.592369    0.289128
   6 N     7.0000    0    14.007   -2.713647    1.878388    1.283124
   7 C     6.0000    0    12.011   -3.900395   -0.296687    2.498218
   8 H     1.0000    0     1.008   -3.346705   -0.368497    4.489989
   9 H     1.0000    0     1.008   -5.943189   -0.056692    2.377275
  10 C     6.0000    0    12.011    0.047243    1.927521    1.313360
  11 H     1.0000    0     1.008    0.723765    3.853152    1.644062
  12 H     1.0000    0     1.008    0.651956    0.786126    2.929076
  13 C     6.0000    0    12.011    1.260447    0.850377   -1.096041
  14 H     1.0000    0     1.008    0.342040   -0.941084   -1.566583
  15 H     1.0000    0     1.008    0.937304    2.141060   -2.685301
  16 C     6.0000    0    12.011    4.045904    0.434637   -0.701088
  17 C     6.0000    0    12.011    4.862265   -1.700754    0.642507
  18 C     6.0000    0    12.011    5.837364    2.193972   -1.532568
  19 C     6.0000    0    12.011    7.430403   -2.076809    1.113049
  20 H     1.0000    0     1.008    3.467647   -3.063246    1.303911
  21 C     6.0000    0    12.011    8.407392    1.816027   -1.063916
  22 H     1.0000    0     1.008    5.221313    3.853152   -2.583256
  23 C     6.0000    0    12.011    9.208635   -0.317474    0.266451
  24 H     1.0000    0     1.008    8.044564   -3.745437    2.146729
  25 H     1.0000    0     1.008    9.783112    3.189858   -1.732879
  26 H     1.0000    0     1.008   11.207966   -0.614161    0.629279
  27 C     6.0000    0    12.011   -2.955532   -2.768449    1.353044
  28 N     7.0000    0    14.007   -3.936300   -3.505442   -0.914627
  29 O     8.0000    0    15.999   -1.300132   -3.992991    2.477431
  30 C     6.0000    0    12.011   -5.570913   -1.970984   -2.505777
  31 H     1.0000    0     1.008   -4.508887   -1.232101   -4.127162
  32 H     1.0000    0     1.008   -7.112929   -3.150173   -3.223873
  33 H     1.0000    0     1.008   -6.375936   -0.383614   -1.475876
  34 C     6.0000    0    12.011   -2.902619   -5.757996   -2.107045
  35 H     1.0000    0     1.008   -1.564693   -5.247769   -3.609377
  36 H     1.0000    0     1.008   -1.927521   -6.869154   -0.678412
  37 H     1.0000    0     1.008   -4.442746   -6.855926   -2.938524

--------------------------------
INTERNAL COORDINATES (ANGSTROEM)
--------------------------------
 C      0   0   0     0.000000000000     0.00000000     0.00000000
 H      1   0   0     1.092780398799     0.00000000     0.00000000
 H      1   2   0     1.094607692281   108.01336878     0.00000000
 H      1   2   3     1.088776836638   109.50212553   118.41189973
 C      1   2   3     1.515312838987   112.46041576   237.49262217
 O      5   1   2     1.239506756738   121.00116116   232.28277195
 N      5   1   2     1.372612472623   116.98114940    53.02193674
 C      7   5   1     1.460354066656   119.09792699   173.65467969
 H      8   7   5     1.094627333845   109.64650327   243.14616047
 H      8   7   5     1.090314633489   107.98138976     1.81433338
 C      7   5   1     1.461318924807   124.76145528   357.27758679
 H     11   7   5     1.094143500643   110.20905974    35.75666837
 H     11   7   5     1.094641950594   106.91806952   151.77454400
 C     11   7   5     1.537104095369   113.69685729   271.78229893
 H     14  11   7     1.094029707092   108.94002641   313.16341768
 H     14  11   7     1.096818581170   109.87574393    70.33256704
 C     14  11   7     1.504910960821   110.37131591   192.43893045
 C     17  14  11     1.403226638858   119.31626786    78.45979326
 C     17  14  11     1.399666031595   121.49984879   261.72043173
 C     18  17  14     1.395880725564   120.32575403   182.37943751
 H     18  17  14     1.089488412054   119.15383801     2.68151109
 C     19  17  14     1.396819243854   120.55721451   177.61933750
 H     19  17  14     1.089172162700   119.60029598   356.50508403
 C     22  19  17     1.396435820222   120.05929924   359.34546716
 H     20  18  17     1.088357937445   119.73844673   180.38333347
 H     22  19  17     1.088039061799   119.86910101   179.51650767
 H     24  22  19     1.086681646114   120.09912266   179.90789498
 C      8   7   5     1.525811259626   111.09162781   127.09179410
 N     28   8   7     1.364353693146   118.01556655   281.72716174
 O     28   8   7     1.241493052739   119.23012265   100.13308888
 C     29  28   8     1.454830918011   125.14675513     8.55176574
 H     31  29  28     1.097674359726   110.29104265   104.44186090
 H     31  29  28     1.095277133880   109.01284257   223.16528166
 H     31  29  28     1.088164050132   111.94701205   343.55741427
 C     29  28   8     1.455415404618   118.19483674   175.36264014
 H     35  29  28     1.098266361135   110.77952706   259.26057754
 H     35  29  28     1.087904407565   108.64150255    19.30455332
 H     35  29  28     1.093337093489   109.24098343   139.60344256

---------------------------
INTERNAL COORDINATES (A.U.)
---------------------------
 C      0   0   0     0.000000000000     0.00000000     0.00000000
 H      1   0   0     2.065055678248     0.00000000     0.00000000
 H      1   2   0     2.068508762494   108.01336878     0.00000000
 H      1   2   3     2.057490042203   109.50212553   118.41189973
 C      1   2   3     2.863526272901   112.46041576   237.49262217
 O      5   1   2     2.342328311380   121.00116116   232.28277195
 N      5   1   2     2.593861661262   116.98114940    53.02193674
 C      7   5   1     2.759669244539   119.09792699   173.65467969
 H      8   7   5     2.068545879671   109.64650327   243.14616047
 H      8   7   5     2.060396057101   107.98138976     1.81433338
 C      7   5   1     2.761492562202   124.76145528   357.27758679
 H     11   7   5     2.067631567426   110.20905974    35.75666837
 H     11   7   5     2.068573501324   106.91806952   151.77454400
 C     11   7   5     2.904705779576   113.69685729   271.78229893
 H     14  11   7     2.067416528778   108.94002641   313.16341768
 H     14  11   7     2.072686737008   109.87574393    70.33256704
 C     14  11   7     2.843869571888   110.37131591   192.43893045
 C     17  14  11     2.651714051264   119.31626786    78.45979326
 C     17  14  11     2.644985478666   121.49984879   261.72043173
 C     18  17  14     2.637832286935   120.32575403   182.37943751
 H     18  17  14     2.058834724863   119.15383801     2.68151109
 C     19  17  14     2.639605829474   120.55721451   177.61933750
 H     19  17  14     2.058237100193   119.60029598   356.50508403
 C     22  19  17     2.638881263818   120.05929924   359.34546716
 H     20  18  17     2.056698437451   119.73844673   180.38333347
 H     22  19  17     2.056095849808   119.86910101   179.51650767
 H     24  22  19     2.053530705913   120.09912266   179.90789498
 C      8   7   5     2.883365412746   111.09162781   127.09179410
 N     28   8   7     2.578254829849   118.01556655   281.72716174
 O     28   8   7     2.346081866843   119.23012265   100.13308888
 C     29  28   8     2.749232006202   125.14675513     8.55176574
 H     31  29  28     2.074303924110   110.29104265   104.44186090
 H     31  29  28     2.069773823779   109.01284257   223.16528166
 H     31  29  28     2.056332043528   111.94701205   343.55741427
 C     29  28   8     2.750336525819   118.19483674   175.36264014
 H     35  29  28     2.075422644643   110.77952706   259.26057754
 H     35  29  28     2.055841390184   108.64150255    19.30455332
 H     35  29  28     2.066107678753   109.24098343   139.60344256

---------------------
BASIS SET INFORMATION
---------------------
There are 4 groups of distinct atoms

 Group   1 Type C   : 10s4p1d contracted to 3s2p1d pattern {631/31/1}
 Group   2 Type H   : 4s contracted to 2s pattern {31}
 Group   3 Type O   : 10s4p1d contracted to 3s2p1d pattern {631/31/1}
 Group   4 Type N   : 10s4p1d contracted to 3s2p1d pattern {631/31/1}

Atom   0C    basis set group =>   1
Atom   1H    basis set group =>   2
Atom   2H    basis set group =>   2
Atom   3H    basis set group =>   2
Atom   4C    basis set group =>   1
Atom   5O    basis set group =>   3
Atom   6N    basis set group =>   4
Atom   7C    basis set group =>   1
Atom   8H    basis set group =>   2
Atom   9H    basis set group =>   2
Atom  10C    basis set group =>   1
Atom  11H    basis set group =>   2
Atom  12H    basis set group =>   2
Atom  13C    basis set group =>   1
Atom  14H    basis set group =>   2
Atom  15H    basis set group =>   2
Atom  16C    basis set group =>   1
Atom  17C    basis set group =>   1
Atom  18C    basis set group =>   1
Atom  19C    basis set group =>   1
Atom  20H    basis set group =>   2
Atom  21C    basis set group =>   1
Atom  22H    basis set group =>   2
Atom  23C    basis set group =>   1
Atom  24H    basis set group =>   2
Atom  25H    basis set group =>   2
Atom  26H    basis set group =>   2
Atom  27C    basis set group =>   1
Atom  28N    basis set group =>   4
Atom  29O    basis set group =>   3
Atom  30C    basis set group =>   1
Atom  31H    basis set group =>   2
Atom  32H    basis set group =>   2
Atom  33H    basis set group =>   2
Atom  34C    basis set group =>   1
Atom  35H    basis set group =>   2
Atom  36H    basis set group =>   2
Atom  37H    basis set group =>   2
---------------------------------
AUXILIARY/J BASIS SET INFORMATION
---------------------------------
There are 4 groups of distinct atoms

 Group   1 Type C   : 13s11p10d2f contracted to 13s11p10d2f pattern {1111111111111/11111111111/1111111111/11}
 Group   2 Type H   : 9s2p contracted to 9s2p pattern {111111111/11}
 Group   3 Type O   : 14s11p10d2f contracted to 14s11p10d2f pattern {11111111111111/11111111111/1111111111/11}
 Group   4 Type N   : 14s11p10d2f contracted to 14s11p10d2f pattern {11111111111111/11111111111/1111111111/11}

Atom   0C    basis set group =>   1
Atom   1H    basis set group =>   2
Atom   2H    basis set group =>   2
Atom   3H    basis set group =>   2
Atom   4C    basis set group =>   1
Atom   5O    basis set group =>   3
Atom   6N    basis set group =>   4
Atom   7C    basis set group =>   1
Atom   8H    basis set group =>   2
Atom   9H    basis set group =>   2
Atom  10C    basis set group =>   1
Atom  11H    basis set group =>   2
Atom  12H    basis set group =>   2
Atom  13C    basis set group =>   1
Atom  14H    basis set group =>   2
Atom  15H    basis set group =>   2
Atom  16C    basis set group =>   1
Atom  17C    basis set group =>   1
Atom  18C    basis set group =>   1
Atom  19C    basis set group =>   1
Atom  20H    basis set group =>   2
Atom  21C    basis set group =>   1
Atom  22H    basis set group =>   2
Atom  23C    basis set group =>   1
Atom  24H    basis set group =>   2
Atom  25H    basis set group =>   2
Atom  26H    basis set group =>   2
Atom  27C    basis set group =>   1
Atom  28N    basis set group =>   4
Atom  29O    basis set group =>   3
Atom  30C    basis set group =>   1
Atom  31H    basis set group =>   2
Atom  32H    basis set group =>   2
Atom  33H    basis set group =>   2
Atom  34C    basis set group =>   1
Atom  35H    basis set group =>   2
Atom  36H    basis set group =>   2
Atom  37H    basis set group =>   2
---------------------------------
AUXILIARY/C BASIS SET INFORMATION
---------------------------------
There are 4 groups of distinct atoms

 Group   1 Type C   : 13s11p10d2f contracted to 13s11p10d2f pattern {1111111111111/11111111111/1111111111/11}
 Group   2 Type H   : 9s2p contracted to 9s2p pattern {111111111/11}
 Group   3 Type O   : 14s11p10d2f contracted to 14s11p10d2f pattern {11111111111111/11111111111/1111111111/11}
 Group   4 Type N   : 14s11p10d2f contracted to 14s11p10d2f pattern {11111111111111/11111111111/1111111111/11}

Atom   0C    basis set group =>   1
Atom   1H    basis set group =>   2
Atom   2H    basis set group =>   2
Atom   3H    basis set group =>   2
Atom   4C    basis set group =>   1
Atom   5O    basis set group =>   3
Atom   6N    basis set group =>   4
Atom   7C    basis set group =>   1
Atom   8H    basis set group =>   2
Atom   9H    basis set group =>   2
Atom  10C    basis set group =>   1
Atom  11H    basis set group =>   2
Atom  12H    basis set group =>   2
Atom  13C    basis set group =>   1
Atom  14H    basis set group =>   2
Atom  15H    basis set group =>   2
Atom  16C    basis set group =>   1
Atom  17C    basis set group =>   1
Atom  18C    basis set group =>   1
Atom  19C    basis set group =>   1
Atom  20H    basis set group =>   2
Atom  21C    basis set group =>   1
Atom  22H    basis set group =>   2
Atom  23C    basis set group =>   1
Atom  24H    basis set group =>   2
Atom  25H    basis set group =>   2
Atom  26H    basis set group =>   2
Atom  27C    basis set group =>   1
Atom  28N    basis set group =>   4
Atom  29O    basis set group =>   3
Atom  30C    basis set group =>   1
Atom  31H    basis set group =>   2
Atom  32H    basis set group =>   2
Atom  33H    basis set group =>   2
Atom  34C    basis set group =>   1
Atom  35H    basis set group =>   2
Atom  36H    basis set group =>   2
Atom  37H    basis set group =>   2
----------------------------------
AUXILIARY/JK BASIS SET INFORMATION
----------------------------------
There are 4 groups of distinct atoms

 Group   1 Type C   : 13s11p10d2f contracted to 13s11p10d2f pattern {1111111111111/11111111111/1111111111/11}
 Group   2 Type H   : 9s2p contracted to 9s2p pattern {111111111/11}
 Group   3 Type O   : 14s11p10d2f contracted to 14s11p10d2f pattern {11111111111111/11111111111/1111111111/11}
 Group   4 Type N   : 14s11p10d2f contracted to 14s11p10d2f pattern {11111111111111/11111111111/1111111111/11}

Atom   0C    basis set group =>   1
Atom   1H    basis set group =>   2
Atom   2H    basis set group =>   2
Atom   3H    basis set group =>   2
Atom   4C    basis set group =>   1
Atom   5O    basis set group =>   3
Atom   6N    basis set group =>   4
Atom   7C    basis set group =>   1
Atom   8H    basis set group =>   2
Atom   9H    basis set group =>   2
Atom  10C    basis set group =>   1
Atom  11H    basis set group =>   2
Atom  12H    basis set group =>   2
Atom  13C    basis set group =>   1
Atom  14H    basis set group =>   2
Atom  15H    basis set group =>   2
Atom  16C    basis set group =>   1
Atom  17C    basis set group =>   1
Atom  18C    basis set group =>   1
Atom  19C    basis set group =>   1
Atom  20H    basis set group =>   2
Atom  21C    basis set group =>   1
Atom  22H    basis set group =>   2
Atom  23C    basis set group =>   1
Atom  24H    basis set group =>   2
Atom  25H    basis set group =>   2
Atom  26H    basis set group =>   2
Atom  27C    basis set group =>   1
Atom  28N    basis set group =>   4
Atom  29O    basis set group =>   3
Atom  30C    basis set group =>   1
Atom  31H    basis set group =>   2
Atom  32H    basis set group =>   2
Atom  33H    basis set group =>   2
Atom  34C    basis set group =>   1
Atom  35H    basis set group =>   2
Atom  36H    basis set group =>   2
Atom  37H    basis set group =>   2


           ************************************************************
           *        Program running with 4 parallel MPI-processes     *
           *              working on a common directory               *
           ************************************************************
------------------------------------------------------------------------------
                           ORCA GTO INTEGRAL CALCULATION
                           -- RI-GTO INTEGRALS CHOSEN --
------------------------------------------------------------------------------
------------------------------------------------------------------------------
                   ___                                                        
                  /   \      - P O W E R E D   B Y -                         
                 /     \                                                     
                 |  |  |   _    _      __       _____    __    __             
                 |  |  |  | |  | |    /  \     |  _  \  |  |  /  |          
                  \  \/   | |  | |   /    \    | | | |  |  | /  /          
                 / \  \   | |__| |  /  /\  \   | |_| |  |  |/  /          
                |  |  |   |  __  | /  /__\  \  |    /   |      \           
                |  |  |   | |  | | |   __   |  |    \   |  |\   \          
                \     /   | |  | | |  |  |  |  | |\  \  |  | \   \       
                 \___/    |_|  |_| |__|  |__|  |_| \__\ |__|  \__/        
                                                                              
                      - O R C A' S   B I G   F R I E N D -                    
                                      &                                       
                       - I N T E G R A L  F E E D E R -                       
                                                                              
 v1 FN, 2020, v2 2021                                                         
------------------------------------------------------------------------------


Reading SHARK input file Nfe_gas.SHARKINP.tmp ... ok
----------------------
SHARK INTEGRAL PACKAGE
----------------------

Number of atoms                             ...     38
Number of basis functions                   ...    292
Number of shells                            ...    148
Maximum angular momentum                    ...      2
Integral batch strategy                     ... SHARK/LIBINT Hybrid
RI-J (if used) integral strategy            ... SPLIT-RIJ (Revised 2003 algorithm where possible)
Printlevel                                  ...      1
Contraction scheme used                     ... SEGMENTED contraction
Coulomb Range Separation                    ... NOT USED
Exchange Range Separation                   ... NOT USED
Finite Nucleus Model                        ... NOT USED
Auxiliary Coulomb fitting basis             ... AVAILABLE
   # of basis functions in Aux-J            ...   2284
   # of shells in Aux-J                     ...    872
   Maximum angular momentum in Aux-J        ...      3
Auxiliary J/K fitting basis                 ... AVAILABLE
   # of basis functions in Aux-JK           ...   2284
   # of shells in Aux-JK                    ...    872
   Maximum angular momentum in Aux-JK       ...      3
Auxiliary Correlation fitting basis         ... AVAILABLE
   # of basis functions in Aux-C            ...   2284
   # of shells in Aux-C                     ...    872
   Maximum angular momentum in Aux-C        ...      3
Auxiliary 'external' fitting basis          ... NOT available
Integral threshold                          ...     2.500000e-11
Primitive cut-off                           ...     2.500000e-12
Primitive pair pre-selection threshold      ...     2.500000e-12

Calculating pre-screening integrals         ... done (  0.1 sec) Dimension = 148
Organizing shell pair data                  ... done (  0.1 sec)
Shell pair information
Total number of shell pairs                 ...     11026
Shell pairs after pre-screening             ...      8783
Total number of primitive shell pairs       ...     61863
Primitive shell pairs kept                  ...     27668
          la=0 lb=0:   3404 shell pairs
          la=1 lb=0:   2881 shell pairs
          la=1 lb=1:    616 shell pairs
          la=2 lb=0:   1227 shell pairs
          la=2 lb=1:    537 shell pairs
          la=2 lb=2:    118 shell pairs

Calculating one electron integrals          ... done (  0.0 sec)
Calculating RI/J V-Matrix + Cholesky decomp.... done (  0.6 sec)
Calculating RI/JK V-Matrix + Cholesky decomp... done (  0.4 sec)
Calculating RI/C V-Matrix + Cholesky decomp.... done (  0.3 sec)
Calculating Nuclear repulsion               ... done (  0.0 sec) ENN=   1355.550014315197 Eh

SHARK setup successfully completed in   1.8 seconds

Maximum memory used throughout the entire GTOINT-calculation: 44.3 MB


           ************************************************************
           *        Program running with 4 parallel MPI-processes     *
           *              working on a common directory               *
           ************************************************************
-------------------------------------------------------------------------------
                                 ORCA SCF
-------------------------------------------------------------------------------

------------
SCF SETTINGS
------------
Hamiltonian:
 Density Functional     Method          .... DFT(GTOs)
 Exchange Functional    Exchange        .... B88
   X-Alpha parameter    XAlpha          ....  0.666667
   Becke's b parameter  XBeta           ....  0.004200
 Correlation Functional Correlation     .... LYP
 LDA part of GGA corr.  LDAOpt          .... VWN-5
 Gradients option       PostSCFGGA      .... off
 Hybrid DFT is turned on
   Fraction HF Exchange ScalHFX         ....  0.200000
   Scaling of DF-GGA-X  ScalDFX         ....  0.720000
   Scaling of DF-GGA-C  ScalDFC         ....  0.810000
   Scaling of DF-LDA-C  ScalLDAC        ....  1.000000
   Perturbative correction              ....  0.000000
   Density functional embedding theory  .... OFF
   NL short-range parameter             ....  4.800000
 RI-approximation to the Coulomb term is turned on
   Number of AuxJ basis functions       .... 2284
   RIJ-COSX (HFX calculated with COS-X)).... on


General Settings:
 Integral files         IntName         .... Nfe_gas
 Hartree-Fock type      HFTyp           .... RHF
 Total Charge           Charge          ....    0
 Multiplicity           Mult            ....    1
 Number of Electrons    NEL             ....  134
 Basis Dimension        Dim             ....  292
 Nuclear Repulsion      ENuc            ....   1355.5500143152 Eh

Convergence Acceleration:
 DIIS                   CNVDIIS         .... on
   Start iteration      DIISMaxIt       ....    12
   Startup error        DIISStart       ....  0.200000
   # of expansion vecs  DIISMaxEq       ....     5
   Bias factor          DIISBfac        ....   1.050
   Max. coefficient     DIISMaxC        ....  10.000
 Trust-Rad. Augm. Hess. CNVTRAH         .... auto
   Auto Start mean grad. ratio tolernc. ....  1.125000
   Auto Start start iteration           ....    20
   Auto Start num. interpolation iter.  ....    10
   Max. Number of Micro iterations      ....    16
   Max. Number of Macro iterations      .... Maxiter - #DIIS iter
   Number of Davidson start vectors     ....     2
   Converg. threshold I  (grad. norm)   ....   1.000e-05
   Converg. threshold II (energy diff.) ....   1.000e-08
   Grad. Scal. Fac. for Micro threshold ....   0.100
   Minimum threshold for Micro iter.    ....   0.010
   NR start threshold (gradient norm)   ....   0.001
   Initial trust radius                 ....   0.400
   Minimum AH scaling param. (alpha)    ....   1.000
   Maximum AH scaling param. (alpha)    .... 1000.000
   Orbital update algorithm             .... Taylor
   White noise on init. David. guess    .... on
   Maximum white noise                  ....   0.010
   Quad. conv. algorithm                .... NR
 SOSCF                  CNVSOSCF        .... on
   Start iteration      SOSCFMaxIt      ....   150
   Startup grad/error   SOSCFStart      ....  0.003300
 Level Shifting         CNVShift        .... on
   Level shift para.    LevelShift      ....    0.2500
   Turn off err/grad.   ShiftErr        ....    0.0010
 Zerner damping         CNVZerner       .... off
 Static damping         CNVDamp         .... on
   Fraction old density DampFac         ....    0.7000
   Max. Damping (<1)    DampMax         ....    0.9800
   Min. Damping (>=0)   DampMin         ....    0.0000
   Turn off err/grad.   DampErr         ....    0.1000
 Fernandez-Rico         CNVRico         .... off

SCF Procedure:
 Maximum # iterations   MaxIter         ....   125
 SCF integral mode      SCFMode         .... Direct
   Integral package                     .... SHARK and LIBINT hybrid scheme
 Reset frequency        DirectResetFreq ....    20
 Integral Threshold     Thresh          ....  2.500e-11 Eh
 Primitive CutOff       TCut            ....  2.500e-12 Eh

Convergence Tolerance:
 Convergence Check Mode ConvCheckMode   .... Total+1el-Energy
 Convergence forced     ConvForced      .... 0
 Energy Change          TolE            ....  1.000e-08 Eh
 1-El. energy change                    ....  1.000e-05 Eh
 Orbital Gradient       TolG            ....  1.000e-05
 Orbital Rotation angle TolX            ....  1.000e-05
 DIIS Error             TolErr          ....  5.000e-07


Diagonalization of the overlap matrix:
Smallest eigenvalue                        ... 4.758e-04
Time for diagonalization                   ...    0.260 sec
Threshold for overlap eigenvalues          ... 1.000e-08
Number of eigenvalues below threshold      ... 0
Time for construction of square roots      ...    0.009 sec
Total time needed                          ...    0.270 sec

Time for model grid setup =    0.730 sec

------------------------------
INITIAL GUESS: MODEL POTENTIAL
------------------------------
Loading Hartree-Fock densities                     ... done
Calculating cut-offs                               ... done
Initializing the effective Hamiltonian             ... done
Setting up the integral package (SHARK)            ... done
Starting the Coulomb interaction                   ... done (   0.4 sec)
Reading the grid                                   ... done
Mapping shells                                     ... done
Starting the XC term evaluation                    ... done (   0.2 sec)
  promolecular density results
     # of electrons  =    133.996646886
     EX              =   -107.487182990
     EC              =     -4.510175231
     EX+EC           =   -111.997358221
Transforming the Hamiltonian                       ... done (   0.0 sec)
Diagonalizing the Hamiltonian                      ... done (   0.0 sec)
Back transforming the eigenvectors                 ... done (   0.0 sec)
Now organizing SCF variables                       ... done
                      ------------------
                      INITIAL GUESS DONE (   1.4 sec)
                      ------------------
-------------------
DFT GRID GENERATION
-------------------

General Integration Accuracy     IntAcc      ... 4.388
Radial Grid Type                 RadialGrid  ... OptM3 with GC (2021)
Angular Grid (max. ang.)         AngularGrid ... 4 (Lebedev-302)
Angular grid pruning method      GridPruning ... 4 (adaptive)
Weight generation scheme         WeightScheme... Becke
Basis function cutoff            BFCut       ... 1.0000e-11
Integration weight cutoff        WCut        ... 1.0000e-14
Angular grids for H and He will be reduced by one unit
Partially contracted basis set               ... off
Rotationally invariant grid construction     ... off

Total number of grid points                  ...   170908
Total number of batches                      ...     2689
Average number of points per batch           ...       63
Average number of grid points per atom       ...     4498
Time for grid setup =    1.298 sec

--------------------
COSX GRID GENERATION
--------------------

GRIDX 1
-------
General Integration Accuracy     IntAcc      ... 3.816
Radial Grid Type                 RadialGrid  ... OptM3 with GC (2021)
Angular Grid (max. ang.)         AngularGrid ... 1 (Lebedev-50)
Angular grid pruning method      GridPruning ... 4 (adaptive)
Weight generation scheme         WeightScheme... Becke
Basis function cutoff            BFCut       ... 1.0000e-11
Integration weight cutoff        WCut        ... 1.0000e-14
Angular grids for H and He will be reduced by one unit
Partially contracted basis set               ... on
Rotationally invariant grid construction     ... off

Total number of grid points                  ...    21743
Total number of batches                      ...      360
Average number of points per batch           ...       60
Average number of grid points per atom       ...      572
UseSFitting                                  ... on

GRIDX 2
-------
General Integration Accuracy     IntAcc      ... 4.020
Radial Grid Type                 RadialGrid  ... OptM3 with GC (2021)
Angular Grid (max. ang.)         AngularGrid ... 2 (Lebedev-110)
Angular grid pruning method      GridPruning ... 4 (adaptive)
Weight generation scheme         WeightScheme... Becke
Basis function cutoff            BFCut       ... 1.0000e-11
Integration weight cutoff        WCut        ... 1.0000e-14
Angular grids for H and He will be reduced by one unit
Partially contracted basis set               ... on
Rotationally invariant grid construction     ... off

Total number of grid points                  ...    46237
Total number of batches                      ...      741
Average number of points per batch           ...       62
Average number of grid points per atom       ...     1217
UseSFitting                                  ... on

GRIDX 3
-------
General Integration Accuracy     IntAcc      ... 4.338
Radial Grid Type                 RadialGrid  ... OptM3 with GC (2021)
Angular Grid (max. ang.)         AngularGrid ... 3 (Lebedev-194)
Angular grid pruning method      GridPruning ... 4 (adaptive)
Weight generation scheme         WeightScheme... Becke
Basis function cutoff            BFCut       ... 1.0000e-11
Integration weight cutoff        WCut        ... 1.0000e-14
Angular grids for H and He will be reduced by one unit
Partially contracted basis set               ... on
Rotationally invariant grid construction     ... off

Total number of grid points                  ...   100767
Total number of batches                      ...     1597
Average number of points per batch           ...       63
Average number of grid points per atom       ...     2652
UseSFitting                                  ... on

Time for X-Grid setup             =    3.878 sec

--------------
SCF ITERATIONS
--------------
ITER       Energy         Delta-E        Max-DP      RMS-DP      [F,P]     Damp
               ***  Starting incremental Fock matrix formation  ***
  0   -804.4953024716   0.000000000000 0.10236047  0.00199470  0.2766009 0.7000
  1   -804.7301671755  -0.234864703951 0.05799120  0.00133927  0.1067463 0.7000
                               ***Turning on DIIS***
  2   -804.8217063623  -0.091539186799 0.06531819  0.00208901  0.0392291 0.0000
  3   -804.9686831843  -0.146976822014 0.03891318  0.00094035  0.0513355 0.0000
  4   -804.9984817262  -0.029798541876 0.01105956  0.00031011  0.0190016 0.0000
  5   -805.0008968741  -0.002415147925 0.00372444  0.00009293  0.0060156 0.0000
                      *** Initiating the SOSCF procedure ***
                           *** Shutting down DIIS ***
                      *** Re-Reading the Fockian *** 
                      *** Removing any level shift *** 
ITER      Energy       Delta-E        Grad      Rot      Max-DP    RMS-DP
  6   -805.00104675  -0.0001498754  0.000186  0.000186  0.001528  0.000040
               *** Restarting incremental Fock matrix formation ***
  7   -805.00108949  -0.0000427425  0.000257  0.000833  0.001884  0.000025
  8   -805.00108196   0.0000075356  0.000423  0.000616  0.001213  0.000016
  9   -805.00109365  -0.0000116928  0.000068  0.000190  0.000386  0.000006
 10   -805.00109308   0.0000005672  0.000146  0.000130  0.000277  0.000004
 11   -805.00109381  -0.0000007236  0.000007  0.000027  0.000023  0.000001
 12   -805.00109381  -0.0000000040  0.000013  0.000021  0.000016  0.000000
                  ***Gradient check signals convergence***
              ***Rediagonalizing the Fockian in SOSCF/NRSCF***

               *****************************************************
               *                     SUCCESS                       *
               *           SCF CONVERGED AFTER  13 CYCLES          *
               *****************************************************

Old exchange energy                            =    -21.898592578 Eh
New exchange energy                            =    -21.898567297 Eh
Exchange energy change after final integration =      0.000025281 Eh
Total energy after final integration           =   -805.001068525 Eh
Final COS-X integration done in                =    14.476 sec

----------------
TOTAL SCF ENERGY
----------------

Total Energy       :         -805.00106853 Eh          -21905.19271 eV

Components:
Nuclear Repulsion  :         1355.55001432 Eh           36886.39116 eV
Electronic Energy  :        -2160.55108284 Eh          -58791.58387 eV
One Electron Energy:        -3785.21197662 Eh         -103000.85435 eV
Two Electron Energy:         1624.66089378 Eh           44209.27048 eV
Max COSX asymmetry :            0.00000370 Eh               0.00010 eV

Virial components:
Potential Energy   :        -1605.27718535 Eh          -43681.81295 eV
Kinetic Energy     :          800.27611683 Eh           21776.62024 eV
Virial Ratio       :            2.00590415


DFT components:
N(Alpha)           :       67.000091770339 electrons
N(Beta)            :       67.000091770339 electrons
N(Total)           :      134.000183540678 electrons
E(X)               :      -86.938645794905 Eh       
E(C)               :       -5.315288344059 Eh       
E(XC)              :      -92.253934138964 Eh       
DFET-embed. en.    :        0.000000000000 Eh       

---------------
SCF CONVERGENCE
---------------

  Last Energy change         ...    3.0333e-09  Tolerance :   1.0000e-08
  Last MAX-Density change    ...    3.1086e-15  Tolerance :   1.0000e-07
  Last RMS-Density change    ...    4.1596e-17  Tolerance :   5.0000e-09
  Last Orbital Gradient      ...    2.1838e-06  Tolerance :   1.0000e-05
  Last Orbital Rotation      ...    5.8751e-06  Tolerance :   1.0000e-05

             **** THE GBW FILE WAS UPDATED (Nfe_gas.gbw) ****
             **** DENSITY Nfe_gas.scfp WAS UPDATED ****
             **** ENERGY FILE WAS UPDATED (Nfe_gas.en.tmp) ****
             **** THE GBW FILE WAS UPDATED (Nfe_gas.gbw) ****
             **** DENSITY Nfe_gas.scfp WAS UPDATED ****
----------------
ORBITAL ENERGIES
----------------

  NO   OCC          E(Eh)            E(eV) 
   0   2.0000     -19.107275      -519.9354 
   1   2.0000     -19.106489      -519.9140 
   2   2.0000     -14.363084      -390.8394 
   3   2.0000     -14.363061      -390.8388 
   4   2.0000     -10.284212      -279.8476 
   5   2.0000     -10.279603      -279.7222 
   6   2.0000     -10.218991      -278.0729 
   7   2.0000     -10.214084      -277.9394 
   8   2.0000     -10.208048      -277.7751 
   9   2.0000     -10.204142      -277.6688 
  10   2.0000     -10.185755      -277.1685 
  11   2.0000     -10.183762      -277.1142 
  12   2.0000     -10.183540      -277.1082 
  13   2.0000     -10.178973      -276.9839 
  14   2.0000     -10.178335      -276.9666 
  15   2.0000     -10.177291      -276.9382 
  16   2.0000     -10.176862      -276.9265 
  17   2.0000     -10.172613      -276.8109 
  18   2.0000      -1.030827       -28.0502 
  19   2.0000      -1.022907       -27.8347 
  20   2.0000      -0.937153       -25.5012 
  21   2.0000      -0.931645       -25.3513 
  22   2.0000      -0.849820       -23.1248 
  23   2.0000      -0.787834       -21.4381 
  24   2.0000      -0.763926       -20.7875 
  25   2.0000      -0.736542       -20.0423 
  26   2.0000      -0.730558       -19.8795 
  27   2.0000      -0.720518       -19.6063 
  28   2.0000      -0.710087       -19.3224 
  29   2.0000      -0.675791       -18.3892 
  30   2.0000      -0.648106       -17.6359 
  31   2.0000      -0.598905       -16.2970 
  32   2.0000      -0.575924       -15.6717 
  33   2.0000      -0.556610       -15.1461 
  34   2.0000      -0.543177       -14.7806 
  35   2.0000      -0.517058       -14.0699 
  36   2.0000      -0.505196       -13.7471 
  37   2.0000      -0.488072       -13.2811 
  38   2.0000      -0.484477       -13.1833 
  39   2.0000      -0.471852       -12.8397 
  40   2.0000      -0.460077       -12.5193 
  41   2.0000      -0.456952       -12.4343 
  42   2.0000      -0.455908       -12.4059 
  43   2.0000      -0.444551       -12.0968 
  44   2.0000      -0.422469       -11.4960 
  45   2.0000      -0.418173       -11.3791 
  46   2.0000      -0.411123       -11.1872 
  47   2.0000      -0.408611       -11.1189 
  48   2.0000      -0.404636       -11.0107 
  49   2.0000      -0.403869       -10.9898 
  50   2.0000      -0.400843       -10.9075 
  51   2.0000      -0.396667       -10.7938 
  52   2.0000      -0.393339       -10.7033 
  53   2.0000      -0.383347       -10.4314 
  54   2.0000      -0.377204       -10.2642 
  55   2.0000      -0.366527        -9.9737 
  56   2.0000      -0.355074        -9.6621 
  57   2.0000      -0.351016        -9.5516 
  58   2.0000      -0.346242        -9.4217 
  59   2.0000      -0.333136        -9.0651 
  60   2.0000      -0.328793        -8.9469 
  61   2.0000      -0.257964        -7.0196 
  62   2.0000      -0.249615        -6.7924 
  63   2.0000      -0.244033        -6.6405 
  64   2.0000      -0.242268        -6.5924 
  65   2.0000      -0.239300        -6.5117 
  66   2.0000      -0.230434        -6.2704 
  67   0.0000       0.002431         0.0661 
  68   0.0000       0.005386         0.1466 
  69   0.0000       0.012842         0.3494 
  70   0.0000       0.026022         0.7081 
  71   0.0000       0.074864         2.0372 
  72   0.0000       0.085378         2.3233 
  73   0.0000       0.102476         2.7885 
  74   0.0000       0.114081         3.1043 
  75   0.0000       0.127299         3.4640 
  76   0.0000       0.134248         3.6531 
  77   0.0000       0.138477         3.7682 
  78   0.0000       0.149020         4.0550 
  79   0.0000       0.151393         4.1196 
  80   0.0000       0.156161         4.2494 
  81   0.0000       0.159842         4.3495 
  82   0.0000       0.162379         4.4186 
  83   0.0000       0.168158         4.5758 
  84   0.0000       0.171286         4.6609 
  85   0.0000       0.177197         4.8218 
  86   0.0000       0.182018         4.9530 
  87   0.0000       0.183465         4.9923 
  88   0.0000       0.193061         5.2534 
  89   0.0000       0.195033         5.3071 
  90   0.0000       0.201776         5.4906 
  91   0.0000       0.208131         5.6635 
  92   0.0000       0.219010         5.9596 
  93   0.0000       0.223651         6.0859 
  94   0.0000       0.225676         6.1409 
  95   0.0000       0.238413         6.4875 
  96   0.0000       0.243878         6.6363 
  97   0.0000       0.264928         7.2091 
  98   0.0000       0.271696         7.3932 
  99   0.0000       0.283244         7.7075 
 100   0.0000       0.312674         8.5083 
 101   0.0000       0.321617         8.7516 
 102   0.0000       0.336636         9.1603 
 103   0.0000       0.344251         9.3676 
 104   0.0000       0.353544         9.6204 
 105   0.0000       0.362161         9.8549 
 106   0.0000       0.382476        10.4077 
 107   0.0000       0.419844        11.4245 
 108   0.0000       0.460302        12.5255 
 109   0.0000       0.472260        12.8508 
 110   0.0000       0.498224        13.5574 
 111   0.0000       0.506922        13.7940 
 112   0.0000       0.511849        13.9281 
 113   0.0000       0.516117        14.0443 
 114   0.0000       0.521811        14.1992 
 115   0.0000       0.537336        14.6217 
 116   0.0000       0.547327        14.8935 
 117   0.0000       0.553512        15.0618 
 118   0.0000       0.556879        15.1535 
 119   0.0000       0.569750        15.5037 
 120   0.0000       0.578460        15.7407 
 121   0.0000       0.586921        15.9709 
 122   0.0000       0.598034        16.2733 
 123   0.0000       0.604013        16.4360 
 124   0.0000       0.604736        16.4557 
 125   0.0000       0.608798        16.5662 
 126   0.0000       0.612607        16.6699 
 127   0.0000       0.624025        16.9806 
 128   0.0000       0.626481        17.0474 
 129   0.0000       0.629259        17.1230 
 130   0.0000       0.643876        17.5207 
 131   0.0000       0.651518        17.7287 
 132   0.0000       0.663257        18.0482 
 133   0.0000       0.668186        18.1823 
 134   0.0000       0.670688        18.2504 
 135   0.0000       0.672773        18.3071 
 136   0.0000       0.694424        18.8962 
 137   0.0000       0.719874        19.5888 
 138   0.0000       0.721654        19.6372 
 139   0.0000       0.728346        19.8193 
 140   0.0000       0.744712        20.2647 
 141   0.0000       0.764495        20.8030 
 142   0.0000       0.769672        20.9438 
 143   0.0000       0.784755        21.3543 
 144   0.0000       0.799787        21.7633 
 145   0.0000       0.808644        22.0043 
 146   0.0000       0.821105        22.3434 
 147   0.0000       0.828708        22.5503 
 148   0.0000       0.836316        22.7573 
 149   0.0000       0.841442        22.8968 
 150   0.0000       0.846954        23.0468 
 151   0.0000       0.847169        23.0526 
 152   0.0000       0.860069        23.4037 
 153   0.0000       0.866132        23.5687 
 154   0.0000       0.869357        23.6564 
 155   0.0000       0.879957        23.9448 
 156   0.0000       0.889937        24.2164 
 157   0.0000       0.894383        24.3374 
 158   0.0000       0.897106        24.4115 
 159   0.0000       0.915064        24.9002 
 160   0.0000       0.918892        25.0043 
 161   0.0000       0.926802        25.2196 
 162   0.0000       0.928041        25.2533 
 163   0.0000       0.936519        25.4840 
 164   0.0000       0.958090        26.0710 
 165   0.0000       0.960865        26.1465 
 166   0.0000       0.967652        26.3312 
 167   0.0000       0.979674        26.6583 
 168   0.0000       0.988166        26.8894 
 169   0.0000       0.997367        27.1397 
 170   0.0000       1.003106        27.2959 
 171   0.0000       1.012725        27.5577 
 172   0.0000       1.020897        27.7800 
 173   0.0000       1.029680        28.0190 
 174   0.0000       1.044367        28.4187 
 175   0.0000       1.067770        29.0555 
 176   0.0000       1.099061        29.9070 
 177   0.0000       1.116252        30.3748 
 178   0.0000       1.124377        30.5959 
 179   0.0000       1.138905        30.9912 
 180   0.0000       1.153005        31.3749 
 181   0.0000       1.182611        32.1805 
 182   0.0000       1.187494        32.3134 
 183   0.0000       1.193496        32.4767 
 184   0.0000       1.234595        33.5950 
 185   0.0000       1.249291        33.9949 
 186   0.0000       1.267359        34.4866 
 187   0.0000       1.270758        34.5791 
 188   0.0000       1.300609        35.3914 
 189   0.0000       1.325167        36.0596 
 190   0.0000       1.346006        36.6267 
 191   0.0000       1.362208        37.0676 
 192   0.0000       1.381448        37.5911 
 193   0.0000       1.392801        37.9000 
 194   0.0000       1.408593        38.3298 
 195   0.0000       1.428550        38.8728 
 196   0.0000       1.430905        38.9369 
 197   0.0000       1.435855        39.0716 
 198   0.0000       1.441127        39.2151 
 199   0.0000       1.453512        39.5521 
 200   0.0000       1.471542        40.0427 
 201   0.0000       1.487229        40.4696 
 202   0.0000       1.497371        40.7455 
 203   0.0000       1.500895        40.8414 
 204   0.0000       1.507681        41.0261 
 205   0.0000       1.520368        41.3713 
 206   0.0000       1.537222        41.8299 
 207   0.0000       1.608823        43.7783 
 208   0.0000       1.631092        44.3843 
 209   0.0000       1.664316        45.2884 
 210   0.0000       1.708065        46.4788 
 211   0.0000       1.730347        47.0851 
 212   0.0000       1.751043        47.6483 
 213   0.0000       1.768402        48.1207 
 214   0.0000       1.776788        48.3489 
 215   0.0000       1.805719        49.1361 
 216   0.0000       1.822576        49.5948 
 217   0.0000       1.826047        49.6893 
 218   0.0000       1.830026        49.7975 
 219   0.0000       1.838725        50.0343 
 220   0.0000       1.849923        50.3390 
 221   0.0000       1.862865        50.6911 
 222   0.0000       1.884643        51.2837 
 223   0.0000       1.896260        51.5999 
 224   0.0000       1.908687        51.9380 
 225   0.0000       1.917911        52.1890 
 226   0.0000       1.936157        52.6855 
 227   0.0000       1.942513        52.8585 
 228   0.0000       1.946873        52.9771 
 229   0.0000       1.963869        53.4396 
 230   0.0000       1.977626        53.8139 
 231   0.0000       1.981992        53.9327 
 232   0.0000       1.984477        54.0004 
 233   0.0000       1.996523        54.3282 
 234   0.0000       2.026318        55.1389 
 235   0.0000       2.044661        55.6380 
 236   0.0000       2.052396        55.8485 
 237   0.0000       2.065757        56.2121 
 238   0.0000       2.067841        56.2688 
 239   0.0000       2.080459        56.6122 
 240   0.0000       2.085179        56.7406 
 241   0.0000       2.087737        56.8102 
 242   0.0000       2.104362        57.2626 
 243   0.0000       2.128791        57.9273 
 244   0.0000       2.148856        58.4733 
 245   0.0000       2.155186        58.6456 
 246   0.0000       2.161471        58.8166 
 247   0.0000       2.195093        59.7315 
 248   0.0000       2.203863        59.9701 
 249   0.0000       2.215284        60.2809 
 250   0.0000       2.228076        60.6290 
 251   0.0000       2.255295        61.3697 
 252   0.0000       2.266477        61.6740 
 253   0.0000       2.275757        61.9265 
 254   0.0000       2.283893        62.1479 
 255   0.0000       2.301798        62.6351 
 256   0.0000       2.314686        62.9858 
 257   0.0000       2.329159        63.3796 
 258   0.0000       2.349196        63.9249 
 259   0.0000       2.362586        64.2892 
 260   0.0000       2.387581        64.9694 
 261   0.0000       2.397715        65.2451 
 262   0.0000       2.418977        65.8237 
 263   0.0000       2.428980        66.0959 
 264   0.0000       2.443376        66.4876 
 265   0.0000       2.494044        67.8664 
 266   0.0000       2.527388        68.7737 
 267   0.0000       2.553045        69.4719 
 268   0.0000       2.567840        69.8745 
 269   0.0000       2.586664        70.3867 
 270   0.0000       2.590974        70.5040 
 271   0.0000       2.620291        71.3018 
 272   0.0000       2.640755        71.8586 
 273   0.0000       2.662463        72.4493 
 274   0.0000       2.667121        72.5761 
 275   0.0000       2.673906        72.7607 
 276   0.0000       2.706223        73.6401 
 277   0.0000       2.728768        74.2536 
 278   0.0000       2.729766        74.2807 
 279   0.0000       2.740886        74.5833 
 280   0.0000       2.754443        74.9522 
 281   0.0000       2.775260        75.5187 
 282   0.0000       2.793298        76.0095 
 283   0.0000       2.918848        79.4259 
 284   0.0000       2.944293        80.1183 
 285   0.0000       2.963415        80.6386 
 286   0.0000       3.011353        81.9431 
 287   0.0000       3.022967        82.2591 
 288   0.0000       3.063249        83.3552 
 289   0.0000       3.164935        86.1223 
 290   0.0000       3.184254        86.6479 
 291   0.0000       3.417914        93.0062 

                    ********************************
                    * MULLIKEN POPULATION ANALYSIS *
                    ********************************

-----------------------
MULLIKEN ATOMIC CHARGES
-----------------------
   0 C :   -0.550830
   1 H :    0.168315
   2 H :    0.177576
   3 H :    0.189105
   4 C :    0.524244
   5 O :   -0.484737
   6 N :   -0.373802
   7 C :   -0.246849
   8 H :    0.176034
   9 H :    0.203488
  10 C :   -0.161014
  11 H :    0.157507
  12 H :    0.185293
  13 C :   -0.362800
  14 H :    0.170692
  15 H :    0.140040
  16 C :    0.152576
  17 C :   -0.191202
  18 C :   -0.179571
  19 C :   -0.131174
  20 H :    0.166461
  21 C :   -0.128312
  22 H :    0.115554
  23 C :   -0.126780
  24 H :    0.130383
  25 H :    0.125641
  26 H :    0.126246
  27 C :    0.517333
  28 N :   -0.362185
  29 O :   -0.492132
  30 C :   -0.345292
  31 H :    0.151861
  32 H :    0.156942
  33 H :    0.214661
  34 C :   -0.322045
  35 H :    0.153491
  36 H :    0.201732
  37 H :    0.153551
Sum of atomic charges:    0.0000000

--------------------------------
MULLIKEN REDUCED ORBITAL CHARGES
--------------------------------
  0 C s       :     3.317692  s :     3.317692
      pz      :     1.073668  p :     3.200989
      px      :     1.094045
      py      :     1.033275
      dz2     :     0.002702  d :     0.032148
      dxz     :     0.010058
      dyz     :     0.007254
      dx2y2   :     0.003716
      dxy     :     0.008419
  1 H s       :     0.831685  s :     0.831685
  2 H s       :     0.822424  s :     0.822424
  3 H s       :     0.810895  s :     0.810895
  4 C s       :     2.981246  s :     2.981246
      pz      :     0.806801  p :     2.386302
      px      :     0.766924
      py      :     0.812577
      dz2     :     0.008713  d :     0.108208
      dxz     :     0.026778
      dyz     :     0.007820
      dx2y2   :     0.023929
      dxy     :     0.040967
  5 O s       :     3.875988  s :     3.875988
      pz      :     1.517458  p :     4.582656
      px      :     1.338057
      py      :     1.727140
      dz2     :     0.002468  d :     0.026093
      dxz     :     0.008886
      dyz     :     0.000223
      dx2y2   :     0.007783
      dxy     :     0.006733
  6 N s       :     3.531716  s :     3.531716
      pz      :     1.507104  p :     3.805641
      px      :     1.091211
      py      :     1.207325
      dz2     :     0.004637  d :     0.036446
      dxz     :     0.006455
      dyz     :     0.005019
      dx2y2   :     0.010136
      dxy     :     0.010199
  7 C s       :     3.248784  s :     3.248784
      pz      :     1.029224  p :     2.946051
      px      :     1.068403
      py      :     0.848424
      dz2     :     0.014618  d :     0.052013
      dxz     :     0.004957
      dyz     :     0.010439
      dx2y2   :     0.013566
      dxy     :     0.008434
  8 H s       :     0.823966  s :     0.823966
  9 H s       :     0.796512  s :     0.796512
 10 C s       :     3.215056  s :     3.215056
      pz      :     1.025776  p :     2.891713
      px      :     0.780726
      py      :     1.085211
      dz2     :     0.010332  d :     0.054245
      dxz     :     0.011633
      dyz     :     0.008523
      dx2y2   :     0.015738
      dxy     :     0.008019
 11 H s       :     0.842493  s :     0.842493
 12 H s       :     0.814707  s :     0.814707
 13 C s       :     3.274365  s :     3.274365
      pz      :     0.985222  p :     3.048201
      px      :     0.994023
      py      :     1.068956
      dz2     :     0.007640  d :     0.040234
      dxz     :     0.006838
      dyz     :     0.009812
      dx2y2   :     0.008240
      dxy     :     0.007703
 14 H s       :     0.829308  s :     0.829308
 15 H s       :     0.859960  s :     0.859960
 16 C s       :     3.126684  s :     3.126684
      pz      :     0.929743  p :     2.679745
      px      :     0.860416
      py      :     0.889586
      dz2     :     0.005336  d :     0.040996
      dxz     :     0.007093
      dyz     :     0.005745
      dx2y2   :     0.011436
      dxy     :     0.011386
 17 C s       :     3.202965  s :     3.202965
      pz      :     0.981424  p :     2.952414
      px      :     0.973392
      py      :     0.997598
[...]
    107       0.002353   0.005420  -0.046242   0.120270  -0.001160   0.000109
    108       0.005642   0.020073  -0.221514   0.597131  -0.010529  -0.001285
    109      -0.003813  -0.013572   0.148519  -0.402488   0.007080   0.000732
    110       0.005034   0.018215  -0.203195   0.545588  -0.009766  -0.001196
    111       0.001079   0.004694  -0.052957   0.138959  -0.002579   0.000385
    112       0.000937   0.003898  -0.044329   0.112966  -0.002038   0.000307
    113       0.000190   0.000813  -0.008779   0.022979  -0.000402   0.000127


-----------
IR SPECTRUM
-----------

 Mode   freq       eps      Int      T**2         TX        TY        TZ
       cm**-1   L/(mol*cm) km/mol    a.u.
----------------------------------------------------------------------------
  6:     23.14   0.000282    1.42  0.003798  (-0.041765 -0.018318  0.041453)
  7:     35.01   0.000332    1.68  0.002955  ( 0.046788  0.017924 -0.021080)
  8:     42.04   0.000189    0.96  0.001404  ( 0.035715 -0.005530 -0.009912)
  9:     55.84   0.000457    2.31  0.002551  ( 0.016239  0.029965 -0.037279)
 10:     76.29   0.000003    0.02  0.000012  (-0.002125  0.000190  0.002786)
 11:     88.60   0.000238    1.21  0.000840  ( 0.007768  0.027518  0.004717)
 12:    104.70   0.000813    4.11  0.002423  ( 0.029591  0.033105 -0.021236)
 13:    118.84   0.000501    2.53  0.001316  (-0.007520 -0.026385 -0.023726)
 14:    126.78   0.001602    8.10  0.003944  (-0.003143  0.051026  0.036481)
 15:    136.45   0.000396    2.00  0.000907  (-0.019752 -0.022718 -0.000586)
 16:    154.16   0.000396    2.00  0.000802  ( 0.004053  0.028027  0.000531)
 17:    166.47   0.000047    0.23  0.000087  (-0.003611  0.005772 -0.006389)
 18:    216.56   0.000147    0.74  0.000212  (-0.008478 -0.003609  0.011264)
 19:    230.81   0.000349    1.76  0.000472  ( 0.009879  0.017078 -0.009086)
 20:    281.83   0.001498    7.57  0.001658  ( 0.024626  0.031024 -0.009450)
 21:    286.48   0.000143    0.72  0.000155  (-0.001102 -0.006690  0.010454)
 22:    332.49   0.000402    2.03  0.000378  (-0.000354  0.018241 -0.006692)
 23:    357.00   0.001486    7.51  0.001299  ( 0.017258  0.016196  0.027180)
 24:    371.04   0.000602    3.04  0.000507  (-0.012687  0.016522  0.008524)
 25:    386.97   0.001409    7.12  0.001137  ( 0.006221 -0.019393 -0.026867)
 26:    418.46   0.000012    0.06  0.000009  ( 0.003047 -0.000116 -0.000006)
 27:    431.19   0.000142    0.72  0.000103  (-0.009333  0.000451  0.003915)
 28:    471.86   0.001713    8.66  0.001133  (-0.032291  0.005574  0.007676)
 29:    484.38   0.002824   14.27  0.001820  ( 0.019822  0.033676 -0.017104)
 30:    515.96   0.001882    9.51  0.001138  ( 0.010046 -0.009032 -0.030919)
 31:    563.86   0.001707    8.63  0.000945  (-0.021966  0.021210 -0.003520)
 32:    586.15   0.001044    5.28  0.000556  ( 0.006731  0.014020  0.017721)
 33:    597.89   0.002857   14.44  0.001491  ( 0.011033 -0.026437 -0.025895)
 34:    635.43   0.000319    1.61  0.000157  (-0.010012  0.001003 -0.007439)
 35:    640.88   0.001317    6.66  0.000641  (-0.013043  0.007996 -0.020179)
 36:    699.55   0.000635    3.21  0.000283  (-0.015986 -0.004114 -0.003295)
 37:    718.87   0.004167   21.06  0.001809  ( 0.003900 -0.022376 -0.035961)
 38:    759.27   0.004370   22.08  0.001796  (-0.004358  0.023469  0.035017)
 39:    770.98   0.000840    4.24  0.000340  (-0.007813 -0.008585  0.014324)
 40:    784.35   0.001087    5.49  0.000432  ( 0.000977  0.019414  0.007388)
 41:    820.46   0.001274    6.44  0.000485  ( 0.015313  0.010051  0.012209)
 42:    860.20   0.001461    7.38  0.000530  (-0.013093 -0.010653 -0.015651)
 43:    869.05   0.000092    0.46  0.000033  (-0.005133 -0.002234 -0.001250)
 44:    929.70   0.000143    0.72  0.000048  ( 0.001031 -0.003439 -0.005912)
 45:    961.59   0.000336    1.70  0.000109  ( 0.005181  0.005980  0.006807)
 46:    975.77   0.000018    0.09  0.000006  (-0.001681  0.001130  0.001310)
 47:   1001.63   0.000108    0.55  0.000034  (-0.004941  0.003042 -0.000165)
 48:   1003.30   0.002694   13.62  0.000838  (-0.023581 -0.004725 -0.016113)
 49:   1012.12   0.004027   20.35  0.001242  (-0.008320  0.025951  0.022337)
 50:   1017.69   0.000322    1.62  0.000099  (-0.005418  0.008087 -0.001957)
 51:   1027.50   0.004591   23.20  0.001394  ( 0.017731 -0.028794  0.015834)
 52:   1033.24   0.003318   16.77  0.001002  (-0.014960  0.017369  0.021834)
 53:   1060.12   0.000875    4.42  0.000258  ( 0.015952 -0.000257  0.001733)
 54:   1064.06   0.000855    4.32  0.000251  (-0.000981  0.006306  0.014494)
 55:   1089.62   0.002085   10.53  0.000597  (-0.016358  0.001111 -0.018117)
 56:   1096.29   0.000870    4.39  0.000248  ( 0.008500 -0.011800 -0.006003)
 57:   1125.09   0.002371   11.98  0.000658  ( 0.016842  0.001788  0.019255)
 58:   1141.61   0.000051    0.26  0.000014  ( 0.000030  0.003484 -0.001384)
 59:   1169.09   0.010187   51.48  0.002719  (-0.038803 -0.022440 -0.026648)
 60:   1190.44   0.000594    3.00  0.000156  (-0.009365 -0.008245  0.000116)
 61:   1192.32   0.000021    0.11  0.000006  ( 0.001425 -0.000751  0.001737)
 62:   1216.89   0.000164    0.83  0.000042  ( 0.004298  0.000993 -0.004745)
 63:   1221.96   0.005565   28.12  0.001421  ( 0.006038 -0.013826  0.034548)
 64:   1235.75   0.001288    6.51  0.000325  ( 0.014216 -0.011006 -0.001406)
 65:   1253.63   0.007412   37.46  0.001845  (-0.029520  0.030615 -0.006039)
 66:   1288.43   0.006169   31.17  0.001494  (-0.010066  0.024804  0.027884)
 67:   1298.98   0.018991   95.97  0.004562  ( 0.010660 -0.064941  0.015212)
 68:   1330.95   0.000104    0.53  0.000024  ( 0.004417  0.001021 -0.001951)
 69:   1339.41   0.001922    9.71  0.000448  (-0.010143  0.018283 -0.003273)
 70:   1366.11   0.000233    1.18  0.000053  (-0.003296 -0.006122  0.002204)
 71:   1375.26   0.000399    2.02  0.000090  ( 0.006539 -0.004769  0.005000)
 72:   1378.22   0.000372    1.88  0.000084  (-0.001289  0.008472 -0.003276)
 73:   1410.17   0.006167   31.16  0.001365  (-0.035539  0.006655  0.007573)
 74:   1420.50   0.004594   23.21  0.001009  ( 0.020049 -0.022223  0.010648)
 75:   1448.44   0.006180   31.23  0.001332  (-0.018987 -0.016053 -0.026709)
 76:   1461.87   0.020236  102.27  0.004320  ( 0.007850  0.057396  0.031047)
 77:   1474.82   0.023424  118.37  0.004956  ( 0.047616 -0.046797  0.022339)
 78:   1495.07   0.004854   24.53  0.001013  ( 0.030606 -0.008720  0.000585)
 79:   1501.39   0.001566    7.92  0.000326  ( 0.004755 -0.001988 -0.017291)
 80:   1503.83   0.001217    6.15  0.000253  (-0.001972 -0.013618  0.007957)
 81:   1515.03   0.000984    4.97  0.000203  ( 0.004448 -0.001636  0.013424)
 82:   1518.51   0.002853   14.42  0.000586  ( 0.000600 -0.023533  0.005667)
 83:   1521.15   0.001124    5.68  0.000231  ( 0.009969 -0.008473 -0.007705)
 84:   1525.32   0.000588    2.97  0.000120  (-0.000620  0.010727 -0.002186)
 85:   1534.49   0.006086   30.76  0.001238  (-0.002186 -0.022060  0.027320)
 86:   1537.81   0.004260   21.53  0.000864  ( 0.028653  0.006536  0.000876)
 87:   1545.59   0.000569    2.88  0.000115  ( 0.000213 -0.000767  0.010693)
 88:   1548.84   0.003754   18.97  0.000756  (-0.026761  0.003847 -0.005032)
 89:   1570.87   0.008079   40.83  0.001605  ( 0.001865  0.023642  0.032288)
 90:   1645.71   0.000294    1.49  0.000056  (-0.003633  0.004514 -0.004718)
 91:   1667.91   0.001541    7.79  0.000288  ( 0.016879 -0.001715  0.000708)
 92:   1740.36   0.050569  255.55  0.009067  (-0.066551  0.012824 -0.066888)
 93:   1746.30   0.081780  413.28  0.014614  ( 0.117258 -0.016838  0.024106)
 94:   3024.90   0.005659   28.60  0.000584  (-0.019553  0.004683 -0.013401)
 95:   3033.53   0.016684   84.31  0.001716  (-0.009660 -0.019862 -0.035050)
 96:   3059.64   0.003426   17.32  0.000349  (-0.013901  0.004251 -0.011753)
 97:   3063.07   0.001713    8.66  0.000174  (-0.000873  0.009022 -0.009610)
 98:   3070.82   0.009246   46.72  0.000940  ( 0.023843  0.016941 -0.009169)
 99:   3081.53   0.005712   28.87  0.000578  (-0.017883 -0.015379  0.004706)
100:   3081.99   0.002918   14.75  0.000295  ( 0.009663  0.011727 -0.008036)
101:   3084.68   0.005798   29.30  0.000587  ( 0.009404  0.004236  0.021914)
102:   3116.18   0.001167    5.90  0.000117  ( 0.007330  0.006590  0.004443)
103:   3125.11   0.002156   10.90  0.000215  ( 0.004069 -0.004713 -0.013287)
104:   3135.98   0.004099   20.71  0.000408  (-0.001586 -0.019888  0.003132)
105:   3169.54   0.000295    1.49  0.000029  (-0.002255 -0.004733 -0.001252)
106:   3170.22   0.002170   10.97  0.000214  (-0.009251  0.009322 -0.006412)
107:   3177.18   0.001613    8.15  0.000158  ( 0.010740 -0.005993  0.002684)
108:   3180.39   0.000143    0.72  0.000014  ( 0.003705  0.000421  0.000357)
109:   3188.61   0.002218   11.21  0.000217  (-0.004550  0.011759 -0.007623)
110:   3189.63   0.002454   12.40  0.000240  (-0.003066 -0.014906 -0.002915)
111:   3192.31   0.000141    0.71  0.000014  (-0.003485 -0.001279 -0.000173)
112:   3197.03   0.005109   25.82  0.000499  (-0.006028 -0.019025  0.010021)
113:   3207.91   0.005885   29.74  0.000572  ( 0.023589 -0.002600  0.003041)

* The epsilon (eps) is given for a Dirac delta lineshape.
** The dipole moment derivative (T) already includes vibrational overlap.

The first frequency considered to be a vibration is 6
The total number of vibrations considered is 108


--------------------------
THERMOCHEMISTRY AT 298.15K
--------------------------

Temperature         ... 298.15 K
Pressure            ... 1.00 atm
Total Mass          ... 248.33 AMU

Throughout the following assumptions are being made:
  (1) The electronic state is orbitally nondegenerate
  (2) There are no thermally accessible electronically excited states
  (3) Hindered rotations indicated by low frequency modes are not
      treated as such but are treated as vibrations and this may
      cause some error
  (4) All equations used are the standard statistical mechanics
      equations for an ideal gas
  (5) All vibrations are strictly harmonic

freq.      23.14  E(vib)   ...       0.56 
freq.      35.01  E(vib)   ...       0.54 
freq.      42.04  E(vib)   ...       0.53 
freq.      55.84  E(vib)   ...       0.52 
freq.      76.29  E(vib)   ...       0.49 
freq.      88.60  E(vib)   ...       0.47 
freq.     104.70  E(vib)   ...       0.46 
freq.     118.84  E(vib)   ...       0.44 
freq.     126.78  E(vib)   ...       0.43 
freq.     136.45  E(vib)   ...       0.42 
freq.     154.16  E(vib)   ...       0.40 
freq.     166.47  E(vib)   ...       0.39 
freq.     216.56  E(vib)   ...       0.34 
freq.     230.81  E(vib)   ...       0.32 
freq.     281.83  E(vib)   ...       0.28 
freq.     286.48  E(vib)   ...       0.27 
freq.     332.49  E(vib)   ...       0.24 
freq.     357.00  E(vib)   ...       0.22 
freq.     371.04  E(vib)   ...       0.21 
freq.     386.97  E(vib)   ...       0.20 
freq.     418.46  E(vib)   ...       0.18 
freq.     431.19  E(vib)   ...       0.18 
freq.     471.86  E(vib)   ...       0.15 
freq.     484.38  E(vib)   ...       0.15 
freq.     515.96  E(vib)   ...       0.13 
freq.     563.86  E(vib)   ...       0.11 
freq.     586.15  E(vib)   ...       0.11 
freq.     597.89  E(vib)   ...       0.10 
freq.     635.43  E(vib)   ...       0.09 
freq.     640.88  E(vib)   ...       0.09 
freq.     699.55  E(vib)   ...       0.07 
freq.     718.87  E(vib)   ...       0.07 
freq.     759.27  E(vib)   ...       0.06 
freq.     770.98  E(vib)   ...       0.05 
freq.     784.35  E(vib)   ...       0.05 
freq.     820.46  E(vib)   ...       0.05 
freq.     860.20  E(vib)   ...       0.04 
freq.     869.05  E(vib)   ...       0.04 
freq.     929.70  E(vib)   ...       0.03 
freq.     961.59  E(vib)   ...       0.03 
freq.     975.77  E(vib)   ...       0.03 
freq.    1001.63  E(vib)   ...       0.02 
freq.    1003.30  E(vib)   ...       0.02 
freq.    1012.12  E(vib)   ...       0.02 
freq.    1017.69  E(vib)   ...       0.02 
freq.    1027.50  E(vib)   ...       0.02 
freq.    1033.24  E(vib)   ...       0.02 
freq.    1060.12  E(vib)   ...       0.02 
freq.    1064.06  E(vib)   ...       0.02 
freq.    1089.62  E(vib)   ...       0.02 
freq.    1096.29  E(vib)   ...       0.02 
freq.    1125.09  E(vib)   ...       0.01 
freq.    1141.61  E(vib)   ...       0.01 
freq.    1169.09  E(vib)   ...       0.01 
freq.    1190.44  E(vib)   ...       0.01 
freq.    1192.32  E(vib)   ...       0.01 
freq.    1216.89  E(vib)   ...       0.01 
freq.    1221.96  E(vib)   ...       0.01 
freq.    1235.75  E(vib)   ...       0.01 
freq.    1253.63  E(vib)   ...       0.01 
freq.    1288.43  E(vib)   ...       0.01 
freq.    1298.98  E(vib)   ...       0.01 
freq.    1330.95  E(vib)   ...       0.01 
freq.    1339.41  E(vib)   ...       0.01 
freq.    1366.11  E(vib)   ...       0.01 
freq.    1375.26  E(vib)   ...       0.01 
freq.    1378.22  E(vib)   ...       0.01 
freq.    1410.17  E(vib)   ...       0.00 
freq.    1420.50  E(vib)   ...       0.00 
freq.    1448.44  E(vib)   ...       0.00 
freq.    1461.87  E(vib)   ...       0.00 
freq.    1474.82  E(vib)   ...       0.00 
freq.    1495.07  E(vib)   ...       0.00 
freq.    1501.39  E(vib)   ...       0.00 
freq.    1503.83  E(vib)   ...       0.00 
freq.    1515.03  E(vib)   ...       0.00 
freq.    1518.51  E(vib)   ...       0.00 
freq.    1521.15  E(vib)   ...       0.00 
freq.    1525.32  E(vib)   ...       0.00 
freq.    1534.49  E(vib)   ...       0.00 
freq.    1537.81  E(vib)   ...       0.00 
freq.    1545.59  E(vib)   ...       0.00 
freq.    1548.84  E(vib)   ...       0.00 
freq.    1570.87  E(vib)   ...       0.00 
freq.    1645.71  E(vib)   ...       0.00 
freq.    1667.91  E(vib)   ...       0.00 
freq.    1740.36  E(vib)   ...       0.00 
freq.    1746.30  E(vib)   ...       0.00 
freq.    3024.90  E(vib)   ...       0.00 
freq.    3033.53  E(vib)   ...       0.00 
freq.    3059.64  E(vib)   ...       0.00 
freq.    3063.07  E(vib)   ...       0.00 
freq.    3070.82  E(vib)   ...       0.00 
freq.    3081.53  E(vib)   ...       0.00 
freq.    3081.99  E(vib)   ...       0.00 
freq.    3084.68  E(vib)   ...       0.00 
freq.    3116.18  E(vib)   ...       0.00 
freq.    3125.11  E(vib)   ...       0.00 
freq.    3135.98  E(vib)   ...       0.00 
freq.    3169.54  E(vib)   ...       0.00 
freq.    3170.22  E(vib)   ...       0.00 
freq.    3177.18  E(vib)   ...       0.00 
freq.    3180.39  E(vib)   ...       0.00 
freq.    3188.61  E(vib)   ...       0.00 
freq.    3189.63  E(vib)   ...       0.00 
freq.    3192.31  E(vib)   ...       0.00 
freq.    3197.03  E(vib)   ...       0.00 
freq.    3207.91  E(vib)   ...       0.00 

------------
INNER ENERGY
------------

The inner energy is: U= E(el) + E(ZPE) + E(vib) + E(rot) + E(trans)
    E(el)   - is the total energy from the electronic structure calculation
              = E(kin-el) + E(nuc-el) + E(el-el) + E(nuc-nuc)
    E(ZPE)  - the the zero temperature vibrational energy from the frequency calculation
    E(vib)  - the the finite temperature correction to E(ZPE) due to population
              of excited vibrational states
    E(rot)  - is the rotational thermal energy
    E(trans)- is the translational thermal energy

Summary of contributions to the inner energy U:
Electronic energy                ...   -805.07343631 Eh
Zero point energy                ...      0.32692005 Eh     205.14 kcal/mol
Thermal vibrational correction   ...      0.01582253 Eh       9.93 kcal/mol
Thermal rotational correction    ...      0.00141627 Eh       0.89 kcal/mol
Thermal translational correction ...      0.00141627 Eh       0.89 kcal/mol
-----------------------------------------------------------------------
Total thermal energy                   -804.72786119 Eh


Summary of corrections to the electronic energy:
(perhaps to be used in another calculation)
Total thermal correction                  0.01865507 Eh      11.71 kcal/mol
Non-thermal (ZPE) correction              0.32692005 Eh     205.14 kcal/mol
-----------------------------------------------------------------------
Total correction                          0.34557512 Eh     216.85 kcal/mol


--------
ENTHALPY
--------

The enthalpy is H = U + kB*T
                kB is Boltzmann's constant
Total free energy                 ...   -804.72786119 Eh 
Thermal Enthalpy correction       ...      0.00094421 Eh       0.59 kcal/mol
-----------------------------------------------------------------------
Total Enthalpy                    ...   -804.72691698 Eh


Note: Only C1 symmetry has been detected, increase convergence thresholds 
      if your molecule has a higher symmetry. Symmetry factor of 1.0 is   
      used for the rotational entropy correction. 
 

Note: Rotational entropy computed according to Herzberg 
Infrared and Raman Spectra, Chapter V,1, Van Nostrand Reinhold, 1945 
Point Group:  C1, Symmetry Number:   1  
Rotational constants in cm-1:     0.020000     0.008840     0.006929 

Vibrational entropy computed according to the QRRHO of S. Grimme
Chem.Eur.J. 2012 18 9955


-------
ENTROPY
-------

The entropy contributions are T*S = T*(S(el)+S(vib)+S(rot)+S(trans))
     S(el)   - electronic entropy
     S(vib)  - vibrational entropy
     S(rot)  - rotational entropy
     S(trans)- translational entropy
The entropies will be listed as multiplied by the temperature to get
units of energy

Electronic entropy                ...      0.00000000 Eh      0.00 kcal/mol
Vibrational entropy               ...      0.02853552 Eh     17.91 kcal/mol
Rotational entropy                ...      0.01593717 Eh     10.00 kcal/mol
Translational entropy             ...      0.02015944 Eh     12.65 kcal/mol
-----------------------------------------------------------------------
Final entropy term                ...      0.06463214 Eh     40.56 kcal/mol

In case the symmetry of your molecule has not been determined correctly
or in case you have a reason to use a different symmetry number we print 
out the resulting rotational entropy values for sn=1,12 :
 --------------------------------------------------------
|  sn= 1 | S(rot)=       0.01593717 Eh     10.00 kcal/mol|
|  sn= 2 | S(rot)=       0.01528272 Eh      9.59 kcal/mol|
|  sn= 3 | S(rot)=       0.01489988 Eh      9.35 kcal/mol|
|  sn= 4 | S(rot)=       0.01462826 Eh      9.18 kcal/mol|
|  sn= 5 | S(rot)=       0.01441757 Eh      9.05 kcal/mol|
|  sn= 6 | S(rot)=       0.01424543 Eh      8.94 kcal/mol|
|  sn= 7 | S(rot)=       0.01409988 Eh      8.85 kcal/mol|
|  sn= 8 | S(rot)=       0.01397380 Eh      8.77 kcal/mol|
|  sn= 9 | S(rot)=       0.01386259 Eh      8.70 kcal/mol|
|  sn=10 | S(rot)=       0.01376311 Eh      8.64 kcal/mol|
|  sn=11 | S(rot)=       0.01367312 Eh      8.58 kcal/mol|
|  sn=12 | S(rot)=       0.01359097 Eh      8.53 kcal/mol|
 --------------------------------------------------------


-------------------
GIBBS FREE ENERGY
-------------------

The Gibbs free energy is G = H - T*S

Total enthalpy                    ...   -804.72691698 Eh 
Total entropy correction          ...     -0.06463214 Eh    -40.56 kcal/mol
-----------------------------------------------------------------------
Final Gibbs free energy         ...   -804.79154912 Eh

For completeness - the Gibbs free energy minus the electronic energy
G-E(el)                           ...      0.28188719 Eh    176.89 kcal/mol


Timings for individual modules:

Sum of individual times         ...     2235.458 sec (=  37.258 min)
GTO integral calculation        ...       24.172 sec (=   0.403 min)   1.1 %
SCF iterations                  ...     1079.027 sec (=  17.984 min)  48.3 %
SCF Gradient evaluation         ...      343.607 sec (=   5.727 min)  15.4 %
Geometry relaxation             ...        1.556 sec (=   0.026 min)   0.1 %
Analytical frequency calculation...      787.096 sec (=  13.118 min)  35.2 %
                             ****ORCA TERMINATED NORMALLY****
TOTAL RUN TIME: 0 days 0 hours 37 minutes 21 seconds 790 msec
