
                                 *****************
                                 * O   R   C   A *
                                 *****************

                                            #,                                       
                                            ###                                      
                                            ####                                     
                                            #####                                    
                                            ######                                   
                                           ########,                                 
                                     ,,################,,,,,                         
                               ,,#################################,,                 
                          ,,##########################################,,             
                       ,#########################################, ''#####,          
                    ,#############################################,,   '####,        
                  ,##################################################,,,,####,       
                ,###########''''           ''''###############################       
              ,#####''   ,,,,##########,,,,          '''####'''          '####       
            ,##' ,,,,###########################,,,                        '##       
           ' ,,###''''                  '''############,,,                           
         ,,##''                                '''############,,,,        ,,,,,,###''
      ,#''                                            '''#######################'''  
     '                                                          ''''####''''         
             ,#######,   #######,   ,#######,      ##                                
            ,#'     '#,  ##    ##  ,#'     '#,    #''#        ######   ,####,        
            ##       ##  ##   ,#'  ##            #'  '#       #        #'  '#        
            ##       ##  #######   ##           ,######,      #####,   #    #        
            '#,     ,#'  ##    ##  '#,     ,#' ,#      #,         ##   #,  ,#        
             '#######'   ##     ##  '#######'  #'      '#     #####' # '####'        



                  #######################################################
                  #                        -***-                        #
                  #          Department of theory and spectroscopy      #
                  #    Directorship and core code : Frank Neese         #
                  #        Max Planck Institute fuer Kohlenforschung    #
                  #                Kaiser Wilhelm Platz 1               #
                  #                 D-45470 Muelheim/Ruhr               #
                  #                      Germany                        #
                  #                                                     #
                  #                  All rights reserved                #
                  #                        -***-                        #
                  #######################################################


                         Program Version 5.0.4 -  RELEASE  -


 With contributions from (in alphabetic order):
   Daniel Aravena         : Magnetic Suceptibility
   Michael Atanasov       : Ab Initio Ligand Field Theory (pilot matlab implementation)
   Alexander A. Auer      : GIAO ZORA, VPT2 properties, NMR spectrum
   Ute Becker             : Parallelization
   Giovanni Bistoni       : ED, misc. LED, open-shell LED, HFLD
   Martin Brehm           : Molecular dynamics
   Dmytro Bykov           : SCF Hessian
   Vijay G. Chilkuri      : MRCI spin determinant printing, contributions to CSF-ICE
   Dipayan Datta          : RHF DLPNO-CCSD density
   Achintya Kumar Dutta   : EOM-CC, STEOM-CC
   Dmitry Ganyushin       : Spin-Orbit,Spin-Spin,Magnetic field MRCI
   Miquel Garcia          : C-PCM and meta-GGA Hessian, CC/C-PCM, Gaussian charge scheme
   Yang Guo               : DLPNO-NEVPT2, F12-NEVPT2, CIM, IAO-localization
   Andreas Hansen         : Spin unrestricted coupled pair/coupled cluster methods
   Benjamin Helmich-Paris : MC-RPA, TRAH-SCF, COSX integrals
   Lee Huntington         : MR-EOM, pCC
   Robert Izsak           : Overlap fitted RIJCOSX, COSX-SCS-MP3, EOM
   Marcus Kettner         : VPT2
   Christian Kollmar      : KDIIS, OOCD, Brueckner-CCSD(T), CCSD density, CASPT2, CASPT2-K
   Simone Kossmann        : Meta GGA functionals, TD-DFT gradient, OOMP2, MP2 Hessian
   Martin Krupicka        : Initial AUTO-CI
   Lucas Lang             : DCDCAS
   Marvin Lechner         : AUTO-CI (C++ implementation), FIC-MRCC
   Dagmar Lenk            : GEPOL surface, SMD
   Dimitrios Liakos       : Extrapolation schemes; Compound Job, initial MDCI parallelization
   Dimitrios Manganas     : Further ROCIS development; embedding schemes
   Dimitrios Pantazis     : SARC Basis sets
   Anastasios Papadopoulos: AUTO-CI, single reference methods and gradients
   Taras Petrenko         : DFT Hessian,TD-DFT gradient, ASA, ECA, R-Raman, ABS, FL, XAS/XES, NRVS
   Peter Pinski           : DLPNO-MP2, DLPNO-MP2 Gradient
   Christoph Reimann      : Effective Core Potentials
   Marius Retegan         : Local ZFS, SOC
   Christoph Riplinger    : Optimizer, TS searches, QM/MM, DLPNO-CCSD(T), (RO)-DLPNO pert. Triples
   Tobias Risthaus        : Range-separated hybrids, TD-DFT gradient, RPA, STAB
   Michael Roemelt        : Original ROCIS implementation
   Masaaki Saitow         : Open-shell DLPNO-CCSD energy and density
   Barbara Sandhoefer     : DKH picture change effects
   Avijit Sen             : IP-ROCIS
   Kantharuban Sivalingam : CASSCF convergence, NEVPT2, FIC-MRCI
   Bernardo de Souza      : ESD, SOC TD-DFT
   Georgi Stoychev        : AutoAux, RI-MP2 NMR, DLPNO-MP2 response
   Willem Van den Heuvel  : Paramagnetic NMR
   Boris Wezisla          : Elementary symmetry handling
   Frank Wennmohs         : Technical directorship


 We gratefully acknowledge several colleagues who have allowed us to
 interface, adapt or use parts of their codes:
   Stefan Grimme, W. Hujo, H. Kruse, P. Pracht,  : VdW corrections, initial TS optimization,
                  C. Bannwarth, S. Ehlert          DFT functionals, gCP, sTDA/sTD-DF
   Ed Valeev, F. Pavosevic, A. Kumar             : LibInt (2-el integral package), F12 methods
   Garnet Chan, S. Sharma, J. Yang, R. Olivares  : DMRG
   Ulf Ekstrom                                   : XCFun DFT Library
   Mihaly Kallay                                 : mrcc  (arbitrary order and MRCC methods)
   Jiri Pittner, Ondrej Demel                    : Mk-CCSD
   Frank Weinhold                                : gennbo (NPA and NBO analysis)
   Christopher J. Cramer and Donald G. Truhlar   : smd solvation model
   Lars Goerigk                                  : TD-DFT with DH, B97 family of functionals
   V. Asgeirsson, H. Jonsson                     : NEB implementation
   FAccTs GmbH                                   : IRC, NEB, NEB-TS, DLPNO-Multilevel, CI-OPT
                                                   MM, QMMM, 2- and 3-layer-ONIOM, Crystal-QMMM,
                                                   LR-CPCM, SF, NACMEs, symmetry and pop. for TD-DFT,
                                                   nearIR, NL-DFT gradient (VV10), updates on ESD,
                                                   ML-optimized integration grids
   S Lehtola, MJT Oliveira, MAL Marques          : LibXC Library
   Liviu Ungur et al                             : ANISO software


 Your calculation uses the libint2 library for the computation of 2-el integrals
 For citations please refer to: http://libint.valeyev.net

 Your ORCA version has been built with support for libXC version: 5.1.0
 For citations please refer to: https://tddft.org/programs/libxc/

 This ORCA versions uses:
   CBLAS   interface :  Fast vector & matrix operations
   LAPACKE interface :  Fast linear algebra routines
   SCALAPACK package :  Parallel linear algebra routines
   Shared memory     :  Shared parallel matrices
   BLAS/LAPACK       :  OpenBLAS 0.3.15  USE64BITINT DYNAMIC_ARCH NO_AFFINITY SkylakeX SINGLE_THREADED
        Core in use  :  SkylakeX
   Copyright (c) 2011-2014, The OpenBLAS Project




***************************************
The coordinates will be read from file: /users/fjb15167/WWenergy/structures/Nkeqm.xyz
***************************************


Your calculation utilizes the atom-pairwise dispersion correction
based on tight binding partial charges (D4)
Cite in your paper:
E.Caldeweyher, C.Bannwarth, S.Grimme, J.Chem.Phys., (2017), 147, 034112.
E.Caldeweyher, S.Ehlert, A.Hansen, H.Neugebauer, S.Grimme, J.Chem.Phys., (2018), in progress.
   

================================================================================

----- Orbital basis set information -----
Your calculation utilizes the basis: 6-31+G(d)
   H-He, Li-Ne : W. J. Hehre, R. Ditchfield and J.A. Pople, J. Chem. Phys. 56, 2257 (1972).
                 Note: He and Ne are unpublished basis sets taken from the Gaussian program.
                 Note: Li and B from J. D. Dill and J. A. Pople, J. Chem. Phys. 62, 2921 (1975).
   Na - Ar     : M. M. Francl, W. J. Pietro, W. J. Hehre, J. S. Binkley, M. S. Gordon, 
                 D. J. DeFrees and J. A. Pople, J. Chem. Phys. 77, 3654 (1982).
   K - Zn      : V. A. Rassolov, J. A. Pople, M. A. Ratner, and T. L. Windus, J. Chem. Phys. 109, 1223 (1998).
   Additional Pol./Diff. from the 6-311G equivalent.

----- AuxJ basis set information -----
Your calculation utilizes the AutoAux generation procedure.
  G. L. Stoychev, A. A. Auer, F. Neese, J. Chem. Theory Comput. 13, 554 (2017)

----- AuxC basis set information -----
Your calculation utilizes the AutoAux generation procedure.
  G. L. Stoychev, A. A. Auer, F. Neese, J. Chem. Theory Comput. 13, 554 (2017)

----- AuxJK basis set information -----
Your calculation utilizes the AutoAux generation procedure.
  G. L. Stoychev, A. A. Auer, F. Neese, J. Chem. Theory Comput. 13, 554 (2017)

================================================================================
                                        WARNINGS
                       Please study these warnings very carefully!
================================================================================


WARNING: Geometry Optimization
  ===> : Switching off AutoStart
         For restart on a previous wavefunction, please use MOREAD

INFO   : the flag for use of the SHARK integral package has been found!

================================================================================
                                       INPUT FILE
================================================================================
NAME = Nkeqm_water.inp
|  1> ! OPT FREQ B3LYP 6-31+G(d) D4 AUTOAUX CPCM(water)
|  2> 
|  3> %PAL NPROCS 4 END
|  4> 
|  5> %maxcore 3375
|  6> 
|  7> *xyzfile 1 1 /users/fjb15167/WWenergy/structures/Nkeqm.xyz
|  8> 
|  9>                          ****END OF INPUT****
================================================================================

                       *****************************
                       * Geometry Optimization Run *
                       *****************************

Geometry optimization settings:
Update method            Update   .... BFGS
Choice of coordinates    CoordSys .... Z-matrix Internals
Initial Hessian          InHess   .... Almoef's Model

Convergence Tolerances:
Energy Change            TolE     ....  5.0000e-06 Eh
Max. Gradient            TolMAXG  ....  3.0000e-04 Eh/bohr
RMS Gradient             TolRMSG  ....  1.0000e-04 Eh/bohr
Max. Displacement        TolMAXD  ....  4.0000e-03 bohr
RMS Displacement         TolRMSD  ....  2.0000e-03 bohr
Strict Convergence                ....  False
------------------------------------------------------------------------------
                        ORCA OPTIMIZATION COORDINATE SETUP
------------------------------------------------------------------------------

The optimization will be done in new redundant internal coordinates
Making redundant internal coordinates   ...  (new redundants) done
Evaluating the initial hessian          ...  (Almloef) done
Evaluating the coordinates              ...  done
Calculating the B-matrix                .... done
Calculating the G-matrix                .... done
Diagonalizing the G-matrix              .... done
Small eigenvalue found = 3.168e-03
Small eigenvalue found = 6.582e-03
Small eigenvalue found = 1.091e-02
Small eigenvalue found = 1.397e-02
Small eigenvalue found = 1.783e-02
Small eigenvalue found = 2.259e-02
Small eigenvalue found = 2.887e-02
The first mode is                       ....   86
The number of degrees of freedom        ....  114

    -----------------------------------------------------------------
                    Redundant Internal Coordinates


    -----------------------------------------------------------------
         Definition                    Initial Value    Approx d2E/dq
    -----------------------------------------------------------------
      1. B(H   1,C   0)                  1.0931         0.356060   
      2. B(H   2,C   0)                  1.0938         0.355139   
      3. B(H   3,C   0)                  1.0890         0.361378   
      4. B(C   4,C   0)                  1.5242         0.381552   
      5. B(O   5,C   4)                  1.2186         1.050158   
      6. B(N   6,C   4)                  1.3904         0.558756   
      7. B(C   7,N   6)                  1.4540         0.442306   
      8. B(H   8,C   7)                  1.0951         0.353365   
      9. B(H   9,C   7)                  1.0925         0.356860   
     10. B(C  10,N   6)                  1.4586         0.434988   
     11. B(H  11,C  10)                  1.0934         0.355579   
     12. B(H  12,C  10)                  1.0937         0.355292   
     13. B(C  13,C  10)                  1.5320         0.370782   
     14. B(H  14,C  13)                  1.0895         0.360731   
     15. B(H  15,C  13)                  1.0940         0.354846   
     16. B(C  16,C   7)                  1.5412         0.358491   
     17. B(N  17,C  16)                  1.3562         0.633505   
     18. B(O  18,C  16)                  1.2409         0.967764   
     19. B(C  19,N  17)                  1.4605         0.431972   
     20. B(H  20,C  19)                  1.0931         0.356074   
     21. B(H  21,C  19)                  1.0944         0.354333   
     22. B(H  22,C  19)                  1.0881         0.362608   
     23. B(C  23,N  17)                  1.4562         0.438740   
     24. B(H  24,C  23)                  1.0934         0.355629   
     25. B(H  25,C  23)                  1.0890         0.361444   
     26. B(H  26,C  23)                  1.0967         0.351373   
     27. B(N  27,C  13)                  1.5166         0.351478   
     28. B(C  28,N  27)                  1.4986         0.375512   
     29. B(H  29,C  28)                  1.0913         0.358388   
     30. B(H  30,C  28)                  1.0893         0.361009   
     31. B(C  31,N  27)                  1.5001         0.373416   
     32. B(H  32,C  31)                  1.0905         0.359379   
     33. B(H  33,C  31)                  1.0899         0.360230   
     34. B(C  34,N  27)                  1.5060         0.365424   
     35. B(H  35,C  34)                  1.0877         0.363122   
     36. B(H  36,C  34)                  1.0864         0.364945   
     37. B(H  37,C  31)                  1.0909         0.358854   
     38. B(H  38,C  28)                  1.0905         0.359389   
     39. B(H  39,C  34)                  1.0910         0.358789   
     40. A(H   2,C   0,C   4)          110.4474         0.324706   
     41. A(H   1,C   0,C   4)          112.1494         0.324844   
     42. A(H   3,C   0,C   4)          107.2012         0.325637   
     43. A(H   2,C   0,H   3)          108.8395         0.290368   
     44. A(H   1,C   0,H   2)          108.7958         0.289694   
     45. A(H   1,C   0,H   3)          109.3452         0.290486   
     46. A(C   0,C   4,N   6)          116.9933         0.388481   
     47. A(O   5,C   4,N   6)          120.7094         0.462510   
     48. A(C   0,C   4,O   5)          122.2581         0.434457   
     49. A(C   4,N   6,C   7)          120.9047         0.396118   
     50. A(C   4,N   6,C  10)          112.2064         0.394960   
     51. A(C   7,N   6,C  10)          116.1854         0.379196   
     52. A(N   6,C   7,H   9)          109.3951         0.330981   
     53. A(H   9,C   7,C  16)          111.3365         0.321657   
     54. A(N   6,C   7,C  16)          109.9706         0.369071   
     55. A(H   8,C   7,H   9)          106.5922         0.289568   
     56. A(H   8,C   7,C  16)          111.1800         0.321140   
     57. A(N   6,C   7,H   8)          108.2589         0.330442   
     58. A(H  12,C  10,C  13)          112.8406         0.323206   
     59. A(H  11,C  10,C  13)          110.3487         0.323249   
     60. A(N   6,C  10,C  13)          108.8119         0.370153   
     61. A(H  11,C  10,H  12)          107.7476         0.289652   
     62. A(N   6,C  10,H  12)          108.8556         0.329828   
     63. A(N   6,C  10,H  11)          108.1210         0.329872   
     64. A(H  14,C  13,H  15)          109.2090         0.290249   
     65. A(H  15,C  13,N  27)          105.9049         0.318419   
     66. A(C  10,C  13,H  15)          111.1454         0.323139   
     67. A(C  10,C  13,H  14)          110.1346         0.324012   
     68. A(H  14,C  13,N  27)          105.9184         0.319275   
     69. A(C  10,C  13,N  27)          114.2620         0.356909   
     70. A(N  17,C  16,O  18)          123.9583         0.466235   
     71. A(C   7,C  16,O  18)          118.4172         0.423375   
     72. A(C   7,C  16,N  17)          117.6139         0.392797   
     73. A(C  16,N  17,C  19)          119.0302         0.403285   
     74. A(C  19,N  17,C  23)          115.6082         0.378209   
     75. A(C  16,N  17,C  23)          124.4968         0.404392   
     76. A(H  20,C  19,H  21)          109.0724         0.289592   
     77. A(H  21,C  19,H  22)          109.6125         0.290419   
     78. A(H  20,C  19,H  22)          110.0505         0.290643   
     79. A(N  17,C  19,H  22)          108.4898         0.330561   
     80. A(N  17,C  19,H  21)          110.1953         0.329302   
     81. A(N  17,C  19,H  20)          109.4106         0.329569   
     82. A(H  25,C  23,H  26)          109.0063         0.289891   
     83. A(H  24,C  23,H  26)          108.4086         0.289155   
     84. A(N  17,C  23,H  26)          111.0795         0.329692   
     85. A(H  24,C  23,H  25)          107.9347         0.290439   
     86. A(N  17,C  23,H  25)          111.5247         0.331236   
     87. A(N  17,C  23,H  24)          108.7855         0.330349   
     88. A(C  31,N  27,C  34)          108.3097         0.357485   
     89. A(C  28,N  27,C  34)          109.7825         0.357826   
     90. A(C  13,N  27,C  34)          111.3288         0.353831   
     91. A(C  28,N  27,C  31)          108.9374         0.359145   
     92. A(C  13,N  27,C  31)          108.0135         0.355131   
     93. A(C  13,N  27,C  28)          110.3971         0.355468   
     94. A(H  29,C  28,H  30)          110.3846         0.290737   
     95. A(N  27,C  28,H  30)          109.2118         0.322789   
     96. A(N  27,C  28,H  29)          108.7356         0.322404   
     97. A(H  30,C  28,H  38)          109.7714         0.290864   
     98. A(H  29,C  28,H  38)          110.0583         0.290532   
     99. A(N  27,C  28,H  38)          108.6433         0.322551   
    100. A(H  32,C  31,H  33)          110.2217         0.290764   
    101. A(N  27,C  31,H  33)          108.9473         0.322379   
    102. A(N  27,C  31,H  32)          108.4949         0.322254   
    103. A(H  33,C  31,H  37)          110.1945         0.290698   
    104. A(H  32,C  31,H  37)          110.1231         0.290590   
    105. A(N  27,C  31,H  37)          108.8163         0.322177   
    106. A(H  35,C  34,H  36)          108.8919         0.291834   
    107. A(N  27,C  34,H  36)          109.7481         0.321924   
    108. A(N  27,C  34,H  35)          108.5914         0.321660   
    109. A(H  36,C  34,H  39)          110.6613         0.291284   
    110. A(H  35,C  34,H  39)          111.3424         0.291055   
    111. A(N  27,C  34,H  39)          107.5681         0.321029   
    112. D(O   5,C   4,C   0,H   1)   -126.0036         0.010858   
    113. D(O   5,C   4,C   0,H   2)    112.4608         0.010858   
    114. D(N   6,C   4,C   0,H   1)     51.7344         0.010858   
    115. D(N   6,C   4,C   0,H   2)    -69.8013         0.010858   
    116. D(O   5,C   4,C   0,H   3)     -5.9761         0.010858   
    117. D(N   6,C   4,C   0,H   3)    171.7619         0.010858   
    118. D(C   7,N   6,C   4,C   0)     23.7218         0.024928   
    119. D(C  10,N   6,C   4,C   0)    166.8384         0.024928   
    120. D(C  10,N   6,C   4,O   5)    -15.3865         0.024928   
    121. D(C   7,N   6,C   4,O   5)   -158.5031         0.024928   
    122. D(H   9,C   7,N   6,C  10)    167.0321         0.016683   
    123. D(H   9,C   7,N   6,C   4)    -51.2272         0.016683   
    124. D(H   8,C   7,N   6,C  10)     51.2506         0.016683   
    125. D(C  16,C   7,N   6,C   4)     71.3441         0.016683   
    126. D(H   8,C   7,N   6,C   4)   -167.0087         0.016683   
    127. D(C  16,C   7,N   6,C  10)    -70.3966         0.016683   
    128. D(C  13,C  10,N   6,C   4)     77.5487         0.016133   
    129. D(C  13,C  10,N   6,C   7)   -137.4719         0.016133   
    130. D(H  12,C  10,N   6,C   7)     99.1839         0.016133   
    131. D(H  12,C  10,N   6,C   4)    -45.7955         0.016133   
    132. D(H  11,C  10,N   6,C   7)    -17.6036         0.016133   
    133. D(H  11,C  10,N   6,C   4)   -162.5829         0.016133   
    134. D(H  15,C  13,C  10,H  12)   -147.7860         0.010987   
    135. D(N  27,C  13,C  10,H  11)     92.5870         0.010987   
    136. D(H  15,C  13,C  10,H  11)    -27.1896         0.010987   
    137. D(H  15,C  13,C  10,N   6)     91.2863         0.010987   
    138. D(H  14,C  13,C  10,H  12)     91.0469         0.010987   
    139. D(N  27,C  13,C  10,N   6)   -148.9371         0.010987   
    140. D(H  14,C  13,C  10,H  11)   -148.3566         0.010987   
    141. D(N  27,C  13,C  10,H  12)    -28.0094         0.010987   
    142. D(H  14,C  13,C  10,N   6)    -29.8808         0.010987   
    143. D(O  18,C  16,C   7,H   9)    120.6027         0.009671   
    144. D(O  18,C  16,C   7,H   8)   -120.7032         0.009671   
    145. D(O  18,C  16,C   7,N   6)     -0.8149         0.009671   
    146. D(N  17,C  16,C   7,H   9)    -60.5312         0.009671   
    147. D(N  17,C  16,C   7,H   8)     58.1629         0.009671   
    148. D(N  17,C  16,C   7,N   6)    178.0511         0.009671   
    149. D(C  23,N  17,C  16,O  18)   -173.2380         0.032610   
    150. D(C  23,N  17,C  16,C   7)      7.9644         0.032610   
    151. D(C  19,N  17,C  16,O  18)     -4.3710         0.032610   
    152. D(C  19,N  17,C  16,C   7)    176.8314         0.032610   
    153. D(H  22,C  19,N  17,C  16)     10.2402         0.015909   
    154. D(H  21,C  19,N  17,C  23)     60.0686         0.015909   
    155. D(H  21,C  19,N  17,C  16)   -109.7672         0.015909   
    156. D(H  20,C  19,N  17,C  23)    -59.8495         0.015909   
    157. D(H  22,C  19,N  17,C  23)   -179.9239         0.015909   
    158. D(H  20,C  19,N  17,C  16)    130.3146         0.015909   
    159. D(H  26,C  23,N  17,C  19)    -70.3159         0.016413   
    160. D(H  26,C  23,N  17,C  16)     98.8936         0.016413   
    161. D(H  25,C  23,N  17,C  19)    167.8661         0.016413   
    162. D(H  25,C  23,N  17,C  16)    -22.9244         0.016413   
    163. D(H  24,C  23,N  17,C  19)     48.9322         0.016413   
    164. D(H  24,C  23,N  17,C  16)   -141.8583         0.016413   
    165. D(C  34,N  27,C  13,H  15)   -169.9714         0.011383   
    166. D(C  34,N  27,C  13,H  14)    -54.0573         0.011383   
    167. D(C  34,N  27,C  13,C  10)     67.3540         0.011383   
    168. D(C  31,N  27,C  13,H  15)    -51.1811         0.011383   
    169. D(C  31,N  27,C  13,H  14)     64.7329         0.011383   
    170. D(C  31,N  27,C  13,C  10)   -173.8557         0.011383   
    171. D(C  28,N  27,C  13,H  15)     67.8317         0.011383   
    172. D(C  28,N  27,C  13,H  14)   -176.2542         0.011383   
    173. D(C  28,N  27,C  13,C  10)    -54.8429         0.011383   
    174. D(H  29,C  28,N  27,C  13)    -55.5913         0.012922   
    175. D(H  38,C  28,N  27,C  31)    -56.9206         0.012922   
    176. D(H  38,C  28,N  27,C  13)   -175.3703         0.012922   
    177. D(H  30,C  28,N  27,C  34)    -58.1829         0.012922   
    178. D(H  30,C  28,N  27,C  31)   -176.6314         0.012922   
    179. D(H  30,C  28,N  27,C  13)     64.9190         0.012922   
    180. D(H  29,C  28,N  27,C  34)   -178.6932         0.012922   
    181. D(H  38,C  28,N  27,C  34)     61.5279         0.012922   
    182. D(H  29,C  28,N  27,C  31)     62.8583         0.012922   
    183. D(H  37,C  31,N  27,C  34)    -57.6511         0.012783   
    184. D(H  37,C  31,N  27,C  13)   -178.3460         0.012783   
    185. D(H  33,C  31,N  27,C  34)   -177.8212         0.012783   
    186. D(H  33,C  31,N  27,C  28)    -58.4519         0.012783   
    187. D(H  33,C  31,N  27,C  13)     61.4840         0.012783   
    188. D(H  32,C  31,N  27,C  34)     62.1662         0.012783   
    189. D(H  37,C  31,N  27,C  28)     61.7181         0.012783   
    190. D(H  32,C  31,N  27,C  28)   -178.4645         0.012783   
    191. D(H  32,C  31,N  27,C  13)    -58.5287         0.012783   
    192. D(H  39,C  34,N  27,C  31)     58.8607         0.012260   
    193. D(H  39,C  34,N  27,C  28)    -59.9751         0.012260   
    194. D(H  39,C  34,N  27,C  13)    177.4735         0.012260   
    195. D(H  36,C  34,N  27,C  31)    179.3179         0.012260   
    196. D(H  36,C  34,N  27,C  28)     60.4821         0.012260   
    197. D(H  36,C  34,N  27,C  13)    -62.0693         0.012260   
    198. D(H  35,C  34,N  27,C  31)    -61.7539         0.012260   
    199. D(H  35,C  34,N  27,C  28)    179.4103         0.012260   
    200. D(H  35,C  34,N  27,C  13)     56.8589         0.012260   
    -----------------------------------------------------------------

Number of atoms                         .... 40
Number of degrees of freedom            .... 200

         *************************************************************
         *                GEOMETRY OPTIMIZATION CYCLE   1            *
         *************************************************************
---------------------------------
CARTESIAN COORDINATES (ANGSTROEM)
---------------------------------
  C      1.039000    2.743000    0.144000
  H      1.237000    3.067000   -0.881000
  H      1.988000    2.480000    0.620000
  H      0.582000    3.561000    0.699000
  C      0.072000    1.566000    0.198000
  O     -0.945000    1.590000    0.869000
  N      0.373000    0.465000   -0.596000
  C      1.738000    0.203000   -1.023000
  H      1.711000   -0.556000   -1.812000
  H      2.157000    1.106000   -1.473000
  C     -0.427000   -0.703000   -0.245000
  H      0.058000   -1.587000   -0.668000
  H     -0.432000   -0.814000    0.843000
  C     -1.832000   -0.534000   -0.832000
  H     -2.090000    0.523000   -0.889000
  H     -1.898000   -0.975000   -1.831000
  C      2.583000   -0.270000    0.176000
  N      3.878000   -0.598000   -0.058000
  O      2.038000   -0.349000    1.288000
  C      4.726000   -0.983000    1.067000
  H      5.242000   -1.917000    0.830000
  H      5.469000   -0.204000    1.264000
  H      4.096000   -1.117000    1.944000
  C      4.569000   -0.379000   -1.321000
  H      5.231000   -1.228000   -1.512000
  H      3.869000   -0.306000   -2.152000
  H      5.177000    0.533000   -1.285000
  N     -2.931000   -1.187000   -0.016000
  C     -2.627000   -2.638000    0.203000
  H     -2.477000   -3.115000   -0.767000
  H     -1.729000   -2.728000    0.813000
  C     -4.213000   -1.069000   -0.786000
  H     -4.413000   -0.012000   -0.965000
  H     -4.107000   -1.598000   -1.733000
  C     -3.111000   -0.498000    1.311000
  H     -3.320000    0.554000    1.130000
  H     -2.198000   -0.580000    1.894000
  H     -5.019000   -1.509000   -0.197000
  H     -3.471000   -3.097000    0.719000
  H     -3.941000   -0.985000    1.825000

----------------------------
CARTESIAN COORDINATES (A.U.)
----------------------------
  NO LB      ZA    FRAG     MASS         X           Y           Z
   0 C     6.0000    0    12.011    1.963425    5.183519    0.272121
   1 H     1.0000    0     1.008    2.337591    5.795790   -1.664849
   2 H     1.0000    0     1.008    3.756776    4.686521    1.171630
   3 H     1.0000    0     1.008    1.099821    6.729315    1.320919
   4 C     6.0000    0    12.011    0.136060    2.959311    0.374166
   5 O     8.0000    0    15.999   -1.785791    3.004665    1.642172
   6 N     7.0000    0    14.007    0.704868    0.878723   -1.126277
   7 C     6.0000    0    12.011    3.284344    0.383614   -1.933190
   8 H     1.0000    0     1.008    3.233321   -1.050688   -3.424184
   9 H     1.0000    0     1.008    4.076139    2.090037   -2.783567
  10 C     6.0000    0    12.011   -0.806913   -1.328477   -0.462983
  11 H     1.0000    0     1.008    0.109604   -2.998995   -1.262337
  12 H     1.0000    0     1.008   -0.816362   -1.538237    1.593039
  13 C     6.0000    0    12.011   -3.461978   -1.009114   -1.572252
  14 H     1.0000    0     1.008   -3.949528    0.988327   -1.679967
  15 H     1.0000    0     1.008   -3.586700   -1.842483   -3.460089
  16 C     6.0000    0    12.011    4.881163   -0.510226    0.332592
  17 N     7.0000    0    14.007    7.328358   -1.130056   -0.109604
  18 O     8.0000    0    15.999    3.851262   -0.659514    2.433967
  19 C     6.0000    0    12.011    8.930846   -1.857601    2.016338
  20 H     1.0000    0     1.008    9.905944   -3.622605    1.568473
  21 H     1.0000    0     1.008   10.334912   -0.385504    2.388614
  22 H     1.0000    0     1.008    7.740318   -2.110824    3.673628
  23 C     6.0000    0    12.011    8.634159   -0.716206   -2.496328
  24 H     1.0000    0     1.008    9.885157   -2.320584   -2.857266
  25 H     1.0000    0     1.008    7.311350   -0.578256   -4.066691
  26 H     1.0000    0     1.008    9.783112    1.007224   -2.428298
  27 N     7.0000    0    14.007   -5.538787   -2.243105   -0.030236
  28 C     6.0000    0    12.011   -4.964311   -4.985098    0.383614
  29 H     1.0000    0     1.008   -4.680852   -5.886497   -1.449420
  30 H     1.0000    0     1.008   -3.267336   -5.155173    1.536347
  31 C     6.0000    0    12.011   -7.961416   -2.020117   -1.485325
  32 H     1.0000    0     1.008   -8.339361   -0.022677   -1.823586
  33 H     1.0000    0     1.008   -7.761105   -3.019782   -3.274895
  34 C     6.0000    0    12.011   -5.878938   -0.941084    2.477431
  35 H     1.0000    0     1.008   -6.273891    1.046908    2.135391
  36 H     1.0000    0     1.008   -4.153618   -1.096041    3.579141
  37 H     1.0000    0     1.008   -9.484535   -2.851597   -0.372276
  38 H     1.0000    0     1.008   -6.559239   -5.852482    1.358713
  39 H     1.0000    0     1.008   -7.447411   -1.861380    3.448750

--------------------------------
INTERNAL COORDINATES (ANGSTROEM)
--------------------------------
 C      0   0   0     0.000000000000     0.00000000     0.00000000
 H      1   0   0     1.093071360891     0.00000000     0.00000000
 H      1   2   0     1.093776028262   108.79580384     0.00000000
 H      1   2   3     1.089035352962   109.34523435   118.75131122
 C      1   2   3     1.524248667377   112.14944802   237.52224566
 O      5   1   2     1.218649252246   122.25813226   233.99644394
 N      5   1   2     1.390409292259   116.99328056    51.73436092
 C      7   5   1     1.454028197801   120.90467590    23.72182432
 H      8   7   5     1.095139717114   108.25891206   192.99130066
 H      8   7   5     1.092460525603   109.39508745   308.77282201
 C      7   5   1     1.458569504686   112.20639708   166.83844642
 H     11   7   5     1.093439527363   108.12095328   197.41705679
 H     11   7   5     1.093658996214   108.85559333   314.20448654
 C     11   7   5     1.532042753973   108.81189171    77.54868097
 H     14  11   7     1.089523749167   110.13459186   330.11923661
 H     14  11   7     1.094000914076   111.14541052    91.28630762
 C      8   7   5     1.541218673648   109.97059800    71.34414211
 N     17   8   7     1.356231912322   117.61387291   178.05113076
 O     17   8   7     1.240890809056   118.41724377   359.18506296
 C     18  17   8     1.460463625018   119.03024387   176.83139830
 H     20  18  17     1.093060382596   109.41062805   130.31463237
 H     20  18  17     1.094394353056   110.19525973   250.23275116
 H     20  18  17     1.088110748040   108.48979298    10.24021730
 C     18  17   8     1.456231781002   124.49681330     7.96441146
 H     24  18  17     1.093401115785   108.78547659   218.14168211
 H     24  18  17     1.088985766665   111.52472295   337.07559974
 H     24  18  17     1.096678622022   111.07948656    98.89358358
 N     14  11   7     1.516596848210   114.26201852   211.06289521
 C     28  14  11     1.498592005851   110.39705280   305.15712322
 H     29  28  14     1.091296934844   108.73564722   304.40866730
 H     29  28  14     1.089313545312   109.21182128    64.91896485
 C     28  14  11     1.500115995515   108.01346142   186.14428221
 H     32  28  14     1.090545734942   108.49494052   301.47134530
 H     32  28  14     1.089901830442   108.94733624    61.48398999
 C     28  14  11     1.506004648067   111.32877204    67.35402816
 H     35  28  14     1.087725149107   108.59142568    56.85892911
 H     35  28  14     1.086361818180   109.74810102   297.93066075
 H     32  28  14     1.090943169922   108.81630604   181.65403314
 H     29  28  14     1.090537940651   108.64331867   184.62973224
 H     35  28  14     1.090992667253   107.56814397   177.47350632

---------------------------
INTERNAL COORDINATES (A.U.)
---------------------------
 C      0   0   0     0.000000000000     0.00000000     0.00000000
 H      1   0   0     2.065605516917     0.00000000     0.00000000
 H      1   2   0     2.066937145263   108.79580384     0.00000000
 H      1   2   3     2.057978567256   109.34523435   118.75131122
 C      1   2   3     2.880412541337   112.14944802   237.52224566
 O      5   1   2     2.302913340053   122.25813226   233.99644394
 N      5   1   2     2.627492776429   116.99328056    51.73436092
 C      7   5   1     2.747715084843   120.90467590    23.72182432
 H      8   7   5     2.069514143725   108.25891206   192.99130066
 H      8   7   5     2.064451205509   109.39508745   308.77282201
 C      7   5   1     2.756296911146   112.20639708   166.83844642
 H     11   7   5     2.066301250721   108.12095328   197.41705679
 H     11   7   5     2.066715986744   108.85559333   314.20448654
 C     11   7   5     2.895141230467   108.81189171    77.54868097
 H     14  11   7     2.058901502330   110.13459186   330.11923661
 H     14  11   7     2.067362117864   111.14541052    91.28630762
 C      8   7   5     2.912481205679   109.97059800    71.34414211
 N     17   8   7     2.562906888372   117.61387291   178.05113076
 O     17   8   7     2.344943791216   118.41724377   359.18506296
 C     18  17   8     2.759876279837   119.03024387   176.83139830
 H     20  18  17     2.065584770945   109.41062805   130.31463237
 H     20  18  17     2.068105609785   110.19525973   250.23275116
 H     20  18  17     2.056231317172   108.48979298    10.24021730
 C     18  17   8     2.751879253606   124.49681330     7.96441146
 H     24  18  17     2.066228663358   108.78547659   218.14168211
 H     24  18  17     2.057884862736   111.52472295   337.07559974
 H     24  18  17     2.072422252548   111.07948656    98.89358358
 N     14  11   7     2.865952698685   114.26201852   211.06289521
 C     28  14  11     2.831928477542   110.39705280   305.15712322
 H     29  28  14     2.062252337643   108.73564722   304.40866730
 H     29  28  14     2.058504274610   109.21182128    64.91896485
 C     28  14  11     2.834808400638   108.01346142   186.14428221
 H     32  28  14     2.060832775556   108.49494052   301.47134530
 H     32  28  14     2.059615972394   108.94733624    61.48398999
 C     28  14  11     2.845936341259   111.32877204    67.35402816
 H     35  28  14     2.055502640791   108.59142568    56.85892911
 H     35  28  14     2.052926318710   109.74810102   297.93066075
 H     32  28  14     2.061583818825   108.81630604   181.65403314
 H     29  28  14     2.060818046481   108.64331867   184.62973224
 H     35  28  14     2.061677355225   107.56814397   177.47350632

---------------------
BASIS SET INFORMATION
---------------------
There are 4 groups of distinct atoms

 Group   1 Type C   : 11s5p1d contracted to 4s3p1d pattern {6311/311/1}
 Group   2 Type H   : 4s contracted to 2s pattern {31}
 Group   3 Type O   : 11s5p1d contracted to 4s3p1d pattern {6311/311/1}
 Group   4 Type N   : 11s5p1d contracted to 4s3p1d pattern {6311/311/1}

Atom   0C    basis set group =>   1
Atom   1H    basis set group =>   2
Atom   2H    basis set group =>   2
Atom   3H    basis set group =>   2
Atom   4C    basis set group =>   1
Atom   5O    basis set group =>   3
Atom   6N    basis set group =>   4
Atom   7C    basis set group =>   1
Atom   8H    basis set group =>   2
Atom   9H    basis set group =>   2
Atom  10C    basis set group =>   1
Atom  11H    basis set group =>   2
Atom  12H    basis set group =>   2
Atom  13C    basis set group =>   1
Atom  14H    basis set group =>   2
Atom  15H    basis set group =>   2
Atom  16C    basis set group =>   1
Atom  17N    basis set group =>   4
Atom  18O    basis set group =>   3
Atom  19C    basis set group =>   1
Atom  20H    basis set group =>   2
Atom  21H    basis set group =>   2
Atom  22H    basis set group =>   2
Atom  23C    basis set group =>   1
Atom  24H    basis set group =>   2
Atom  25H    basis set group =>   2
Atom  26H    basis set group =>   2
Atom  27N    basis set group =>   4
Atom  28C    basis set group =>   1
Atom  29H    basis set group =>   2
Atom  30H    basis set group =>   2
Atom  31C    basis set group =>   1
Atom  32H    basis set group =>   2
Atom  33H    basis set group =>   2
Atom  34C    basis set group =>   1
Atom  35H    basis set group =>   2
Atom  36H    basis set group =>   2
Atom  37H    basis set group =>   2
Atom  38H    basis set group =>   2
Atom  39H    basis set group =>   2
---------------------------------
AUXILIARY/J BASIS SET INFORMATION
---------------------------------
There are 4 groups of distinct atoms

 Group   1 Type C   : 16s13p12d2f contracted to 16s13p12d2f pattern {1111111111111111/1111111111111/111111111111/11}
 Group   2 Type H   : 9s2p contracted to 9s2p pattern {111111111/11}
 Group   3 Type O   : 16s13p12d3f contracted to 16s13p12d3f pattern {1111111111111111/1111111111111/111111111111/111}
 Group   4 Type N   : 16s13p12d3f contracted to 16s13p12d3f pattern {1111111111111111/1111111111111/111111111111/111}

Atom   0C    basis set group =>   1
Atom   1H    basis set group =>   2
Atom   2H    basis set group =>   2
Atom   3H    basis set group =>   2
Atom   4C    basis set group =>   1
Atom   5O    basis set group =>   3
Atom   6N    basis set group =>   4
Atom   7C    basis set group =>   1
Atom   8H    basis set group =>   2
Atom   9H    basis set group =>   2
Atom  10C    basis set group =>   1
Atom  11H    basis set group =>   2
Atom  12H    basis set group =>   2
Atom  13C    basis set group =>   1
Atom  14H    basis set group =>   2
Atom  15H    basis set group =>   2
Atom  16C    basis set group =>   1
Atom  17N    basis set group =>   4
Atom  18O    basis set group =>   3
Atom  19C    basis set group =>   1
Atom  20H    basis set group =>   2
Atom  21H    basis set group =>   2
Atom  22H    basis set group =>   2
Atom  23C    basis set group =>   1
Atom  24H    basis set group =>   2
Atom  25H    basis set group =>   2
Atom  26H    basis set group =>   2
Atom  27N    basis set group =>   4
Atom  28C    basis set group =>   1
Atom  29H    basis set group =>   2
Atom  30H    basis set group =>   2
Atom  31C    basis set group =>   1
Atom  32H    basis set group =>   2
Atom  33H    basis set group =>   2
Atom  34C    basis set group =>   1
Atom  35H    basis set group =>   2
Atom  36H    basis set group =>   2
Atom  37H    basis set group =>   2
Atom  38H    basis set group =>   2
Atom  39H    basis set group =>   2
---------------------------------
AUXILIARY/C BASIS SET INFORMATION
---------------------------------
There are 4 groups of distinct atoms

 Group   1 Type C   : 16s13p12d2f contracted to 16s13p12d2f pattern {1111111111111111/1111111111111/111111111111/11}
 Group   2 Type H   : 9s2p contracted to 9s2p pattern {111111111/11}
 Group   3 Type O   : 16s13p12d3f contracted to 16s13p12d3f pattern {1111111111111111/1111111111111/111111111111/111}
 Group   4 Type N   : 16s13p12d3f contracted to 16s13p12d3f pattern {1111111111111111/1111111111111/111111111111/111}

Atom   0C    basis set group =>   1
Atom   1H    basis set group =>   2
Atom   2H    basis set group =>   2
Atom   3H    basis set group =>   2
Atom   4C    basis set group =>   1
Atom   5O    basis set group =>   3
Atom   6N    basis set group =>   4
Atom   7C    basis set group =>   1
Atom   8H    basis set group =>   2
Atom   9H    basis set group =>   2
Atom  10C    basis set group =>   1
Atom  11H    basis set group =>   2
Atom  12H    basis set group =>   2
Atom  13C    basis set group =>   1
Atom  14H    basis set group =>   2
Atom  15H    basis set group =>   2
Atom  16C    basis set group =>   1
Atom  17N    basis set group =>   4
Atom  18O    basis set group =>   3
Atom  19C    basis set group =>   1
Atom  20H    basis set group =>   2
Atom  21H    basis set group =>   2
Atom  22H    basis set group =>   2
Atom  23C    basis set group =>   1
Atom  24H    basis set group =>   2
Atom  25H    basis set group =>   2
Atom  26H    basis set group =>   2
Atom  27N    basis set group =>   4
Atom  28C    basis set group =>   1
Atom  29H    basis set group =>   2
Atom  30H    basis set group =>   2
Atom  31C    basis set group =>   1
Atom  32H    basis set group =>   2
Atom  33H    basis set group =>   2
Atom  34C    basis set group =>   1
Atom  35H    basis set group =>   2
Atom  36H    basis set group =>   2
Atom  37H    basis set group =>   2
Atom  38H    basis set group =>   2
Atom  39H    basis set group =>   2
----------------------------------
AUXILIARY/JK BASIS SET INFORMATION
----------------------------------
There are 4 groups of distinct atoms

 Group   1 Type C   : 16s13p12d2f contracted to 16s13p12d2f pattern {1111111111111111/1111111111111/111111111111/11}
 Group   2 Type H   : 9s2p contracted to 9s2p pattern {111111111/11}
 Group   3 Type O   : 16s13p12d3f contracted to 16s13p12d3f pattern {1111111111111111/1111111111111/111111111111/111}
 Group   4 Type N   : 16s13p12d3f contracted to 16s13p12d3f pattern {1111111111111111/1111111111111/111111111111/111}

Atom   0C    basis set group =>   1
Atom   1H    basis set group =>   2
Atom   2H    basis set group =>   2
Atom   3H    basis set group =>   2
Atom   4C    basis set group =>   1
Atom   5O    basis set group =>   3
Atom   6N    basis set group =>   4
Atom   7C    basis set group =>   1
Atom   8H    basis set group =>   2
Atom   9H    basis set group =>   2
Atom  10C    basis set group =>   1
Atom  11H    basis set group =>   2
Atom  12H    basis set group =>   2
Atom  13C    basis set group =>   1
Atom  14H    basis set group =>   2
Atom  15H    basis set group =>   2
Atom  16C    basis set group =>   1
Atom  17N    basis set group =>   4
Atom  18O    basis set group =>   3
Atom  19C    basis set group =>   1
Atom  20H    basis set group =>   2
Atom  21H    basis set group =>   2
Atom  22H    basis set group =>   2
Atom  23C    basis set group =>   1
Atom  24H    basis set group =>   2
Atom  25H    basis set group =>   2
Atom  26H    basis set group =>   2
Atom  27N    basis set group =>   4
Atom  28C    basis set group =>   1
Atom  29H    basis set group =>   2
Atom  30H    basis set group =>   2
Atom  31C    basis set group =>   1
Atom  32H    basis set group =>   2
Atom  33H    basis set group =>   2
Atom  34C    basis set group =>   1
Atom  35H    basis set group =>   2
Atom  36H    basis set group =>   2
Atom  37H    basis set group =>   2
Atom  38H    basis set group =>   2
Atom  39H    basis set group =>   2


           ************************************************************
           *        Program running with 4 parallel MPI-processes     *
           *              working on a common directory               *
           ************************************************************
------------------------------------------------------------------------------
                           ORCA GTO INTEGRAL CALCULATION
                           -- RI-GTO INTEGRALS CHOSEN --
------------------------------------------------------------------------------
------------------------------------------------------------------------------
                   ___                                                        
                  /   \      - P O W E R E D   B Y -                         
                 /     \                                                     
                 |  |  |   _    _      __       _____    __    __             
                 |  |  |  | |  | |    /  \     |  _  \  |  |  /  |          
                  \  \/   | |  | |   /    \    | | | |  |  | /  /          
                 / \  \   | |__| |  /  /\  \   | |_| |  |  |/  /          
                |  |  |   |  __  | /  /__\  \  |    /   |      \           
                |  |  |   | |  | | |   __   |  |    \   |  |\   \          
                \     /   | |  | | |  |  |  |  | |\  \  |  | \   \       
                 \___/    |_|  |_| |__|  |__|  |_| \__\ |__|  \__/        
                                                                              
                      - O R C A' S   B I G   F R I E N D -                    
                                      &                                       
                       - I N T E G R A L  F E E D E R -                       
                                                                              
 v1 FN, 2020, v2 2021                                                         
------------------------------------------------------------------------------


Reading SHARK input file Nkeqm_water.SHARKINP.tmp ... ok
----------------------
SHARK INTEGRAL PACKAGE
----------------------

Number of atoms                             ...     40
Number of basis functions                   ...    336
Number of shells                            ...    176
Maximum angular momentum                    ...      2
Integral batch strategy                     ... SHARK/LIBINT Hybrid
RI-J (if used) integral strategy            ... SPLIT-RIJ (Revised 2003 algorithm where possible)
Printlevel                                  ...      1
Contraction scheme used                     ... SEGMENTED contraction
Coulomb Range Separation                    ... NOT USED
Exchange Range Separation                   ... NOT USED
Finite Nucleus Model                        ... NOT USED
Auxiliary Coulomb fitting basis             ... AVAILABLE
   # of basis functions in Aux-J            ...   2459
   # of shells in Aux-J                     ...    957
   Maximum angular momentum in Aux-J        ...      3
Auxiliary J/K fitting basis                 ... AVAILABLE
   # of basis functions in Aux-JK           ...   2459
   # of shells in Aux-JK                    ...    957
   Maximum angular momentum in Aux-JK       ...      3
Auxiliary Correlation fitting basis         ... AVAILABLE
   # of basis functions in Aux-C            ...   2459
   # of shells in Aux-C                     ...    957
   Maximum angular momentum in Aux-C        ...      3
Auxiliary 'external' fitting basis          ... NOT available
Integral threshold                          ...     2.500000e-11
Primitive cut-off                           ...     2.500000e-12
Primitive pair pre-selection threshold      ...     2.500000e-12

Calculating pre-screening integrals         ... done (  0.1 sec) Dimension = 176
Organizing shell pair data                  ... done (  1.1 sec)
Shell pair information
Total number of shell pairs                 ...     15576
Shell pairs after pre-screening             ...     13300
Total number of primitive shell pairs       ...     68304
Primitive shell pairs kept                  ...     37001
          la=0 lb=0:   5157 shell pairs
          la=1 lb=0:   4890 shell pairs
          la=1 lb=1:   1136 shell pairs
          la=2 lb=0:   1344 shell pairs
          la=2 lb=1:    681 shell pairs
          la=2 lb=2:     92 shell pairs

Calculating one electron integrals          ... done (  0.0 sec)
Calculating RI/J V-Matrix + Cholesky decomp.... done (  0.4 sec)
Calculating RI/JK V-Matrix + Cholesky decomp... done (  0.6 sec)
Calculating RI/C V-Matrix + Cholesky decomp.... done (  0.4 sec)
Calculating Nuclear repulsion               ... done (  0.0 sec) ENN=   1243.885373454350 Eh

SHARK setup successfully completed in   3.2 seconds

Maximum memory used throughout the entire GTOINT-calculation: 53.5 MB


           ************************************************************
           *        Program running with 4 parallel MPI-processes     *
           *              working on a common directory               *
           ************************************************************
-------------------------------------------------------------------------------
                                 ORCA SCF
-------------------------------------------------------------------------------

------------
SCF SETTINGS
------------
Hamiltonian:
 Density Functional     Method          .... DFT(GTOs)
 Exchange Functional    Exchange        .... B88
   X-Alpha parameter    XAlpha          ....  0.666667
   Becke's b parameter  XBeta           ....  0.004200
 Correlation Functional Correlation     .... LYP
 LDA part of GGA corr.  LDAOpt          .... VWN-5
 Gradients option       PostSCFGGA      .... off
 Hybrid DFT is turned on
   Fraction HF Exchange ScalHFX         ....  0.200000
   Scaling of DF-GGA-X  ScalDFX         ....  0.720000
   Scaling of DF-GGA-C  ScalDFC         ....  0.810000
   Scaling of DF-LDA-C  ScalLDAC        ....  1.000000
   Perturbative correction              ....  0.000000
   Density functional embedding theory  .... OFF
   NL short-range parameter             ....  4.800000
 RI-approximation to the Coulomb term is turned on
   Number of AuxJ basis functions       .... 2459
   RIJ-COSX (HFX calculated with COS-X)).... on


General Settings:
 Integral files         IntName         .... Nkeqm_water
 Hartree-Fock type      HFTyp           .... RHF
 Total Charge           Charge          ....    1
 Multiplicity           Mult            ....    1
 Number of Electrons    NEL             ....  126
 Basis Dimension        Dim             ....  336
 Nuclear Repulsion      ENuc            ....   1243.8853734543 Eh

Convergence Acceleration:
 DIIS                   CNVDIIS         .... on
   Start iteration      DIISMaxIt       ....    12
   Startup error        DIISStart       ....  0.200000
   # of expansion vecs  DIISMaxEq       ....     5
   Bias factor          DIISBfac        ....   1.050
   Max. coefficient     DIISMaxC        ....  10.000
 Trust-Rad. Augm. Hess. CNVTRAH         .... auto
   Auto Start mean grad. ratio tolernc. ....  1.125000
   Auto Start start iteration           ....    20
   Auto Start num. interpolation iter.  ....    10
   Max. Number of Micro iterations      ....    16
   Max. Number of Macro iterations      .... Maxiter - #DIIS iter
   Number of Davidson start vectors     ....     2
   Converg. threshold I  (grad. norm)   ....   1.000e-05
   Converg. threshold II (energy diff.) ....   1.000e-08
   Grad. Scal. Fac. for Micro threshold ....   0.100
   Minimum threshold for Micro iter.    ....   0.010
   NR start threshold (gradient norm)   ....   0.001
   Initial trust radius                 ....   0.400
   Minimum AH scaling param. (alpha)    ....   1.000
   Maximum AH scaling param. (alpha)    .... 1000.000
   Orbital update algorithm             .... Taylor
   White noise on init. David. guess    .... on
   Maximum white noise                  ....   0.010
   Quad. conv. algorithm                .... NR
 SOSCF                  CNVSOSCF        .... on
   Start iteration      SOSCFMaxIt      ....   150
   Startup grad/error   SOSCFStart      ....  0.003300
 Level Shifting         CNVShift        .... on
   Level shift para.    LevelShift      ....    0.2500
   Turn off err/grad.   ShiftErr        ....    0.0010
 Zerner damping         CNVZerner       .... off
 Static damping         CNVDamp         .... on
   Fraction old density DampFac         ....    0.7000
   Max. Damping (<1)    DampMax         ....    0.9800
   Min. Damping (>=0)   DampMin         ....    0.0000
   Turn off err/grad.   DampErr         ....    0.1000
 Fernandez-Rico         CNVRico         .... off

SCF Procedure:
 Maximum # iterations   MaxIter         ....   125
 SCF integral mode      SCFMode         .... Direct
   Integral package                     .... SHARK and LIBINT hybrid scheme
 Reset frequency        DirectResetFreq ....    20
 Integral Threshold     Thresh          ....  2.500e-11 Eh
 Primitive CutOff       TCut            ....  2.500e-12 Eh

Convergence Tolerance:
 Convergence Check Mode ConvCheckMode   .... Total+1el-Energy
 Convergence forced     ConvForced      .... 0
 Energy Change          TolE            ....  1.000e-08 Eh
 1-El. energy change                    ....  1.000e-05 Eh
 Orbital Gradient       TolG            ....  1.000e-05
 Orbital Rotation angle TolX            ....  1.000e-05
 DIIS Error             TolErr          ....  5.000e-07


Diagonalization of the overlap matrix:
Smallest eigenvalue                        ... 6.429e-06
Time for diagonalization                   ...    0.018 sec
Threshold for overlap eigenvalues          ... 1.000e-08
Number of eigenvalues below threshold      ... 0
Time for construction of square roots      ...    0.018 sec
Total time needed                          ...    0.037 sec

Time for model grid setup =    0.391 sec

------------------------------
INITIAL GUESS: MODEL POTENTIAL
------------------------------
Loading Hartree-Fock densities                     ... done
Calculating cut-offs                               ... done
Initializing the effective Hamiltonian             ... done
Setting up the integral package (SHARK)            ... done
Starting the Coulomb interaction                   ... done (   0.4 sec)
Reading the grid                                   ... done
Mapping shells                                     ... done
Starting the XC term evaluation                    ... done (   0.3 sec)
  promolecular density results
     # of electrons  =    126.971189153
     EX              =    -99.881051418
     EC              =     -4.249924735
     EX+EC           =   -104.130976153
Transforming the Hamiltonian                       ... done (   0.0 sec)
Diagonalizing the Hamiltonian                      ... done (   0.0 sec)
Back transforming the eigenvectors                 ... done (   0.0 sec)
Now organizing SCF variables                       ... done
                      ------------------
                      INITIAL GUESS DONE (   1.2 sec)
                      ------------------
-------------------
DFT GRID GENERATION
-------------------

General Integration Accuracy     IntAcc      ... 4.388
Radial Grid Type                 RadialGrid  ... OptM3 with GC (2021)
Angular Grid (max. ang.)         AngularGrid ... 4 (Lebedev-302)
Angular grid pruning method      GridPruning ... 4 (adaptive)
Weight generation scheme         WeightScheme... Becke
Basis function cutoff            BFCut       ... 1.0000e-11
Integration weight cutoff        WCut        ... 1.0000e-14
Angular grids for H and He will be reduced by one unit
Partially contracted basis set               ... off
Rotationally invariant grid construction     ... off

Total number of grid points                  ...   175317
Total number of batches                      ...     2760
Average number of points per batch           ...       63
Average number of grid points per atom       ...     4383
Time for grid setup =    1.569 sec

--------------------
COSX GRID GENERATION
--------------------

GRIDX 1
-------
General Integration Accuracy     IntAcc      ... 3.816
Radial Grid Type                 RadialGrid  ... OptM3 with GC (2021)
Angular Grid (max. ang.)         AngularGrid ... 1 (Lebedev-50)
Angular grid pruning method      GridPruning ... 4 (adaptive)
Weight generation scheme         WeightScheme... Becke
Basis function cutoff            BFCut       ... 1.0000e-11
Integration weight cutoff        WCut        ... 1.0000e-14
Angular grids for H and He will be reduced by one unit
Partially contracted basis set               ... on
Rotationally invariant grid construction     ... off

Total number of grid points                  ...    22403
Total number of batches                      ...      373
Average number of points per batch           ...       60
Average number of grid points per atom       ...      560
UseSFitting                                  ... on

GRIDX 2
-------
General Integration Accuracy     IntAcc      ... 4.020
Radial Grid Type                 RadialGrid  ... OptM3 with GC (2021)
Angular Grid (max. ang.)         AngularGrid ... 2 (Lebedev-110)
Angular grid pruning method      GridPruning ... 4 (adaptive)
Weight generation scheme         WeightScheme... Becke
Basis function cutoff            BFCut       ... 1.0000e-11
Integration weight cutoff        WCut        ... 1.0000e-14
Angular grids for H and He will be reduced by one unit
Partially contracted basis set               ... on
Rotationally invariant grid construction     ... off

Total number of grid points                  ...    49399
Total number of batches                      ...      789
Average number of points per batch           ...       62
Average number of grid points per atom       ...     1235
UseSFitting                                  ... on

GRIDX 3
-------
General Integration Accuracy     IntAcc      ... 4.338
Radial Grid Type                 RadialGrid  ... OptM3 with GC (2021)
Angular Grid (max. ang.)         AngularGrid ... 3 (Lebedev-194)
Angular grid pruning method      GridPruning ... 4 (adaptive)
Weight generation scheme         WeightScheme... Becke
Basis function cutoff            BFCut       ... 1.0000e-11
Integration weight cutoff        WCut        ... 1.0000e-14
Angular grids for H and He will be reduced by one unit
Partially contracted basis set               ... on
Rotationally invariant grid construction     ... off

Total number of grid points                  ...   106337
Total number of batches                      ...     1682
Average number of points per batch           ...       63
Average number of grid points per atom       ...     2658
UseSFitting                                  ... on

Time for X-Grid setup             =    3.074 sec


--------------------
CPCM SOLVATION MODEL
--------------------
CPCM parameters:
  Epsilon                                         ...      80.4000
  Refrac                                          ...       1.3300
  Rsolv                                           ...       1.3000
  Surface type                                    ... GAUSSIAN VDW
  Epsilon function type                           ...         CPCM
Radii:
 Radius for C  used is    3.8550 Bohr (=   2.0400 Ang.)
 Radius for H  used is    2.4944 Bohr (=   1.3200 Ang.)
 Radius for O  used is    3.4469 Bohr (=   1.8240 Ang.)
 Radius for N  used is    3.5149 Bohr (=   1.8600 Ang.)
Calculating surface                               ...        done! (  0.0s)
GEPOL surface points                              ...         2019
GEPOL Volume                                      ...    2025.2178
GEPOL Surface-area                                ...    1060.7196
Calculating surface distance matrix               ...        done! (  0.0s)
Performing Cholesky decomposition & store         ...        done! (  0.2s)
Overall time for CPCM initialization              ...                 0.2s
--------------
SCF ITERATIONS
--------------
ITER       Energy         Delta-E        Max-DP      RMS-DP      [F,P]     Damp
               ***  Starting incremental Fock matrix formation  ***
  0   -747.3425131858   0.000000000000 0.27042115  0.00297225  0.2749150 0.7000
  1   -747.5348252030  -0.192312017205 0.18302236  0.00216913  0.1088098 0.7000
                               ***Turning on DIIS***
  2   -747.6078421404  -0.073016937415 0.44583781  0.00421277  0.0377701 0.0000
  3   -747.7263063076  -0.118464167180 0.07180621  0.00129069  0.0523517 0.0000
  4   -747.7507628507  -0.024456543087 0.02511432  0.00054566  0.0132631 0.0000
  5   -747.7523214991  -0.001558648392 0.01976427  0.00023385  0.0050920 0.0000
                      *** Initiating the SOSCF procedure ***
                           *** Shutting down DIIS ***
                      *** Re-Reading the Fockian *** 
                      *** Removing any level shift *** 
ITER      Energy       Delta-E        Grad      Rot      Max-DP    RMS-DP
  6   -747.75242252  -0.0001010239  0.000215  0.000215  0.010850  0.000156
               *** Restarting incremental Fock matrix formation ***
  7   -747.75241081   0.0000117165  0.000346  0.001333  0.004127  0.000066
  8   -747.75240172   0.0000090859  0.000677  0.000937  0.001896  0.000030
  9   -747.75241539  -0.0000136728  0.000076  0.000203  0.003237  0.000027
 10   -747.75241500   0.0000003981  0.000145  0.000134  0.000563  0.000007
 11   -747.75241554  -0.0000005426  0.000004  0.000007  0.001389  0.000013
 12   -747.75241555  -0.0000000134  0.000004  0.000005  0.000751  0.000006
                  ***Gradient check signals convergence***
              ***Rediagonalizing the Fockian in SOSCF/NRSCF***

               *****************************************************
               *                     SUCCESS                       *
               *           SCF CONVERGED AFTER  13 CYCLES          *
               *****************************************************

Old exchange energy                            =    -20.327876534 Eh
New exchange energy                            =    -20.327918848 Eh
Exchange energy change after final integration =     -0.000042314 Eh
Total energy after final integration           =   -747.752457846 Eh
Final COS-X integration done in                =    21.968 sec

----------------
TOTAL SCF ENERGY
----------------

Total Energy       :         -747.75245785 Eh          -20347.37882 eV

Components:
Nuclear Repulsion  :         1243.88537345 Eh           33847.84180 eV
Electronic Energy  :        -1991.63783130 Eh          -54195.22062 eV
One Electron Energy:        -3467.89691585 Eh          -94366.27257 eV
Two Electron Energy:         1476.25908455 Eh           40171.05195 eV
Max COSX asymmetry :            0.00000895 Eh               0.00024 eV
CPCM Dielectric    :           -0.09661946 Eh              -2.62915 eV

Virial components:
Potential Energy   :        -1491.03597105 Eh          -40573.15147 eV
Kinetic Energy     :          743.28351321 Eh           20225.77265 eV
Virial Ratio       :            2.00601244


DFT components:
N(Alpha)           :       62.999926457263 electrons
N(Beta)            :       62.999926457263 electrons
N(Total)           :      125.999852914526 electrons
E(X)               :      -80.690735972714 Eh       
E(C)               :       -4.968216546584 Eh       
E(XC)              :      -85.658952519297 Eh       
DFET-embed. en.    :        0.000000000000 Eh       
CPCM Solvation Model Properties:
Surface-charge          :           -1.03134224
Charge-correction       :            0.00291640 Eh               0.07936 eV
Free-energy (cav+disp)  :  This term is not implemented in the current solvation scheme

---------------
SCF CONVERGENCE
---------------

  Last Energy change         ...    1.8607e-08  Tolerance :   1.0000e-08
  Last MAX-Density change    ...    3.5527e-15  Tolerance :   1.0000e-07
  Last RMS-Density change    ...    3.6830e-17  Tolerance :   5.0000e-09
  Last Orbital Gradient      ...    1.4711e-06  Tolerance :   1.0000e-05
  Last Orbital Rotation      ...    3.7539e-06  Tolerance :   1.0000e-05

             **** THE GBW FILE WAS UPDATED (Nkeqm_water.gbw) ****
             **** DENSITY Nkeqm_water.scfp WAS UPDATED ****
             **** ENERGY FILE WAS UPDATED (Nkeqm_water.en.tmp) ****
             **** THE GBW FILE WAS UPDATED (Nkeqm_water.gbw) ****
             **** DENSITY Nkeqm_water.scfp WAS UPDATED ****
----------------
ORBITAL ENERGIES
----------------

  NO   OCC          E(Eh)            E(eV) 
   0   2.0000     -19.134834      -520.6853 
   1   2.0000     -19.128189      -520.5045 
   2   2.0000     -14.465302      -393.6209 
   3   2.0000     -14.374605      -391.1529 
   4   2.0000     -14.370259      -391.0346 
   5   2.0000     -10.297829      -280.2182 
   6   2.0000     -10.295992      -280.1682 
   7   2.0000     -10.236201      -278.5412 
   8   2.0000     -10.230469      -278.3852 
   9   2.0000     -10.228895      -278.3424 
  10   2.0000     -10.228509      -278.3319 
  11   2.0000     -10.224128      -278.2127 
  12   2.0000     -10.223631      -278.1991 
  13   2.0000     -10.210844      -277.8512 
  14   2.0000     -10.203001      -277.6378 
  15   2.0000     -10.179534      -276.9992 
  16   2.0000      -1.062903       -28.9231 
  17   2.0000      -1.046234       -28.4695 
  18   2.0000      -1.023177       -27.8421 
  19   2.0000      -0.948980       -25.8231 
  20   2.0000      -0.943196       -25.6657 
  21   2.0000      -0.793353       -21.5882 
  22   2.0000      -0.752438       -20.4749 
  23   2.0000      -0.752136       -20.4667 
  24   2.0000      -0.749003       -20.3814 
  25   2.0000      -0.736458       -20.0400 
  26   2.0000      -0.720887       -19.6163 
  27   2.0000      -0.690303       -18.7841 
  28   2.0000      -0.673378       -18.3235 
  29   2.0000      -0.619604       -16.8603 
  30   2.0000      -0.569435       -15.4951 
  31   2.0000      -0.545284       -14.8379 
  32   2.0000      -0.531413       -14.4605 
  33   2.0000      -0.528653       -14.3854 
  34   2.0000      -0.521941       -14.2027 
  35   2.0000      -0.508070       -13.8253 
  36   2.0000      -0.503428       -13.6990 
  37   2.0000      -0.493714       -13.4346 
  38   2.0000      -0.476369       -12.9627 
  39   2.0000      -0.468174       -12.7397 
  40   2.0000      -0.459024       -12.4907 
  41   2.0000      -0.450371       -12.2552 
  42   2.0000      -0.440771       -11.9940 
  43   2.0000      -0.428553       -11.6615 
  44   2.0000      -0.424120       -11.5409 
  45   2.0000      -0.418245       -11.3810 
  46   2.0000      -0.412960       -11.2372 
  47   2.0000      -0.405730       -11.0405 
  48   2.0000      -0.405029       -11.0214 
  49   2.0000      -0.403581       -10.9820 
  50   2.0000      -0.402671       -10.9572 
  51   2.0000      -0.402382       -10.9494 
  52   2.0000      -0.398789       -10.8516 
  53   2.0000      -0.393473       -10.7069 
  54   2.0000      -0.391043       -10.6408 
  55   2.0000      -0.381509       -10.3814 
  56   2.0000      -0.379345       -10.3225 
  57   2.0000      -0.366229        -9.9656 
  58   2.0000      -0.354975        -9.6594 
  59   2.0000      -0.281456        -7.6588 
  60   2.0000      -0.272423        -7.4130 
  61   2.0000      -0.259202        -7.0532 
  62   2.0000      -0.251610        -6.8466 
  63   0.0000      -0.001277        -0.0348 
  64   0.0000       0.002708         0.0737 
  65   0.0000       0.007719         0.2101 
  66   0.0000       0.013272         0.3612 
  67   0.0000       0.019642         0.5345 
  68   0.0000       0.021868         0.5951 
  69   0.0000       0.028635         0.7792 
  70   0.0000       0.035087         0.9548 
  71   0.0000       0.035722         0.9720 
  72   0.0000       0.040546         1.1033 
  73   0.0000       0.046160         1.2561 
  74   0.0000       0.047031         1.2798 
  75   0.0000       0.049628         1.3505 
  76   0.0000       0.052252         1.4219 
  77   0.0000       0.058117         1.5814 
  78   0.0000       0.063452         1.7266 
  79   0.0000       0.065317         1.7774 
  80   0.0000       0.072081         1.9614 
  81   0.0000       0.076221         2.0741 
  82   0.0000       0.080867         2.2005 
  83   0.0000       0.088419         2.4060 
  84   0.0000       0.092194         2.5087 
  85   0.0000       0.095930         2.6104 
  86   0.0000       0.098519         2.6808 
  87   0.0000       0.103273         2.8102 
  88   0.0000       0.105229         2.8634 
  89   0.0000       0.111736         3.0405 
  90   0.0000       0.113023         3.0755 
  91   0.0000       0.114919         3.1271 
  92   0.0000       0.120516         3.2794 
  93   0.0000       0.122609         3.3364 
  94   0.0000       0.130238         3.5440 
  95   0.0000       0.130695         3.5564 
  96   0.0000       0.135191         3.6787 
  97   0.0000       0.143528         3.9056 
  98   0.0000       0.144787         3.9398 
  99   0.0000       0.150646         4.0993 
 100   0.0000       0.153512         4.1773 
 101   0.0000       0.158551         4.3144 
 102   0.0000       0.163542         4.4502 
 103   0.0000       0.167039         4.5454 
 104   0.0000       0.170178         4.6308 
 105   0.0000       0.175153         4.7662 
 106   0.0000       0.178092         4.8461 
 107   0.0000       0.179745         4.8911 
 108   0.0000       0.184623         5.0238 
 109   0.0000       0.187899         5.1130 
 110   0.0000       0.188688         5.1345 
 111   0.0000       0.192442         5.2366 
 112   0.0000       0.200567         5.4577 
 113   0.0000       0.203194         5.5292 
 114   0.0000       0.207150         5.6368 
 115   0.0000       0.212484         5.7820 
 116   0.0000       0.218726         5.9518 
 117   0.0000       0.220599         6.0028 
 118   0.0000       0.225601         6.1389 
 119   0.0000       0.230856         6.2819 
 120   0.0000       0.234064         6.3692 
 121   0.0000       0.239632         6.5207 
 122   0.0000       0.243030         6.6132 
 123   0.0000       0.246604         6.7104 
 124   0.0000       0.252344         6.8666 
 125   0.0000       0.256912         6.9909 
 126   0.0000       0.264637         7.2011 
 127   0.0000       0.267553         7.2805 
 128   0.0000       0.271464         7.3869 
 129   0.0000       0.274151         7.4600 
 130   0.0000       0.278266         7.5720 
 131   0.0000       0.279757         7.6126 
 132   0.0000       0.283899         7.7253 
 133   0.0000       0.289064         7.8658 
 134   0.0000       0.290337         7.9005 
 135   0.0000       0.293155         7.9771 
 136   0.0000       0.295006         8.0275 
 137   0.0000       0.301561         8.2059 
 138   0.0000       0.306844         8.3497 
 139   0.0000       0.309721         8.4279 
 140   0.0000       0.312407         8.5010 
 141   0.0000       0.320062         8.7093 
 142   0.0000       0.327368         8.9081 
 143   0.0000       0.332058         9.0358 
 144   0.0000       0.334999         9.1158 
 145   0.0000       0.341610         9.2957 
 146   0.0000       0.347960         9.4685 
 147   0.0000       0.353896         9.6300 
 148   0.0000       0.361176         9.8281 
 149   0.0000       0.365801         9.9539 
 150   0.0000       0.374458        10.1895 
 151   0.0000       0.377705        10.2779 
 152   0.0000       0.383878        10.4459 
 153   0.0000       0.388315        10.5666 
 154   0.0000       0.396173        10.7804 
 155   0.0000       0.398548        10.8450 
 156   0.0000       0.414399        11.2764 
 157   0.0000       0.417679        11.3656 
 158   0.0000       0.424881        11.5616 
 159   0.0000       0.432561        11.7706 
 160   0.0000       0.435023        11.8376 
 161   0.0000       0.460774        12.5383 
 162   0.0000       0.465732        12.6732 
 163   0.0000       0.483143        13.1470 
 164   0.0000       0.501678        13.6514 
 165   0.0000       0.521662        14.1951 
 166   0.0000       0.541236        14.7278 
 167   0.0000       0.566449        15.4139 
 168   0.0000       0.631773        17.1914 
 169   0.0000       0.641030        17.4433 
 170   0.0000       0.650503        17.7011 
 171   0.0000       0.660191        17.9647 
 172   0.0000       0.670220        18.2376 
 173   0.0000       0.674361        18.3503 
 174   0.0000       0.677181        18.4270 
 175   0.0000       0.684648        18.6302 
 176   0.0000       0.695393        18.9226 
 177   0.0000       0.702741        19.1226 
 178   0.0000       0.712120        19.3778 
 179   0.0000       0.719359        19.5747 
 180   0.0000       0.727165        19.7872 
 181   0.0000       0.735328        20.0093 
 182   0.0000       0.746903        20.3243 
 183   0.0000       0.760671        20.6989 
 184   0.0000       0.769131        20.9291 
 185   0.0000       0.793906        21.6033 
 186   0.0000       0.799961        21.7681 
 187   0.0000       0.809093        22.0165 
 188   0.0000       0.815807        22.1992 
 189   0.0000       0.829178        22.5631 
 190   0.0000       0.838940        22.8287 
 191   0.0000       0.849797        23.1242 
 192   0.0000       0.861263        23.4362 
 193   0.0000       0.868013        23.6198 
 194   0.0000       0.874350        23.7923 
 195   0.0000       0.885325        24.0909 
 196   0.0000       0.893829        24.3223 
 197   0.0000       0.922023        25.0895 
 198   0.0000       0.925391        25.1812 
 199   0.0000       0.938324        25.5331 
 200   0.0000       0.949191        25.8288 
 201   0.0000       0.956718        26.0336 
 202   0.0000       0.970520        26.4092 
 203   0.0000       0.976005        26.5585 
 204   0.0000       0.980637        26.6845 
 205   0.0000       0.989034        26.9130 
 206   0.0000       0.993827        27.0434 
 207   0.0000       0.999227        27.1904 
 208   0.0000       1.003952        27.3189 
 209   0.0000       1.013226        27.5713 
 210   0.0000       1.020043        27.7568 
 211   0.0000       1.023053        27.8387 
 212   0.0000       1.025712        27.9111 
 213   0.0000       1.029608        28.0170 
 214   0.0000       1.038749        28.2658 
 215   0.0000       1.045866        28.4595 
 216   0.0000       1.058022        28.7902 
 217   0.0000       1.072355        29.1803 
 218   0.0000       1.086888        29.5757 
 219   0.0000       1.099927        29.9305 
 220   0.0000       1.110929        30.2299 
 221   0.0000       1.127564        30.6826 
 222   0.0000       1.137467        30.9520 
 223   0.0000       1.142145        31.0793 
 224   0.0000       1.157928        31.5088 
 225   0.0000       1.161538        31.6070 
 226   0.0000       1.171526        31.8788 
 227   0.0000       1.177407        32.0389 
 228   0.0000       1.182922        32.1890 
 229   0.0000       1.191061        32.4104 
 230   0.0000       1.205440        32.8017 
 231   0.0000       1.231724        33.5169 
 232   0.0000       1.246882        33.9294 
 233   0.0000       1.256897        34.2019 
 234   0.0000       1.273840        34.6630 
 235   0.0000       1.284287        34.9472 
 236   0.0000       1.299662        35.3656 
 237   0.0000       1.312418        35.7127 
 238   0.0000       1.340319        36.4719 
 239   0.0000       1.345835        36.6220 
 240   0.0000       1.375114        37.4188 
 241   0.0000       1.384030        37.6614 
 242   0.0000       1.399847        38.0918 
 243   0.0000       1.405667        38.2501 
 244   0.0000       1.410047        38.3693 
 245   0.0000       1.429539        38.8997 
 246   0.0000       1.452208        39.5166 
 247   0.0000       1.463551        39.8252 
 248   0.0000       1.470656        40.0186 
 249   0.0000       1.484057        40.3833 
 250   0.0000       1.524050        41.4715 
 251   0.0000       1.530582        41.6493 
 252   0.0000       1.542577        41.9757 
 253   0.0000       1.568259        42.6745 
 254   0.0000       1.593976        43.3743 
 255   0.0000       1.600797        43.5599 
 256   0.0000       1.610941        43.8359 
 257   0.0000       1.643105        44.7112 
 258   0.0000       1.668333        45.3977 
 259   0.0000       1.689547        45.9749 
 260   0.0000       1.708696        46.4960 
 261   0.0000       1.725692        46.9585 
 262   0.0000       1.752446        47.6865 
 263   0.0000       1.760438        47.9040 
 264   0.0000       1.780238        48.4427 
 265   0.0000       1.804212        49.0951 
 266   0.0000       1.812406        49.3181 
 267   0.0000       1.826465        49.7006 
 268   0.0000       1.850059        50.3427 
 269   0.0000       1.869650        50.8758 
 270   0.0000       1.882593        51.2280 
 271   0.0000       1.895239        51.5721 
 272   0.0000       1.900826        51.7241 
 273   0.0000       1.912331        52.0372 
 274   0.0000       1.925423        52.3934 
 275   0.0000       1.932221        52.5784 
 276   0.0000       1.948299        53.0159 
 277   0.0000       1.950218        53.0681 
 278   0.0000       1.974674        53.7336 
 279   0.0000       1.995761        54.3074 
 280   0.0000       2.000317        54.4314 
 281   0.0000       2.012866        54.7729 
 282   0.0000       2.020743        54.9872 
 283   0.0000       2.041035        55.5394 
 284   0.0000       2.063379        56.1474 
 285   0.0000       2.083448        56.6935 
 286   0.0000       2.087407        56.8012 
 287   0.0000       2.091748        56.9194 
 288   0.0000       2.097421        57.0737 
 289   0.0000       2.126970        57.8778 
 290   0.0000       2.146439        58.4076 
 291   0.0000       2.172731        59.1230 
 292   0.0000       2.180728        59.3406 
 293   0.0000       2.182304        59.3835 
 294   0.0000       2.195053        59.7304 
 295   0.0000       2.198847        59.8337 
 296   0.0000       2.219969        60.4084 
 297   0.0000       2.235324        60.8263 
 298   0.0000       2.249888        61.2226 
 299   0.0000       2.251792        61.2744 
 300   0.0000       2.256958        61.4149 
 301   0.0000       2.265942        61.6594 
 302   0.0000       2.275306        61.9142 
 303   0.0000       2.279899        62.0392 
 304   0.0000       2.303645        62.6854 
 305   0.0000       2.312859        62.9361 
 306   0.0000       2.352962        64.0273 
 307   0.0000       2.362641        64.2907 
 308   0.0000       2.372923        64.5705 
 309   0.0000       2.403727        65.4087 
 310   0.0000       2.432387        66.1886 
 311   0.0000       2.447646        66.6038 
 312   0.0000       2.462591        67.0105 
 313   0.0000       2.484527        67.6074 
[...]


-----------
IR SPECTRUM
-----------

 Mode   freq       eps      Int      T**2         TX        TY        TZ
       cm**-1   L/(mol*cm) km/mol    a.u.
----------------------------------------------------------------------------
  7:     19.65   0.000672    3.40  0.010679  ( 0.006575 -0.099048 -0.028721)
  8:     40.78   0.000350    1.77  0.002676  ( 0.000341 -0.046361 -0.022937)
  9:     42.56   0.002788   14.09  0.020439  (-0.094636 -0.098021 -0.043298)
 10:     54.21   0.000203    1.03  0.001171  ( 0.017226 -0.019497  0.022223)
 11:     68.47   0.000310    1.57  0.001413  (-0.008428 -0.035071 -0.010563)
 12:     83.06   0.000354    1.79  0.001329  ( 0.035428  0.007482  0.004169)
 13:    102.00   0.001874    9.47  0.005733  (-0.022467  0.025268 -0.067745)
 14:    122.38   0.000600    3.03  0.001529  (-0.003658 -0.038272 -0.007123)
 15:    127.14   0.002216   11.20  0.005439  ( 0.039178  0.062294 -0.004875)
 16:    181.89   0.000161    0.81  0.000276  ( 0.011497 -0.003316  0.011503)
 17:    184.37   0.002310   11.67  0.003910  ( 0.047048 -0.003591  0.041032)
 18:    218.33   0.000812    4.10  0.001161  ( 0.029126 -0.008929 -0.015253)
 19:    240.87   0.001715    8.67  0.002222  (-0.000109 -0.045610 -0.011912)
 20:    248.04   0.000067    0.34  0.000084  ( 0.006176  0.005967 -0.003198)
 21:    261.73   0.000150    0.76  0.000179  ( 0.011010  0.007519  0.001160)
 22:    311.68   0.000092    0.46  0.000092  ( 0.001295  0.006604  0.006818)
 23:    318.58   0.000041    0.21  0.000040  ( 0.004592  0.003094  0.003043)
 24:    327.82   0.001175    5.94  0.001119  ( 0.020211  0.022286  0.014622)
 25:    369.83   0.000271    1.37  0.000229  (-0.012839 -0.001912 -0.007782)
 26:    376.52   0.000159    0.80  0.000132  ( 0.001202  0.010037  0.005448)
 27:    383.42   0.003922   19.82  0.003192  ( 0.048685 -0.028577  0.002208)
 28:    405.09   0.000931    4.70  0.000717  (-0.009663  0.024845  0.002548)
 29:    430.26   0.001791    9.05  0.001299  ( 0.019043  0.030532 -0.002082)
 30:    460.48   0.000904    4.57  0.000612  (-0.003074  0.008290 -0.023114)
 31:    468.18   0.000481    2.43  0.000320  (-0.009682 -0.015044  0.000630)
 32:    478.78   0.000329    1.66  0.000214  ( 0.007571  0.006194  0.010892)
 33:    490.88   0.001055    5.33  0.000671  ( 0.023059  0.007051 -0.009447)
 34:    547.74   0.001928    9.74  0.001098  ( 0.019246  0.026401 -0.005557)
 35:    579.50   0.000094    0.47  0.000050  ( 0.001568 -0.005936 -0.003566)
 36:    597.58   0.006010   30.37  0.003139  (-0.047075  0.030303  0.002043)
 37:    609.24   0.001415    7.15  0.000725  (-0.000223  0.003072 -0.026745)
 38:    655.20   0.003416   17.26  0.001627  (-0.000741 -0.025386 -0.031337)
 39:    768.40   0.000230    1.16  0.000093  (-0.004641  0.007492  0.003966)
 40:    780.30   0.002799   14.15  0.001119  ( 0.008353 -0.023365 -0.022443)
 41:    803.59   0.002720   13.75  0.001056  (-0.005165  0.016294 -0.027644)
 42:    834.00   0.007018   35.47  0.002626  (-0.023764  0.026846  0.036616)
 43:    927.30   0.014478   73.16  0.004872  ( 0.060953  0.029503  0.016926)
 44:    957.85   0.003539   17.88  0.001153  ( 0.015241 -0.019520 -0.023229)
 45:    966.91   0.000612    3.10  0.000198  ( 0.007780  0.011615  0.001492)
 46:    976.47   0.006517   32.94  0.002083  (-0.005891 -0.039439  0.022196)
 47:    992.60   0.002351   11.88  0.000739  ( 0.005699  0.005068  0.026096)
 48:   1004.66   0.007415   37.47  0.002303  (-0.000568 -0.047651 -0.005675)
 49:   1058.06   0.007234   36.56  0.002134  ( 0.020652 -0.022610 -0.034582)
 50:   1064.93   0.007264   36.71  0.002129  ( 0.037655 -0.026655  0.000384)
 51:   1069.95   0.000264    1.33  0.000077  ( 0.000541  0.008045 -0.003453)
 52:   1079.86   0.003251   16.43  0.000940  ( 0.000288 -0.001388  0.030621)
 53:   1100.33   0.000006    0.03  0.000002  ( 0.000497 -0.000837 -0.000838)
 54:   1117.58   0.000037    0.19  0.000010  (-0.000676 -0.002443  0.001990)
 55:   1126.43   0.000479    2.42  0.000133  ( 0.000288  0.000829 -0.011490)
 56:   1158.99   0.039752  200.89  0.010703  (-0.088541  0.038074  0.037606)
 57:   1167.06   0.000272    1.37  0.000073  ( 0.007680 -0.002984  0.002195)
 58:   1177.20   0.000896    4.53  0.000238  ( 0.014987 -0.000383  0.003576)
 59:   1179.69   0.001789    9.04  0.000473  (-0.020420  0.005942  0.004593)
 60:   1228.71   0.001556    7.86  0.000395  ( 0.018077  0.005905 -0.005794)
 61:   1271.09   0.014984   75.72  0.003679  (-0.026542  0.054441 -0.003223)
 62:   1274.83   0.004032   20.38  0.000987  ( 0.027973 -0.014191 -0.001751)
 63:   1279.99   0.011653   58.89  0.002841  (-0.039107 -0.033958 -0.012591)
 64:   1302.21   0.020299  102.58  0.004865  (-0.008974  0.066887  0.017609)
 65:   1311.43   0.000105    0.53  0.000025  ( 0.004375 -0.002408  0.000123)
 66:   1350.11   0.005137   25.96  0.001187  ( 0.000256 -0.029816 -0.017271)
 67:   1380.67   0.006853   34.63  0.001549  (-0.032280  0.011738  0.019213)
 68:   1390.13   0.009113   46.05  0.002046  ( 0.036838  0.001560 -0.026196)
 69:   1395.79   0.006244   31.55  0.001396  ( 0.012494 -0.023028 -0.026637)
 70:   1409.49   0.005077   25.66  0.001124  (-0.026774 -0.017975  0.009176)
 71:   1440.70   0.016967   85.74  0.003675  (-0.052352  0.020150  0.022987)
 72:   1449.99   0.008768   44.31  0.001887  ( 0.036426 -0.018326  0.014976)
 73:   1450.44   0.003249   16.42  0.000699  (-0.000407 -0.016281 -0.020828)
 74:   1468.27   0.009703   49.03  0.002062  ( 0.008137 -0.044394 -0.005016)
 75:   1472.14   0.001144    5.78  0.000242  (-0.007030  0.012675  0.005688)
 76:   1475.01   0.024023  121.40  0.005083  ( 0.016703 -0.067567 -0.015436)
 77:   1478.33   0.007827   39.55  0.001652  ( 0.026946  0.025429 -0.016718)
 78:   1484.91   0.007231   36.54  0.001520  ( 0.002131 -0.019414 -0.033737)
 79:   1489.36   0.003469   17.53  0.000727  ( 0.002619  0.026486  0.004289)
 80:   1493.61   0.000038    0.19  0.000008  (-0.000508 -0.002742  0.000485)
 81:   1494.88   0.001986   10.03  0.000415  ( 0.007129 -0.000218  0.019069)
 82:   1496.05   0.001263    6.38  0.000263  (-0.010568  0.008389 -0.009022)
 83:   1497.79   0.000199    1.01  0.000042  ( 0.000348 -0.003889 -0.005125)
 84:   1500.51   0.002158   10.91  0.000449  ( 0.007152  0.000456  0.019936)
 85:   1501.46   0.009012   45.54  0.001873  ( 0.002371 -0.043087 -0.003291)
 86:   1504.13   0.005601   28.30  0.001162  (-0.008297  0.008497 -0.031952)
 87:   1511.33   0.009007   45.52  0.001860  ( 0.019330  0.038471 -0.002476)
 88:   1517.61   0.001662    8.40  0.000342  (-0.003226  0.017431  0.005247)
 89:   1525.15   0.016801   84.90  0.003438  ( 0.054240  0.000246  0.022260)
 90:   1526.96   0.004616   23.33  0.000943  (-0.011274  0.016849  0.023073)
 91:   1530.33   0.011002   55.60  0.002244  ( 0.027620  0.032268  0.020963)
 92:   1536.84   0.015601   78.84  0.003168  (-0.017385 -0.041245  0.034123)
 93:   1551.55   0.012001   60.65  0.002414  (-0.037223  0.031986 -0.002271)
 94:   1663.15   0.068143  344.37  0.012786  ( 0.079939 -0.071587 -0.035651)
 95:   1675.40   0.234866  1186.92  0.043747  (-0.113858  0.062882  0.163795)
 96:   3041.77   0.007355   37.17  0.000755  (-0.015863  0.005871 -0.021643)
 97:   3046.30   0.019055   96.30  0.001952  (-0.038738 -0.003700  0.020921)
 98:   3061.33   0.000640    3.24  0.000065  (-0.006046 -0.003631  0.003943)
 99:   3097.19   0.002645   13.37  0.000267  (-0.014362  0.005209  0.005754)
100:   3097.66   0.002077   10.50  0.000209  ( 0.000854  0.000422  0.014435)
101:   3100.07   0.000961    4.85  0.000097  ( 0.001619 -0.009155 -0.003202)
102:   3103.21   0.009770   49.37  0.000982  ( 0.000014 -0.031258 -0.002312)
103:   3103.72   0.001580    7.99  0.000159  ( 0.008421 -0.005668 -0.007473)
104:   3109.46   0.003752   18.96  0.000377  ( 0.001316 -0.018254 -0.006448)
105:   3112.12   0.000778    3.93  0.000078  (-0.000426 -0.008726 -0.001295)
106:   3117.87   0.004821   24.36  0.000483  (-0.000403  0.017512 -0.013255)
107:   3124.65   0.001363    6.89  0.000136  ( 0.007986 -0.000606  0.008485)
108:   3146.41   0.000550    2.78  0.000055  (-0.006008 -0.004105  0.001268)
109:   3161.75   0.000401    2.03  0.000040  (-0.003927 -0.002567  0.004191)
110:   3165.24   0.002686   13.57  0.000265  ( 0.006063 -0.013944 -0.005797)
111:   3179.03   0.001365    6.90  0.000134  (-0.007911  0.005908  0.006043)
112:   3188.78   0.000977    4.94  0.000096  (-0.009733  0.000077  0.000931)
113:   3189.54   0.002421   12.24  0.000237  ( 0.010365 -0.001815  0.011233)
114:   3193.54   0.000018    0.09  0.000002  ( 0.000072  0.001165  0.000632)
115:   3194.66   0.000141    0.71  0.000014  ( 0.003104 -0.001064 -0.001744)
116:   3199.93   0.000813    4.11  0.000079  (-0.000518  0.008853 -0.000782)
117:   3200.76   0.001148    5.80  0.000112  (-0.007897 -0.002257  0.006666)
118:   3203.68   0.000492    2.49  0.000048  ( 0.004987  0.003159  0.003618)
119:   3210.90   0.000849    4.29  0.000083  (-0.005641 -0.000707 -0.007086)

* The epsilon (eps) is given for a Dirac delta lineshape.
** The dipole moment derivative (T) already includes vibrational overlap.

The first frequency considered to be a vibration is 7
The total number of vibrations considered is 113


--------------------------
THERMOCHEMISTRY AT 298.15K
--------------------------

Temperature         ... 298.15 K
Pressure            ... 1.00 atm
Total Mass          ... 230.33 AMU

Throughout the following assumptions are being made:
  (1) The electronic state is orbitally nondegenerate
  (2) There are no thermally accessible electronically excited states
  (3) Hindered rotations indicated by low frequency modes are not
      treated as such but are treated as vibrations and this may
      cause some error
  (4) All equations used are the standard statistical mechanics
      equations for an ideal gas
  (5) All vibrations are strictly harmonic

freq.      19.65  E(vib)   ...       0.56 
freq.      40.78  E(vib)   ...       0.54 
freq.      42.56  E(vib)   ...       0.53 
freq.      54.21  E(vib)   ...       0.52 
freq.      68.47  E(vib)   ...       0.50 
freq.      83.06  E(vib)   ...       0.48 
freq.     102.00  E(vib)   ...       0.46 
freq.     122.38  E(vib)   ...       0.43 
freq.     127.14  E(vib)   ...       0.43 
freq.     181.89  E(vib)   ...       0.37 
freq.     184.37  E(vib)   ...       0.37 
freq.     218.33  E(vib)   ...       0.33 
freq.     240.87  E(vib)   ...       0.31 
freq.     248.04  E(vib)   ...       0.31 
freq.     261.73  E(vib)   ...       0.30 
freq.     311.68  E(vib)   ...       0.25 
freq.     318.58  E(vib)   ...       0.25 
freq.     327.82  E(vib)   ...       0.24 
freq.     369.83  E(vib)   ...       0.21 
freq.     376.52  E(vib)   ...       0.21 
freq.     383.42  E(vib)   ...       0.20 
freq.     405.09  E(vib)   ...       0.19 
freq.     430.26  E(vib)   ...       0.18 
freq.     460.48  E(vib)   ...       0.16 
freq.     468.18  E(vib)   ...       0.16 
freq.     478.78  E(vib)   ...       0.15 
freq.     490.88  E(vib)   ...       0.14 
freq.     547.74  E(vib)   ...       0.12 
freq.     579.50  E(vib)   ...       0.11 
freq.     597.58  E(vib)   ...       0.10 
freq.     609.24  E(vib)   ...       0.10 
freq.     655.20  E(vib)   ...       0.08 
freq.     768.40  E(vib)   ...       0.06 
freq.     780.30  E(vib)   ...       0.05 
freq.     803.59  E(vib)   ...       0.05 
freq.     834.00  E(vib)   ...       0.04 
freq.     927.30  E(vib)   ...       0.03 
freq.     957.85  E(vib)   ...       0.03 
freq.     966.91  E(vib)   ...       0.03 
freq.     976.47  E(vib)   ...       0.03 
freq.     992.60  E(vib)   ...       0.02 
freq.    1004.66  E(vib)   ...       0.02 
freq.    1058.06  E(vib)   ...       0.02 
freq.    1064.93  E(vib)   ...       0.02 
freq.    1069.95  E(vib)   ...       0.02 
freq.    1079.86  E(vib)   ...       0.02 
freq.    1100.33  E(vib)   ...       0.02 
freq.    1117.58  E(vib)   ...       0.01 
freq.    1126.43  E(vib)   ...       0.01 
freq.    1158.99  E(vib)   ...       0.01 
freq.    1167.06  E(vib)   ...       0.01 
freq.    1177.20  E(vib)   ...       0.01 
freq.    1179.69  E(vib)   ...       0.01 
freq.    1228.71  E(vib)   ...       0.01 
freq.    1271.09  E(vib)   ...       0.01 
freq.    1274.83  E(vib)   ...       0.01 
freq.    1279.99  E(vib)   ...       0.01 
freq.    1302.21  E(vib)   ...       0.01 
freq.    1311.43  E(vib)   ...       0.01 
freq.    1350.11  E(vib)   ...       0.01 
freq.    1380.67  E(vib)   ...       0.01 
freq.    1390.13  E(vib)   ...       0.00 
freq.    1395.79  E(vib)   ...       0.00 
freq.    1409.49  E(vib)   ...       0.00 
freq.    1440.70  E(vib)   ...       0.00 
freq.    1449.99  E(vib)   ...       0.00 
freq.    1450.44  E(vib)   ...       0.00 
freq.    1468.27  E(vib)   ...       0.00 
freq.    1472.14  E(vib)   ...       0.00 
freq.    1475.01  E(vib)   ...       0.00 
freq.    1478.33  E(vib)   ...       0.00 
freq.    1484.91  E(vib)   ...       0.00 
freq.    1489.36  E(vib)   ...       0.00 
freq.    1493.61  E(vib)   ...       0.00 
freq.    1494.88  E(vib)   ...       0.00 
freq.    1496.05  E(vib)   ...       0.00 
freq.    1497.79  E(vib)   ...       0.00 
freq.    1500.51  E(vib)   ...       0.00 
freq.    1501.46  E(vib)   ...       0.00 
freq.    1504.13  E(vib)   ...       0.00 
freq.    1511.33  E(vib)   ...       0.00 
freq.    1517.61  E(vib)   ...       0.00 
freq.    1525.15  E(vib)   ...       0.00 
freq.    1526.96  E(vib)   ...       0.00 
freq.    1530.33  E(vib)   ...       0.00 
freq.    1536.84  E(vib)   ...       0.00 
freq.    1551.55  E(vib)   ...       0.00 
freq.    1663.15  E(vib)   ...       0.00 
freq.    1675.40  E(vib)   ...       0.00 
freq.    3041.77  E(vib)   ...       0.00 
freq.    3046.30  E(vib)   ...       0.00 
freq.    3061.33  E(vib)   ...       0.00 
freq.    3097.19  E(vib)   ...       0.00 
freq.    3097.66  E(vib)   ...       0.00 
freq.    3100.07  E(vib)   ...       0.00 
freq.    3103.21  E(vib)   ...       0.00 
freq.    3103.72  E(vib)   ...       0.00 
freq.    3109.46  E(vib)   ...       0.00 
freq.    3112.12  E(vib)   ...       0.00 
freq.    3117.87  E(vib)   ...       0.00 
freq.    3124.65  E(vib)   ...       0.00 
freq.    3146.41  E(vib)   ...       0.00 
freq.    3161.75  E(vib)   ...       0.00 
freq.    3165.24  E(vib)   ...       0.00 
freq.    3179.03  E(vib)   ...       0.00 
freq.    3188.78  E(vib)   ...       0.00 
freq.    3189.54  E(vib)   ...       0.00 
freq.    3193.54  E(vib)   ...       0.00 
freq.    3194.66  E(vib)   ...       0.00 
freq.    3199.93  E(vib)   ...       0.00 
freq.    3200.76  E(vib)   ...       0.00 
freq.    3203.68  E(vib)   ...       0.00 
freq.    3210.90  E(vib)   ...       0.00 

------------
INNER ENERGY
------------

The inner energy is: U= E(el) + E(ZPE) + E(vib) + E(rot) + E(trans)
    E(el)   - is the total energy from the electronic structure calculation
              = E(kin-el) + E(nuc-el) + E(el-el) + E(nuc-nuc)
    E(ZPE)  - the the zero temperature vibrational energy from the frequency calculation
    E(vib)  - the the finite temperature correction to E(ZPE) due to population
              of excited vibrational states
    E(rot)  - is the rotational thermal energy
    E(trans)- is the translational thermal energy

Summary of contributions to the inner energy U:
Electronic energy                ...   -747.82533461 Eh
Zero point energy                ...      0.36176917 Eh     227.01 kcal/mol
Thermal vibrational correction   ...      0.01589062 Eh       9.97 kcal/mol
Thermal rotational correction    ...      0.00141627 Eh       0.89 kcal/mol
Thermal translational correction ...      0.00141627 Eh       0.89 kcal/mol
-----------------------------------------------------------------------
Total thermal energy                   -747.44484228 Eh


Summary of corrections to the electronic energy:
(perhaps to be used in another calculation)
Total thermal correction                  0.01872316 Eh      11.75 kcal/mol
Non-thermal (ZPE) correction              0.36176917 Eh     227.01 kcal/mol
-----------------------------------------------------------------------
Total correction                          0.38049233 Eh     238.76 kcal/mol


--------
ENTHALPY
--------

The enthalpy is H = U + kB*T
                kB is Boltzmann's constant
Total free energy                 ...   -747.44484228 Eh 
Thermal Enthalpy correction       ...      0.00094421 Eh       0.59 kcal/mol
-----------------------------------------------------------------------
Total Enthalpy                    ...   -747.44389807 Eh


Note: Only C1 symmetry has been detected, increase convergence thresholds 
      if your molecule has a higher symmetry. Symmetry factor of 1.0 is   
      used for the rotational entropy correction. 
 

Note: Rotational entropy computed according to Herzberg 
Infrared and Raman Spectra, Chapter V,1, Van Nostrand Reinhold, 1945 
Point Group:  C1, Symmetry Number:   1  
Rotational constants in cm-1:     0.025303     0.008717     0.007444 

Vibrational entropy computed according to the QRRHO of S. Grimme
Chem.Eur.J. 2012 18 9955


-------
ENTROPY
-------

The entropy contributions are T*S = T*(S(el)+S(vib)+S(rot)+S(trans))
     S(el)   - electronic entropy
     S(vib)  - vibrational entropy
     S(rot)  - rotational entropy
     S(trans)- translational entropy
The entropies will be listed as multiplied by the temperature to get
units of energy

Electronic entropy                ...      0.00000000 Eh      0.00 kcal/mol
Vibrational entropy               ...      0.02841717 Eh     17.83 kcal/mol
Rotational entropy                ...      0.01579889 Eh      9.91 kcal/mol
Translational entropy             ...      0.02005291 Eh     12.58 kcal/mol
-----------------------------------------------------------------------
Final entropy term                ...      0.06426897 Eh     40.33 kcal/mol

In case the symmetry of your molecule has not been determined correctly
or in case you have a reason to use a different symmetry number we print 
out the resulting rotational entropy values for sn=1,12 :
 --------------------------------------------------------
|  sn= 1 | S(rot)=       0.01579889 Eh      9.91 kcal/mol|
|  sn= 2 | S(rot)=       0.01514443 Eh      9.50 kcal/mol|
|  sn= 3 | S(rot)=       0.01476160 Eh      9.26 kcal/mol|
|  sn= 4 | S(rot)=       0.01448998 Eh      9.09 kcal/mol|
|  sn= 5 | S(rot)=       0.01427929 Eh      8.96 kcal/mol|
|  sn= 6 | S(rot)=       0.01410715 Eh      8.85 kcal/mol|
|  sn= 7 | S(rot)=       0.01396160 Eh      8.76 kcal/mol|
|  sn= 8 | S(rot)=       0.01383552 Eh      8.68 kcal/mol|
|  sn= 9 | S(rot)=       0.01372431 Eh      8.61 kcal/mol|
|  sn=10 | S(rot)=       0.01362483 Eh      8.55 kcal/mol|
|  sn=11 | S(rot)=       0.01353484 Eh      8.49 kcal/mol|
|  sn=12 | S(rot)=       0.01345269 Eh      8.44 kcal/mol|
 --------------------------------------------------------


-------------------
GIBBS FREE ENERGY
-------------------

The Gibbs free energy is G = H - T*S

Total enthalpy                    ...   -747.44389807 Eh 
Total entropy correction          ...     -0.06426897 Eh    -40.33 kcal/mol
-----------------------------------------------------------------------
Final Gibbs free energy         ...   -747.50816704 Eh

For completeness - the Gibbs free energy minus the electronic energy
G-E(el)                           ...      0.31716757 Eh    199.03 kcal/mol


Timings for individual modules:

Sum of individual times         ...     3994.390 sec (=  66.573 min)
GTO integral calculation        ...       28.567 sec (=   0.476 min)   0.7 %
SCF iterations                  ...     1944.156 sec (=  32.403 min)  48.7 %
SCF Gradient evaluation         ...      542.997 sec (=   9.050 min)  13.6 %
Geometry relaxation             ...        1.655 sec (=   0.028 min)   0.0 %
Analytical frequency calculation...     1477.015 sec (=  24.617 min)  37.0 %
                             ****ORCA TERMINATED NORMALLY****
TOTAL RUN TIME: 0 days 1 hours 6 minutes 41 seconds 158 msec
