
                                 *****************
                                 * O   R   C   A *
                                 *****************

                                            #,                                       
                                            ###                                      
                                            ####                                     
                                            #####                                    
                                            ######                                   
                                           ########,                                 
                                     ,,################,,,,,                         
                               ,,#################################,,                 
                          ,,##########################################,,             
                       ,#########################################, ''#####,          
                    ,#############################################,,   '####,        
                  ,##################################################,,,,####,       
                ,###########''''           ''''###############################       
              ,#####''   ,,,,##########,,,,          '''####'''          '####       
            ,##' ,,,,###########################,,,                        '##       
           ' ,,###''''                  '''############,,,                           
         ,,##''                                '''############,,,,        ,,,,,,###''
      ,#''                                            '''#######################'''  
     '                                                          ''''####''''         
             ,#######,   #######,   ,#######,      ##                                
            ,#'     '#,  ##    ##  ,#'     '#,    #''#        ######   ,####,        
            ##       ##  ##   ,#'  ##            #'  '#       #        #'  '#        
            ##       ##  #######   ##           ,######,      #####,   #    #        
            '#,     ,#'  ##    ##  '#,     ,#' ,#      #,         ##   #,  ,#        
             '#######'   ##     ##  '#######'  #'      '#     #####' # '####'        



                  #######################################################
                  #                        -***-                        #
                  #          Department of theory and spectroscopy      #
                  #    Directorship and core code : Frank Neese         #
                  #        Max Planck Institute fuer Kohlenforschung    #
                  #                Kaiser Wilhelm Platz 1               #
                  #                 D-45470 Muelheim/Ruhr               #
                  #                      Germany                        #
                  #                                                     #
                  #                  All rights reserved                #
                  #                        -***-                        #
                  #######################################################


                         Program Version 5.0.4 -  RELEASE  -


 With contributions from (in alphabetic order):
   Daniel Aravena         : Magnetic Suceptibility
   Michael Atanasov       : Ab Initio Ligand Field Theory (pilot matlab implementation)
   Alexander A. Auer      : GIAO ZORA, VPT2 properties, NMR spectrum
   Ute Becker             : Parallelization
   Giovanni Bistoni       : ED, misc. LED, open-shell LED, HFLD
   Martin Brehm           : Molecular dynamics
   Dmytro Bykov           : SCF Hessian
   Vijay G. Chilkuri      : MRCI spin determinant printing, contributions to CSF-ICE
   Dipayan Datta          : RHF DLPNO-CCSD density
   Achintya Kumar Dutta   : EOM-CC, STEOM-CC
   Dmitry Ganyushin       : Spin-Orbit,Spin-Spin,Magnetic field MRCI
   Miquel Garcia          : C-PCM and meta-GGA Hessian, CC/C-PCM, Gaussian charge scheme
   Yang Guo               : DLPNO-NEVPT2, F12-NEVPT2, CIM, IAO-localization
   Andreas Hansen         : Spin unrestricted coupled pair/coupled cluster methods
   Benjamin Helmich-Paris : MC-RPA, TRAH-SCF, COSX integrals
   Lee Huntington         : MR-EOM, pCC
   Robert Izsak           : Overlap fitted RIJCOSX, COSX-SCS-MP3, EOM
   Marcus Kettner         : VPT2
   Christian Kollmar      : KDIIS, OOCD, Brueckner-CCSD(T), CCSD density, CASPT2, CASPT2-K
   Simone Kossmann        : Meta GGA functionals, TD-DFT gradient, OOMP2, MP2 Hessian
   Martin Krupicka        : Initial AUTO-CI
   Lucas Lang             : DCDCAS
   Marvin Lechner         : AUTO-CI (C++ implementation), FIC-MRCC
   Dagmar Lenk            : GEPOL surface, SMD
   Dimitrios Liakos       : Extrapolation schemes; Compound Job, initial MDCI parallelization
   Dimitrios Manganas     : Further ROCIS development; embedding schemes
   Dimitrios Pantazis     : SARC Basis sets
   Anastasios Papadopoulos: AUTO-CI, single reference methods and gradients
   Taras Petrenko         : DFT Hessian,TD-DFT gradient, ASA, ECA, R-Raman, ABS, FL, XAS/XES, NRVS
   Peter Pinski           : DLPNO-MP2, DLPNO-MP2 Gradient
   Christoph Reimann      : Effective Core Potentials
   Marius Retegan         : Local ZFS, SOC
   Christoph Riplinger    : Optimizer, TS searches, QM/MM, DLPNO-CCSD(T), (RO)-DLPNO pert. Triples
   Tobias Risthaus        : Range-separated hybrids, TD-DFT gradient, RPA, STAB
   Michael Roemelt        : Original ROCIS implementation
   Masaaki Saitow         : Open-shell DLPNO-CCSD energy and density
   Barbara Sandhoefer     : DKH picture change effects
   Avijit Sen             : IP-ROCIS
   Kantharuban Sivalingam : CASSCF convergence, NEVPT2, FIC-MRCI
   Bernardo de Souza      : ESD, SOC TD-DFT
   Georgi Stoychev        : AutoAux, RI-MP2 NMR, DLPNO-MP2 response
   Willem Van den Heuvel  : Paramagnetic NMR
   Boris Wezisla          : Elementary symmetry handling
   Frank Wennmohs         : Technical directorship


 We gratefully acknowledge several colleagues who have allowed us to
 interface, adapt or use parts of their codes:
   Stefan Grimme, W. Hujo, H. Kruse, P. Pracht,  : VdW corrections, initial TS optimization,
                  C. Bannwarth, S. Ehlert          DFT functionals, gCP, sTDA/sTD-DF
   Ed Valeev, F. Pavosevic, A. Kumar             : LibInt (2-el integral package), F12 methods
   Garnet Chan, S. Sharma, J. Yang, R. Olivares  : DMRG
   Ulf Ekstrom                                   : XCFun DFT Library
   Mihaly Kallay                                 : mrcc  (arbitrary order and MRCC methods)
   Jiri Pittner, Ondrej Demel                    : Mk-CCSD
   Frank Weinhold                                : gennbo (NPA and NBO analysis)
   Christopher J. Cramer and Donald G. Truhlar   : smd solvation model
   Lars Goerigk                                  : TD-DFT with DH, B97 family of functionals
   V. Asgeirsson, H. Jonsson                     : NEB implementation
   FAccTs GmbH                                   : IRC, NEB, NEB-TS, DLPNO-Multilevel, CI-OPT
                                                   MM, QMMM, 2- and 3-layer-ONIOM, Crystal-QMMM,
                                                   LR-CPCM, SF, NACMEs, symmetry and pop. for TD-DFT,
                                                   nearIR, NL-DFT gradient (VV10), updates on ESD,
                                                   ML-optimized integration grids
   S Lehtola, MJT Oliveira, MAL Marques          : LibXC Library
   Liviu Ungur et al                             : ANISO software


 Your calculation uses the libint2 library for the computation of 2-el integrals
 For citations please refer to: http://libint.valeyev.net

 Your ORCA version has been built with support for libXC version: 5.1.0
 For citations please refer to: https://tddft.org/programs/libxc/

 This ORCA versions uses:
   CBLAS   interface :  Fast vector & matrix operations
   LAPACKE interface :  Fast linear algebra routines
   SCALAPACK package :  Parallel linear algebra routines
   Shared memory     :  Shared parallel matrices
   BLAS/LAPACK       :  OpenBLAS 0.3.15  USE64BITINT DYNAMIC_ARCH NO_AFFINITY SkylakeX SINGLE_THREADED
        Core in use  :  SkylakeX
   Copyright (c) 2011-2014, The OpenBLAS Project




***************************************
The coordinates will be read from file: /users/fjb15167/WWenergy/structures/Nl.xyz
***************************************


Your calculation utilizes the atom-pairwise dispersion correction
based on tight binding partial charges (D4)
Cite in your paper:
E.Caldeweyher, C.Bannwarth, S.Grimme, J.Chem.Phys., (2017), 147, 034112.
E.Caldeweyher, S.Ehlert, A.Hansen, H.Neugebauer, S.Grimme, J.Chem.Phys., (2018), in progress.
   

================================================================================

----- Orbital basis set information -----
Your calculation utilizes the basis: 6-31G(d)
   H-He, Li-Ne : W. J. Hehre, R. Ditchfield and J.A. Pople, J. Chem. Phys. 56, 2257 (1972).
                 Note: He and Ne are unpublished basis sets taken from the Gaussian program.
                 Note: Li and B from J. D. Dill and J. A. Pople, J. Chem. Phys. 62, 2921 (1975).
   Na - Ar     : M. M. Francl, W. J. Pietro, W. J. Hehre, J. S. Binkley, M. S. Gordon, 
                 D. J. DeFrees and J. A. Pople, J. Chem. Phys. 77, 3654 (1982).
   K - Zn      : V. A. Rassolov, J. A. Pople, M. A. Ratner, and T. L. Windus, J. Chem. Phys. 109, 1223 (1998).

----- AuxJ basis set information -----
Your calculation utilizes the AutoAux generation procedure.
  G. L. Stoychev, A. A. Auer, F. Neese, J. Chem. Theory Comput. 13, 554 (2017)

----- AuxC basis set information -----
Your calculation utilizes the AutoAux generation procedure.
  G. L. Stoychev, A. A. Auer, F. Neese, J. Chem. Theory Comput. 13, 554 (2017)

----- AuxJK basis set information -----
Your calculation utilizes the AutoAux generation procedure.
  G. L. Stoychev, A. A. Auer, F. Neese, J. Chem. Theory Comput. 13, 554 (2017)

================================================================================
                                        WARNINGS
                       Please study these warnings very carefully!
================================================================================


WARNING: Geometry Optimization
  ===> : Switching off AutoStart
         For restart on a previous wavefunction, please use MOREAD

INFO   : the flag for use of the SHARK integral package has been found!

================================================================================
                                       INPUT FILE
================================================================================
NAME = Nl_gas.inp
|  1> ! OPT FREQ B3LYP 6-31G(d) D4 AUTOAUX
|  2> 
|  3> %PAL NPROCS 4 END
|  4> 
|  5> %maxcore 3375
|  6> 
|  7> *xyzfile 0 1 /users/fjb15167/WWenergy/structures/Nl.xyz
|  8> 
|  9>                          ****END OF INPUT****
================================================================================

                       *****************************
                       * Geometry Optimization Run *
                       *****************************

Geometry optimization settings:
Update method            Update   .... BFGS
Choice of coordinates    CoordSys .... Z-matrix Internals
Initial Hessian          InHess   .... Almoef's Model

Convergence Tolerances:
Energy Change            TolE     ....  5.0000e-06 Eh
Max. Gradient            TolMAXG  ....  3.0000e-04 Eh/bohr
RMS Gradient             TolRMSG  ....  1.0000e-04 Eh/bohr
Max. Displacement        TolMAXD  ....  4.0000e-03 bohr
RMS Displacement         TolRMSD  ....  2.0000e-03 bohr
Strict Convergence                ....  False
------------------------------------------------------------------------------
                        ORCA OPTIMIZATION COORDINATE SETUP
------------------------------------------------------------------------------

The optimization will be done in new redundant internal coordinates
Making redundant internal coordinates   ...  (new redundants) done
Evaluating the initial hessian          ...  (Almloef) done
Evaluating the coordinates              ...  done
Calculating the B-matrix                .... done
Calculating the G-matrix                .... done
Diagonalizing the G-matrix              .... done
Small eigenvalue found = 5.210e-03
Small eigenvalue found = 6.631e-03
Small eigenvalue found = 1.117e-02
Small eigenvalue found = 1.595e-02
Small eigenvalue found = 2.574e-02
The first mode is                       ....   68
The number of degrees of freedom        ....   96

    -----------------------------------------------------------------
                    Redundant Internal Coordinates


    -----------------------------------------------------------------
         Definition                    Initial Value    Approx d2E/dq
    -----------------------------------------------------------------
      1. B(H   1,C   0)                  1.0937         0.355292   
      2. B(H   2,C   0)                  1.0891         0.361229   
      3. B(H   3,C   0)                  1.0940         0.354782   
      4. B(C   4,C   0)                  1.5188         0.389206   
      5. B(O   5,C   4)                  1.2353         0.987841   
      6. B(N   6,C   4)                  1.3833         0.573461   
      7. B(C   7,N   6)                  1.4637         0.426884   
      8. B(H   8,C   7)                  1.0974         0.350482   
      9. B(H   9,C   7)                  1.0903         0.359761   
     10. B(C  10,C   7)                  1.5293         0.374506   
     11. B(N  11,C  10)                  1.3637         0.616384   
     12. B(O  12,C  10)                  1.2390         0.974345   
     13. B(C  13,N  11)                  1.4535         0.443228   
     14. B(H  14,C  13)                  1.0943         0.354420   
     15. B(H  15,C  13)                  1.0975         0.350336   
     16. B(H  16,C  13)                  1.0871         0.363913   
     17. B(C  17,N  11)                  1.4547         0.441295   
     18. B(H  18,C  17)                  1.0952         0.353237   
     19. B(H  19,C  17)                  1.0887         0.361890   
     20. B(H  20,C  17)                  1.0945         0.354191   
     21. B(C  21,N   6)                  1.4746         0.410098   
     22. B(H  22,C  21)                  1.0942         0.354624   
     23. B(C  23,C  21)                  1.5278         0.376667   
     24. B(H  24,C  23)                  1.0944         0.354384   
     25. B(C  25,C  23)                  1.5288         0.375193   
     26. B(H  26,C  25)                  1.0947         0.353907   
     27. B(H  27,C  25)                  1.0947         0.353906   
     28. B(H  28,C  25)                  1.0960         0.352215   
     29. B(H  29,C  21)                  1.0978         0.349967   
     30. B(C  30,C  23)                  1.5253         0.380032   
     31. B(H  31,C  30)                  1.0968         0.351273   
     32. B(H  32,C  30)                  1.0923         0.357121   
     33. B(H  33,C  30)                  1.0950         0.353527   
     34. A(H   3,C   0,C   4)          111.3144         0.325714   
     35. A(H   1,C   0,H   3)          108.0691         0.289550   
     36. A(H   2,C   0,C   4)          106.6595         0.326681   
     37. A(H   1,C   0,C   4)          112.9048         0.325791   
     38. A(H   2,C   0,H   3)          108.8104         0.290303   
     39. A(H   1,C   0,H   2)          108.9957         0.290369   
     40. A(C   0,C   4,N   6)          118.5689         0.391605   
     41. A(O   5,C   4,N   6)          120.8186         0.459546   
     42. A(C   0,C   4,O   5)          120.6118         0.431241   
     43. A(C   4,N   6,C   7)          121.9021         0.395457   
     44. A(C   7,N   6,C  21)          115.8634         0.373061   
     45. A(C   4,N   6,C  21)          115.4916         0.392688   
     46. A(N   6,C   7,C  10)          111.7949         0.369592   
     47. A(H   8,C   7,H   9)          108.1888         0.289564   
     48. A(N   6,C   7,H   8)          110.8970         0.328067   
     49. A(N   6,C   7,H   9)          109.9058         0.329485   
     50. A(H   9,C   7,C  10)          110.6857         0.324401   
     51. A(H   8,C   7,C  10)          105.2282         0.323013   
     52. A(N  11,C  10,O  12)          122.9617         0.464479   
     53. A(C   7,C  10,O  12)          119.4740         0.427217   
     54. A(C   7,C  10,N  11)          117.5642         0.393920   
     55. A(C  13,N  11,C  17)          116.3391         0.380281   
     56. A(C  10,N  11,C  13)          124.5674         0.403165   
     57. A(C  10,N  11,C  17)          119.0927         0.402855   
     58. A(H  14,C  13,H  16)          107.5614         0.290594   
     59. A(H  15,C  13,H  16)          110.1116         0.290066   
     60. A(N  11,C  13,H  16)          110.3135         0.332170   
     61. A(H  14,C  13,H  15)          108.3389         0.288867   
     62. A(N  11,C  13,H  15)          111.8617         0.330086   
     63. A(N  11,C  13,H  14)          108.5223         0.330719   
     64. A(H  18,C  17,H  19)          109.5650         0.290188   
     65. A(N  11,C  17,H  19)          108.1710         0.331623   
     66. A(N  11,C  17,H  18)          110.2726         0.330297   
     67. A(H  19,C  17,H  20)          109.9349         0.290311   
     68. A(H  18,C  17,H  20)          108.9812         0.289211   
     69. A(N  11,C  17,H  20)          109.9063         0.330445   
     70. A(H  22,C  21,H  29)          108.4488         0.288845   
     71. A(N   6,C  21,H  29)          108.0019         0.325827   
     72. A(C  23,C  21,H  29)          109.0543         0.323240   
     73. A(H  22,C  21,C  23)          109.5635         0.323942   
     74. A(N   6,C  21,C  23)          114.4699         0.367419   
     75. A(N   6,C  21,H  22)          107.1361         0.326537   
     76. A(C  25,C  23,C  30)          110.7893         0.364687   
     77. A(H  24,C  23,C  30)          109.2415         0.324379   
     78. A(C  21,C  23,C  30)          112.0754         0.364932   
     79. A(H  24,C  23,C  25)          108.6053         0.323698   
     80. A(C  21,C  23,C  25)          108.6716         0.364133   
     81. A(C  21,C  23,H  24)          107.3407         0.323906   
     82. A(H  27,C  25,H  28)          108.2162         0.289043   
     83. A(H  26,C  25,H  28)          107.8208         0.289043   
     84. A(C  23,C  25,H  28)          110.6487         0.323372   
     85. A(H  26,C  25,H  27)          107.9518         0.289260   
     86. A(C  23,C  25,H  27)          111.2864         0.323626   
     87. A(C  23,C  25,H  26)          110.7890         0.323626   
     88. A(H  32,C  30,H  33)          108.0971         0.289622   
     89. A(H  31,C  30,H  33)          108.1376         0.288874   
     90. A(C  23,C  30,H  33)          110.5043         0.324250   
     91. A(H  31,C  30,H  32)          108.1896         0.289332   
     92. A(C  23,C  30,H  32)          111.2285         0.324790   
     93. A(C  23,C  30,H  31)          110.5771         0.323910   
     94. D(O   5,C   4,C   0,H   1)    125.6184         0.011272   
     95. D(O   5,C   4,C   0,H   3)   -112.6265         0.011272   
     96. D(O   5,C   4,C   0,H   2)      5.9305         0.011272   
     97. D(N   6,C   4,C   0,H   1)    -54.0814         0.011272   
     98. D(N   6,C   4,C   0,H   2)   -173.7693         0.011272   
     99. D(N   6,C   4,C   0,H   3)     67.6737         0.011272   
    100. D(C   7,N   6,C   4,O   5)    162.6425         0.026338   
    101. D(C  21,N   6,C   4,C   0)   -167.6627         0.026338   
    102. D(C  21,N   6,C   4,O   5)     12.6382         0.026338   
    103. D(C   7,N   6,C   4,C   0)    -17.6583         0.026338   
    104. D(C  10,C   7,N   6,C   4)    150.3380         0.015537   
    105. D(H   8,C   7,N   6,C  21)     57.3344         0.015537   
    106. D(H   9,C   7,N   6,C   4)     27.0118         0.015537   
    107. D(H   9,C   7,N   6,C  21)    176.9127         0.015537   
    108. D(H   8,C   7,N   6,C   4)    -92.5665         0.015537   
    109. D(C  10,C   7,N   6,C  21)    -59.7610         0.015537   
    110. D(O  12,C  10,C   7,H   9)   -136.8089         0.010485   
    111. D(O  12,C  10,C   7,H   8)    -20.1558         0.010485   
    112. D(O  12,C  10,C   7,N   6)    100.3072         0.010485   
    113. D(N  11,C  10,C   7,H   8)    159.7251         0.010485   
    114. D(N  11,C  10,C   7,N   6)    -79.8119         0.010485   
    115. D(N  11,C  10,C   7,H   9)     43.0720         0.010485   
    116. D(C  17,N  11,C  10,C   7)   -177.7679         0.030737   
    117. D(C  13,N  11,C  10,O  12)   -177.5548         0.030737   
    118. D(C  13,N  11,C  10,C   7)      2.5688         0.030737   
    119. D(C  17,N  11,C  10,O  12)      2.1085         0.030737   
    120. D(H  15,C  13,N  11,C  10)    -97.6265         0.016753   
    121. D(H  14,C  13,N  11,C  17)    -36.7676         0.016753   
    122. D(H  15,C  13,N  11,C  17)     82.7018         0.016753   
    123. D(H  14,C  13,N  11,C  10)    142.9041         0.016753   
    124. D(H  16,C  13,N  11,C  10)     25.3016         0.016753   
    125. D(H  16,C  13,N  11,C  17)   -154.3701         0.016753   
    126. D(H  20,C  17,N  11,C  13)    -54.9653         0.016606   
    127. D(H  20,C  17,N  11,C  10)    125.3441         0.016606   
    128. D(H  19,C  17,N  11,C  13)   -174.9989         0.016606   
    129. D(H  19,C  17,N  11,C  10)      5.3105         0.016606   
    130. D(H  18,C  17,N  11,C  13)     65.2019         0.016606   
    131. D(H  18,C  17,N  11,C  10)   -114.4888         0.016606   
    132. D(H  29,C  21,N   6,C   7)   -111.1978         0.014347   
    133. D(H  29,C  21,N   6,C   4)     40.6598         0.014347   
    134. D(C  23,C  21,N   6,C   7)    127.1320         0.014347   
    135. D(C  23,C  21,N   6,C   4)    -81.0104         0.014347   
    136. D(H  22,C  21,N   6,C   7)      5.4432         0.014347   
    137. D(H  22,C  21,N   6,C   4)    157.3008         0.014347   
    138. D(C  30,C  23,C  21,H  29)    177.1347         0.011318   
    139. D(C  30,C  23,C  21,H  22)     58.5765         0.011318   
    140. D(C  30,C  23,C  21,N   6)    -61.7733         0.011318   
    141. D(C  25,C  23,C  21,H  29)     54.3599         0.011318   
    142. D(C  25,C  23,C  21,H  22)    -64.1984         0.011318   
    143. D(C  25,C  23,C  21,N   6)    175.4519         0.011318   
    144. D(H  24,C  23,C  21,H  29)    -62.9191         0.011318   
    145. D(H  24,C  23,C  21,H  22)    178.5226         0.011318   
    146. D(H  24,C  23,C  21,N   6)     58.1729         0.011318   
    147. D(H  28,C  25,C  23,C  30)    -61.4319         0.011235   
    148. D(H  28,C  25,C  23,H  24)    178.5850         0.011235   
    149. D(H  28,C  25,C  23,C  21)     62.1155         0.011235   
    150. D(H  27,C  25,C  23,C  30)    178.2137         0.011235   
    151. D(H  27,C  25,C  23,H  24)     58.2307         0.011235   
    152. D(H  27,C  25,C  23,C  21)    -58.2388         0.011235   
    153. D(H  26,C  25,C  23,C  30)     58.0990         0.011235   
    154. D(H  26,C  25,C  23,H  24)    -61.8841         0.011235   
    155. D(H  26,C  25,C  23,C  21)   -178.3535         0.011235   
    156. D(H  31,C  30,C  23,C  21)    -59.0120         0.011511   
    157. D(H  33,C  30,C  23,H  24)     62.4613         0.011511   
    158. D(H  33,C  30,C  23,C  21)   -178.7082         0.011511   
    159. D(H  32,C  30,C  23,C  25)   -177.2102         0.011511   
    160. D(H  32,C  30,C  23,H  24)    -57.6081         0.011511   
    161. D(H  32,C  30,C  23,C  21)     61.2225         0.011511   
    162. D(H  31,C  30,C  23,C  25)     62.5553         0.011511   
    163. D(H  33,C  30,C  23,C  25)    -57.1408         0.011511   
    164. D(H  31,C  30,C  23,H  24)   -177.8425         0.011511   
    -----------------------------------------------------------------

Number of atoms                         .... 34
Number of degrees of freedom            .... 164

         *************************************************************
         *                GEOMETRY OPTIMIZATION CYCLE   1            *
         *************************************************************
---------------------------------
CARTESIAN COORDINATES (ANGSTROEM)
---------------------------------
  C     -1.276000   -3.022000   -0.195000
  H     -0.369000   -3.157000   -0.791000
  H     -2.099000   -3.547000   -0.678000
  H     -1.104000   -3.466000    0.790000
  C     -1.696000   -1.567000   -0.079000
  O     -2.836000   -1.214000   -0.398000
  N     -0.773000   -0.647000    0.385000
  C      0.430000   -1.057000    1.111000
  H      0.253000   -1.056000    2.194000
  H      0.717000   -2.066000    0.814000
  C      1.586000   -0.080000    0.892000
  N      2.293000   -0.189000   -0.269000
  O      1.843000    0.765000    1.761000
  C      1.991000   -1.132000   -1.333000
  H      2.183000   -0.645000   -2.294000
  H      2.616000   -2.032000   -1.271000
  H      0.939000   -1.405000   -1.308000
  C      3.430000    0.691000   -0.490000
  H      3.230000    1.366000   -1.329000
  H      3.590000    1.273000    0.416000
  H      4.322000    0.098000   -0.715000
  C     -1.319000    0.676000    0.740000
  H     -0.618000    1.136000    1.443000
  C     -1.538000    1.610000   -0.449000
  H     -2.221000    1.105000   -1.139000
  C     -2.208000    2.890000    0.051000
  H     -2.408000    3.574000   -0.780000
  H     -3.160000    2.673000    0.546000
  H     -1.561000    3.411000    0.766000
  H     -2.276000    0.521000    1.255000
  C     -0.235000    1.929000   -1.175000
  H      0.481000    2.402000   -0.492000
  H      0.225000    1.024000   -1.578000
  H     -0.418000    2.617000   -2.007000

----------------------------
CARTESIAN COORDINATES (A.U.)
----------------------------
  NO LB      ZA    FRAG     MASS         X           Y           Z
   0 C     6.0000    0    12.011   -2.411291   -5.710752   -0.368497
   1 H     1.0000    0     1.008   -0.697309   -5.965865   -1.494773
   2 H     1.0000    0     1.008   -3.966535   -6.702859   -1.281234
   3 H     1.0000    0     1.008   -2.086258   -6.549791    1.492884
   4 C     6.0000    0    12.011   -3.204976   -2.961201   -0.149288
   5 O     8.0000    0    15.999   -5.359263   -2.294128   -0.752111
   6 N     7.0000    0    14.007   -1.460758   -1.222653    0.727545
   7 C     6.0000    0    12.011    0.812582   -1.997441    2.099486
   8 H     1.0000    0     1.008    0.478101   -1.995551    4.146059
   9 H     1.0000    0     1.008    1.354934   -3.904174    1.538237
  10 C     6.0000    0    12.011    2.997106   -0.151178    1.685636
  11 N     7.0000    0    14.007    4.333142   -0.357158   -0.508336
  12 O     8.0000    0    15.999    3.482765    1.445640    3.327808
  13 C     6.0000    0    12.011    3.762445   -2.139170   -2.519005
  14 H     1.0000    0     1.008    4.125272   -1.218873   -4.335032
  15 H     1.0000    0     1.008    4.943524   -3.839924   -2.401842
  16 H     1.0000    0     1.008    1.774453   -2.655065   -2.471762
  17 C     6.0000    0    12.011    6.481761    1.305801   -0.925966
  18 H     1.0000    0     1.008    6.103815    2.581366   -2.511446
  19 H     1.0000    0     1.008    6.784117    2.405621    0.786126
  20 H     1.0000    0     1.008    8.167396    0.185193   -1.351154
  21 C     6.0000    0    12.011   -2.492549    1.277455    1.398397
  22 H     1.0000    0     1.008   -1.167851    2.146729    2.726875
  23 C     6.0000    0    12.011   -2.906399    3.042459   -0.848487
  24 H     1.0000    0     1.008   -4.197082    2.088147   -2.152398
  25 C     6.0000    0    12.011   -4.172515    5.461309    0.096376
  26 H     1.0000    0     1.008   -4.550461    6.753881   -1.473986
  27 H     1.0000    0     1.008   -5.971535    5.051238    1.031790
  28 H     1.0000    0     1.008   -2.949862    6.445856    1.447530
  29 H     1.0000    0     1.008   -4.301017    0.984547    2.371606
  30 C     6.0000    0    12.011   -0.444086    3.645282   -2.220428
  31 H     1.0000    0     1.008    0.908958    4.539122   -0.929745
  32 H     1.0000    0     1.008    0.425188    1.935080   -2.981988
  33 H     1.0000    0     1.008   -0.789906    4.945413   -3.792680

--------------------------------
INTERNAL COORDINATES (ANGSTROEM)
--------------------------------
 C      0   0   0     0.000000000000     0.00000000     0.00000000
 H      1   0   0     1.093658996214     0.00000000     0.00000000
 H      1   2   0     1.089147832023   108.99569795     0.00000000
 H      1   2   3     1.094049816050   108.06908242   118.09977478
 C      1   2   3     1.518841993099   112.90483299   241.66705109
 O      5   1   2     1.235301582610   120.61182512   125.61841934
 N      5   1   2     1.383338353405   118.56887539   305.91863281
 C      7   5   1     1.463688833052   121.90210878   342.34167547
 H      8   7   5     1.097369126593   110.89701982   267.43349000
 H      8   7   5     1.090256391864   109.90582852    27.01180350
 C      8   7   5     1.529322072031   111.79490173   150.33804252
 N     11   8   7     1.363690214088   117.56417307   280.18808443
 O     11   8   7     1.239046003989   119.47403106   100.30716238
 C     12  11   8     1.453461041790   124.56736787     2.56878445
 H     14  12  11     1.094328104364   108.52225584   142.90407215
 H     14  12  11     1.097483029482   111.86171765   262.37347465
 H     14  12  11     1.087132926555   110.31345958    25.30161201
 C     12  11   8     1.454651160932   119.09271609   182.23206853
 H     18  12  11     1.095237873706   110.27258302   245.51124950
 H     18  12  11     1.088650540807   108.17099266     5.31050719
 H     18  12  11     1.094503540424   109.90626235   125.34406908
 C      7   5   1     1.474608422599   115.49159797   192.33734168
 H     22   7   5     1.094170919007   107.13614183   157.30080434
 C     22   7   5     1.527755870550   114.46989621   278.98960913
 H     24  22   7     1.094355518102   107.34069153    58.17288637
 C     24  22   7     1.528823076749   108.67162756   175.45187779
 H     26  24  22     1.094722339226   110.78901147   181.64647660
 H     26  24  22     1.094722795963   111.28637324   301.76122678
 H     26  24  22     1.096026915728   110.64870646    62.11554109
 H     22   7   5     1.097770012343   108.00190508    40.65984203
 C     24  22   7     1.525334717365   112.07540012   298.22669577
 H     31  24  22     1.096756126037   110.57709738   300.98801042
 H     31  24  22     1.092260957830   111.22853358    61.22248588
 H     31  24  22     1.095014611775   110.50425881   181.29184514

---------------------------
INTERNAL COORDINATES (A.U.)
---------------------------
 C      0   0   0     0.000000000000     0.00000000     0.00000000
 H      1   0   0     2.066715986744     0.00000000     0.00000000
 H      1   2   0     2.058191121877   108.99569795     0.00000000
 H      1   2   3     2.067454529202   108.06908242   118.09977478
 C      1   2   3     2.870195407656   112.90483299   241.66705109
 O      5   1   2     2.334381683933   120.61182512   125.61841934
 N      5   1   2     2.614130638484   118.56887539   305.91863281
 C      7   5   1     2.765971039746   121.90210878   342.34167547
 H      8   7   5     2.073727117082   110.89701982   267.43349000
 H      8   7   5     2.060285996380   109.90582852    27.01180350
 C      8   7   5     2.889999886699   111.79490173   150.33804252
 N     11   8   7     2.577001036135   117.56417307   280.18808443
 O     11   8   7     2.341457614868   119.47403106   100.30716238
 C     12  11   8     2.746643315306   124.56736787     2.56878445
 H     14  12  11     2.067980417900   108.52225584   142.90407215
 H     14  12  11     2.073942362346   111.86171765   262.37347465
 H     14  12  11     2.054383502357   110.31345958    25.30161201
 C     12  11   8     2.748892314552   119.09271609   182.23206853
 H     18  12  11     2.069699632803   110.27258302   245.51124950
 H     18  12  11     2.057251377671   108.17099266     5.31050719
 H     18  12  11     2.068311944008   109.90626235   125.34406908
 C      7   5   1     2.786606073486   115.49159797   192.33734168
 H     22   7   5     2.067683380624   107.13614183   157.30080434
 C     22   7   5     2.887040194830   114.46989621   278.98960913
 H     24  22   7     2.068032222358   107.34069153    58.17288637
 C     24  22   7     2.889056922274   108.67162756   175.45187779
 H     26  24  22     2.068725413822   110.78901147   181.64647660
 H     26  24  22     2.068726276930   111.28637324   301.76122678
 H     26  24  22     2.071190706132   110.64870646    62.11554109
 H     22   7   5     2.074484681360   108.00190508    40.65984203
 C     24  22   7     2.882464878383   112.07540012   298.22669577
 H     31  24  22     2.072568713911   110.57709738   300.98801042
 H     31  24  22     2.064074077073   111.22853358    61.22248588
 H     31  24  22     2.069277728896   110.50425881   181.29184514

---------------------
BASIS SET INFORMATION
---------------------
There are 4 groups of distinct atoms

 Group   1 Type C   : 10s4p1d contracted to 3s2p1d pattern {631/31/1}
 Group   2 Type H   : 4s contracted to 2s pattern {31}
 Group   3 Type O   : 10s4p1d contracted to 3s2p1d pattern {631/31/1}
 Group   4 Type N   : 10s4p1d contracted to 3s2p1d pattern {631/31/1}

Atom   0C    basis set group =>   1
Atom   1H    basis set group =>   2
Atom   2H    basis set group =>   2
Atom   3H    basis set group =>   2
Atom   4C    basis set group =>   1
Atom   5O    basis set group =>   3
Atom   6N    basis set group =>   4
Atom   7C    basis set group =>   1
Atom   8H    basis set group =>   2
Atom   9H    basis set group =>   2
Atom  10C    basis set group =>   1
Atom  11N    basis set group =>   4
Atom  12O    basis set group =>   3
Atom  13C    basis set group =>   1
Atom  14H    basis set group =>   2
Atom  15H    basis set group =>   2
Atom  16H    basis set group =>   2
Atom  17C    basis set group =>   1
Atom  18H    basis set group =>   2
Atom  19H    basis set group =>   2
Atom  20H    basis set group =>   2
Atom  21C    basis set group =>   1
Atom  22H    basis set group =>   2
Atom  23C    basis set group =>   1
Atom  24H    basis set group =>   2
Atom  25C    basis set group =>   1
Atom  26H    basis set group =>   2
Atom  27H    basis set group =>   2
Atom  28H    basis set group =>   2
Atom  29H    basis set group =>   2
Atom  30C    basis set group =>   1
Atom  31H    basis set group =>   2
Atom  32H    basis set group =>   2
Atom  33H    basis set group =>   2
---------------------------------
AUXILIARY/J BASIS SET INFORMATION
---------------------------------
There are 4 groups of distinct atoms

 Group   1 Type C   : 13s11p10d2f contracted to 13s11p10d2f pattern {1111111111111/11111111111/1111111111/11}
 Group   2 Type H   : 9s2p contracted to 9s2p pattern {111111111/11}
 Group   3 Type O   : 14s11p10d2f contracted to 14s11p10d2f pattern {11111111111111/11111111111/1111111111/11}
 Group   4 Type N   : 14s11p10d2f contracted to 14s11p10d2f pattern {11111111111111/11111111111/1111111111/11}

Atom   0C    basis set group =>   1
Atom   1H    basis set group =>   2
Atom   2H    basis set group =>   2
Atom   3H    basis set group =>   2
Atom   4C    basis set group =>   1
Atom   5O    basis set group =>   3
Atom   6N    basis set group =>   4
Atom   7C    basis set group =>   1
Atom   8H    basis set group =>   2
Atom   9H    basis set group =>   2
Atom  10C    basis set group =>   1
Atom  11N    basis set group =>   4
Atom  12O    basis set group =>   3
Atom  13C    basis set group =>   1
Atom  14H    basis set group =>   2
Atom  15H    basis set group =>   2
Atom  16H    basis set group =>   2
Atom  17C    basis set group =>   1
Atom  18H    basis set group =>   2
Atom  19H    basis set group =>   2
Atom  20H    basis set group =>   2
Atom  21C    basis set group =>   1
Atom  22H    basis set group =>   2
Atom  23C    basis set group =>   1
Atom  24H    basis set group =>   2
Atom  25C    basis set group =>   1
Atom  26H    basis set group =>   2
Atom  27H    basis set group =>   2
Atom  28H    basis set group =>   2
Atom  29H    basis set group =>   2
Atom  30C    basis set group =>   1
Atom  31H    basis set group =>   2
Atom  32H    basis set group =>   2
Atom  33H    basis set group =>   2
---------------------------------
AUXILIARY/C BASIS SET INFORMATION
---------------------------------
There are 4 groups of distinct atoms

 Group   1 Type C   : 13s11p10d2f contracted to 13s11p10d2f pattern {1111111111111/11111111111/1111111111/11}
 Group   2 Type H   : 9s2p contracted to 9s2p pattern {111111111/11}
 Group   3 Type O   : 14s11p10d2f contracted to 14s11p10d2f pattern {11111111111111/11111111111/1111111111/11}
 Group   4 Type N   : 14s11p10d2f contracted to 14s11p10d2f pattern {11111111111111/11111111111/1111111111/11}

Atom   0C    basis set group =>   1
Atom   1H    basis set group =>   2
Atom   2H    basis set group =>   2
Atom   3H    basis set group =>   2
Atom   4C    basis set group =>   1
Atom   5O    basis set group =>   3
Atom   6N    basis set group =>   4
Atom   7C    basis set group =>   1
Atom   8H    basis set group =>   2
Atom   9H    basis set group =>   2
Atom  10C    basis set group =>   1
Atom  11N    basis set group =>   4
Atom  12O    basis set group =>   3
Atom  13C    basis set group =>   1
Atom  14H    basis set group =>   2
Atom  15H    basis set group =>   2
Atom  16H    basis set group =>   2
Atom  17C    basis set group =>   1
Atom  18H    basis set group =>   2
Atom  19H    basis set group =>   2
Atom  20H    basis set group =>   2
Atom  21C    basis set group =>   1
Atom  22H    basis set group =>   2
Atom  23C    basis set group =>   1
Atom  24H    basis set group =>   2
Atom  25C    basis set group =>   1
Atom  26H    basis set group =>   2
Atom  27H    basis set group =>   2
Atom  28H    basis set group =>   2
Atom  29H    basis set group =>   2
Atom  30C    basis set group =>   1
Atom  31H    basis set group =>   2
Atom  32H    basis set group =>   2
Atom  33H    basis set group =>   2
----------------------------------
AUXILIARY/JK BASIS SET INFORMATION
----------------------------------
There are 4 groups of distinct atoms

 Group   1 Type C   : 13s11p10d2f contracted to 13s11p10d2f pattern {1111111111111/11111111111/1111111111/11}
 Group   2 Type H   : 9s2p contracted to 9s2p pattern {111111111/11}
 Group   3 Type O   : 14s11p10d2f contracted to 14s11p10d2f pattern {11111111111111/11111111111/1111111111/11}
 Group   4 Type N   : 14s11p10d2f contracted to 14s11p10d2f pattern {11111111111111/11111111111/1111111111/11}

Atom   0C    basis set group =>   1
Atom   1H    basis set group =>   2
Atom   2H    basis set group =>   2
Atom   3H    basis set group =>   2
Atom   4C    basis set group =>   1
Atom   5O    basis set group =>   3
Atom   6N    basis set group =>   4
Atom   7C    basis set group =>   1
Atom   8H    basis set group =>   2
Atom   9H    basis set group =>   2
Atom  10C    basis set group =>   1
Atom  11N    basis set group =>   4
Atom  12O    basis set group =>   3
Atom  13C    basis set group =>   1
Atom  14H    basis set group =>   2
Atom  15H    basis set group =>   2
Atom  16H    basis set group =>   2
Atom  17C    basis set group =>   1
Atom  18H    basis set group =>   2
Atom  19H    basis set group =>   2
Atom  20H    basis set group =>   2
Atom  21C    basis set group =>   1
Atom  22H    basis set group =>   2
Atom  23C    basis set group =>   1
Atom  24H    basis set group =>   2
Atom  25C    basis set group =>   1
Atom  26H    basis set group =>   2
Atom  27H    basis set group =>   2
Atom  28H    basis set group =>   2
Atom  29H    basis set group =>   2
Atom  30C    basis set group =>   1
Atom  31H    basis set group =>   2
Atom  32H    basis set group =>   2
Atom  33H    basis set group =>   2


           ************************************************************
           *        Program running with 4 parallel MPI-processes     *
           *              working on a common directory               *
           ************************************************************
------------------------------------------------------------------------------
                           ORCA GTO INTEGRAL CALCULATION
                           -- RI-GTO INTEGRALS CHOSEN --
------------------------------------------------------------------------------
------------------------------------------------------------------------------
                   ___                                                        
                  /   \      - P O W E R E D   B Y -                         
                 /     \                                                     
                 |  |  |   _    _      __       _____    __    __             
                 |  |  |  | |  | |    /  \     |  _  \  |  |  /  |          
                  \  \/   | |  | |   /    \    | | | |  |  | /  /          
                 / \  \   | |__| |  /  /\  \   | |_| |  |  |/  /          
                |  |  |   |  __  | /  /__\  \  |    /   |      \           
                |  |  |   | |  | | |   __   |  |    \   |  |\   \          
                \     /   | |  | | |  |  |  |  | |\  \  |  | \   \       
                 \___/    |_|  |_| |__|  |__|  |_| \__\ |__|  \__/        
                                                                              
                      - O R C A' S   B I G   F R I E N D -                    
                                      &                                       
                       - I N T E G R A L  F E E D E R -                       
                                                                              
 v1 FN, 2020, v2 2021                                                         
------------------------------------------------------------------------------


Reading SHARK input file Nl_gas.SHARKINP.tmp ... ok
----------------------
SHARK INTEGRAL PACKAGE
----------------------

Number of atoms                             ...     34
Number of basis functions                   ...    236
Number of shells                            ...    124
Maximum angular momentum                    ...      2
Integral batch strategy                     ... SHARK/LIBINT Hybrid
RI-J (if used) integral strategy            ... SPLIT-RIJ (Revised 2003 algorithm where possible)
Printlevel                                  ...      1
Contraction scheme used                     ... SEGMENTED contraction
Coulomb Range Separation                    ... NOT USED
Exchange Range Separation                   ... NOT USED
Finite Nucleus Model                        ... NOT USED
Auxiliary Coulomb fitting basis             ... AVAILABLE
   # of basis functions in Aux-J            ...   1844
   # of shells in Aux-J                     ...    728
   Maximum angular momentum in Aux-J        ...      3
Auxiliary J/K fitting basis                 ... AVAILABLE
   # of basis functions in Aux-JK           ...   1844
   # of shells in Aux-JK                    ...    728
   Maximum angular momentum in Aux-JK       ...      3
Auxiliary Correlation fitting basis         ... AVAILABLE
   # of basis functions in Aux-C            ...   1844
   # of shells in Aux-C                     ...    728
   Maximum angular momentum in Aux-C        ...      3
Auxiliary 'external' fitting basis          ... NOT available
Integral threshold                          ...     2.500000e-11
Primitive cut-off                           ...     2.500000e-12
Primitive pair pre-selection threshold      ...     2.500000e-12

Calculating pre-screening integrals         ... done (  0.0 sec) Dimension = 124
Organizing shell pair data                  ... done (  0.9 sec)
Shell pair information
Total number of shell pairs                 ...      7750
Shell pairs after pre-screening             ...      6812
Total number of primitive shell pairs       ...     42549
Primitive shell pairs kept                  ...     22118
          la=0 lb=0:   2892 shell pairs
          la=1 lb=0:   2122 shell pairs
          la=1 lb=1:    394 shell pairs
          la=2 lb=0:    948 shell pairs
          la=2 lb=1:    368 shell pairs
          la=2 lb=2:     88 shell pairs

Calculating one electron integrals          ... done (  0.0 sec)
Calculating RI/J V-Matrix + Cholesky decomp.... done (  0.2 sec)
Calculating RI/JK V-Matrix + Cholesky decomp... done (  0.2 sec)
Calculating RI/C V-Matrix + Cholesky decomp.... done (  0.2 sec)
Calculating Nuclear repulsion               ... done (  0.0 sec) ENN=   1007.611292957794 Eh

SHARK setup successfully completed in   2.0 seconds

Maximum memory used throughout the entire GTOINT-calculation: 31.1 MB


           ************************************************************
           *        Program running with 4 parallel MPI-processes     *
           *              working on a common directory               *
           ************************************************************
-------------------------------------------------------------------------------
                                 ORCA SCF
-------------------------------------------------------------------------------

------------
SCF SETTINGS
------------
Hamiltonian:
 Density Functional     Method          .... DFT(GTOs)
 Exchange Functional    Exchange        .... B88
   X-Alpha parameter    XAlpha          ....  0.666667
   Becke's b parameter  XBeta           ....  0.004200
 Correlation Functional Correlation     .... LYP
 LDA part of GGA corr.  LDAOpt          .... VWN-5
 Gradients option       PostSCFGGA      .... off
 Hybrid DFT is turned on
   Fraction HF Exchange ScalHFX         ....  0.200000
   Scaling of DF-GGA-X  ScalDFX         ....  0.720000
   Scaling of DF-GGA-C  ScalDFC         ....  0.810000
   Scaling of DF-LDA-C  ScalLDAC        ....  1.000000
   Perturbative correction              ....  0.000000
   Density functional embedding theory  .... OFF
   NL short-range parameter             ....  4.800000
 RI-approximation to the Coulomb term is turned on
   Number of AuxJ basis functions       .... 1844
   RIJ-COSX (HFX calculated with COS-X)).... on


General Settings:
 Integral files         IntName         .... Nl_gas
 Hartree-Fock type      HFTyp           .... RHF
 Total Charge           Charge          ....    0
 Multiplicity           Mult            ....    1
 Number of Electrons    NEL             ....  110
 Basis Dimension        Dim             ....  236
 Nuclear Repulsion      ENuc            ....   1007.6112929578 Eh

Convergence Acceleration:
 DIIS                   CNVDIIS         .... on
   Start iteration      DIISMaxIt       ....    12
   Startup error        DIISStart       ....  0.200000
   # of expansion vecs  DIISMaxEq       ....     5
   Bias factor          DIISBfac        ....   1.050
   Max. coefficient     DIISMaxC        ....  10.000
 Trust-Rad. Augm. Hess. CNVTRAH         .... auto
   Auto Start mean grad. ratio tolernc. ....  1.125000
   Auto Start start iteration           ....    20
   Auto Start num. interpolation iter.  ....    10
   Max. Number of Micro iterations      ....    16
   Max. Number of Macro iterations      .... Maxiter - #DIIS iter
   Number of Davidson start vectors     ....     2
   Converg. threshold I  (grad. norm)   ....   1.000e-05
   Converg. threshold II (energy diff.) ....   1.000e-08
   Grad. Scal. Fac. for Micro threshold ....   0.100
   Minimum threshold for Micro iter.    ....   0.010
   NR start threshold (gradient norm)   ....   0.001
   Initial trust radius                 ....   0.400
   Minimum AH scaling param. (alpha)    ....   1.000
   Maximum AH scaling param. (alpha)    .... 1000.000
   Orbital update algorithm             .... Taylor
   White noise on init. David. guess    .... on
   Maximum white noise                  ....   0.010
   Quad. conv. algorithm                .... NR
 SOSCF                  CNVSOSCF        .... on
   Start iteration      SOSCFMaxIt      ....   150
   Startup grad/error   SOSCFStart      ....  0.003300
 Level Shifting         CNVShift        .... on
   Level shift para.    LevelShift      ....    0.2500
   Turn off err/grad.   ShiftErr        ....    0.0010
 Zerner damping         CNVZerner       .... off
 Static damping         CNVDamp         .... on
   Fraction old density DampFac         ....    0.7000
   Max. Damping (<1)    DampMax         ....    0.9800
   Min. Damping (>=0)   DampMin         ....    0.0000
   Turn off err/grad.   DampErr         ....    0.1000
 Fernandez-Rico         CNVRico         .... off

SCF Procedure:
 Maximum # iterations   MaxIter         ....   125
 SCF integral mode      SCFMode         .... Direct
   Integral package                     .... SHARK and LIBINT hybrid scheme
 Reset frequency        DirectResetFreq ....    20
 Integral Threshold     Thresh          ....  2.500e-11 Eh
 Primitive CutOff       TCut            ....  2.500e-12 Eh

Convergence Tolerance:
 Convergence Check Mode ConvCheckMode   .... Total+1el-Energy
 Convergence forced     ConvForced      .... 0
 Energy Change          TolE            ....  1.000e-08 Eh
 1-El. energy change                    ....  1.000e-05 Eh
 Orbital Gradient       TolG            ....  1.000e-05
 Orbital Rotation angle TolX            ....  1.000e-05
 DIIS Error             TolErr          ....  5.000e-07


Diagonalization of the overlap matrix:
Smallest eigenvalue                        ... 3.255e-03
Time for diagonalization                   ...    0.019 sec
Threshold for overlap eigenvalues          ... 1.000e-08
Number of eigenvalues below threshold      ... 0
Time for construction of square roots      ...    0.004 sec
Total time needed                          ...    0.024 sec

Time for model grid setup =    0.281 sec

------------------------------
INITIAL GUESS: MODEL POTENTIAL
------------------------------
Loading Hartree-Fock densities                     ... done
Calculating cut-offs                               ... done
Initializing the effective Hamiltonian             ... done
Setting up the integral package (SHARK)            ... done
Starting the Coulomb interaction                   ... done (   0.2 sec)
Reading the grid                                   ... done
Mapping shells                                     ... done
Starting the XC term evaluation                    ... done (   0.2 sec)
  promolecular density results
     # of electrons  =    109.997302341
     EX              =    -86.927586007
     EC              =     -3.678538563
     EX+EC           =    -90.606124569
Transforming the Hamiltonian                       ... done (   0.0 sec)
Diagonalizing the Hamiltonian                      ... done (   0.0 sec)
Back transforming the eigenvectors                 ... done (   0.0 sec)
Now organizing SCF variables                       ... done
                      ------------------
                      INITIAL GUESS DONE (   0.7 sec)
                      ------------------
-------------------
DFT GRID GENERATION
-------------------

General Integration Accuracy     IntAcc      ... 4.388
Radial Grid Type                 RadialGrid  ... OptM3 with GC (2021)
Angular Grid (max. ang.)         AngularGrid ... 4 (Lebedev-302)
Angular grid pruning method      GridPruning ... 4 (adaptive)
Weight generation scheme         WeightScheme... Becke
Basis function cutoff            BFCut       ... 1.0000e-11
Integration weight cutoff        WCut        ... 1.0000e-14
Angular grids for H and He will be reduced by one unit
Partially contracted basis set               ... off
Rotationally invariant grid construction     ... off

Total number of grid points                  ...   147101
Total number of batches                      ...     2316
Average number of points per batch           ...       63
Average number of grid points per atom       ...     4326
Time for grid setup =    1.196 sec

--------------------
COSX GRID GENERATION
--------------------

GRIDX 1
-------
General Integration Accuracy     IntAcc      ... 3.816
Radial Grid Type                 RadialGrid  ... OptM3 with GC (2021)
Angular Grid (max. ang.)         AngularGrid ... 1 (Lebedev-50)
Angular grid pruning method      GridPruning ... 4 (adaptive)
Weight generation scheme         WeightScheme... Becke
Basis function cutoff            BFCut       ... 1.0000e-11
Integration weight cutoff        WCut        ... 1.0000e-14
Angular grids for H and He will be reduced by one unit
Partially contracted basis set               ... on
Rotationally invariant grid construction     ... off

Total number of grid points                  ...    18762
Total number of batches                      ...      313
Average number of points per batch           ...       59
Average number of grid points per atom       ...      552
UseSFitting                                  ... on

GRIDX 2
-------
General Integration Accuracy     IntAcc      ... 4.020
Radial Grid Type                 RadialGrid  ... OptM3 with GC (2021)
Angular Grid (max. ang.)         AngularGrid ... 2 (Lebedev-110)
Angular grid pruning method      GridPruning ... 4 (adaptive)
Weight generation scheme         WeightScheme... Becke
Basis function cutoff            BFCut       ... 1.0000e-11
Integration weight cutoff        WCut        ... 1.0000e-14
Angular grids for H and He will be reduced by one unit
Partially contracted basis set               ... on
Rotationally invariant grid construction     ... off

Total number of grid points                  ...    39308
Total number of batches                      ...      631
Average number of points per batch           ...       62
Average number of grid points per atom       ...     1156
UseSFitting                                  ... on

GRIDX 3
-------
General Integration Accuracy     IntAcc      ... 4.338
Radial Grid Type                 RadialGrid  ... OptM3 with GC (2021)
Angular Grid (max. ang.)         AngularGrid ... 3 (Lebedev-194)
Angular grid pruning method      GridPruning ... 4 (adaptive)
Weight generation scheme         WeightScheme... Becke
Basis function cutoff            BFCut       ... 1.0000e-11
Integration weight cutoff        WCut        ... 1.0000e-14
Angular grids for H and He will be reduced by one unit
Partially contracted basis set               ... on
Rotationally invariant grid construction     ... off

Total number of grid points                  ...    85437
Total number of batches                      ...     1355
Average number of points per batch           ...       63
Average number of grid points per atom       ...     2513
UseSFitting                                  ... on

Time for X-Grid setup             =    1.199 sec

--------------
SCF ITERATIONS
--------------
ITER       Energy         Delta-E        Max-DP      RMS-DP      [F,P]     Damp
               ***  Starting incremental Fock matrix formation  ***
  0   -652.1777048101   0.000000000000 0.10542172  0.00243961  0.2770459 0.7000
  1   -652.4081417243  -0.230436914243 0.05989492  0.00161229  0.1050762 0.7000
                               ***Turning on DIIS***
  2   -652.4933778812  -0.085236156878 0.06830817  0.00242128  0.0414554 0.0000
  3   -652.6315606841  -0.138182802903 0.03882675  0.00113694  0.0489020 0.0000
  4   -652.6607971654  -0.029236481259 0.01084289  0.00037611  0.0152197 0.0000
  5   -652.6632993167  -0.002502151330 0.00357523  0.00011035  0.0057809 0.0000
                      *** Initiating the SOSCF procedure ***
                           *** Shutting down DIIS ***
                      *** Re-Reading the Fockian *** 
                      *** Removing any level shift *** 
ITER      Energy       Delta-E        Grad      Rot      Max-DP    RMS-DP
  6   -652.66343182  -0.0001325080  0.000205  0.000205  0.001074  0.000033
               *** Restarting incremental Fock matrix formation ***
  7   -652.66340777   0.0000240585  0.000089  0.000268  0.000553  0.000020
  8   -652.66340783  -0.0000000596  0.000128  0.000251  0.000398  0.000008
  9   -652.66340917  -0.0000013393  0.000035  0.000116  0.000114  0.000004
 10   -652.66340914   0.0000000296  0.000051  0.000068  0.000099  0.000002
 11   -652.66340920  -0.0000000639  0.000011  0.000018  0.000044  0.000001
 12   -652.66340918   0.0000000146  0.000007  0.000007  0.000018  0.000001
                  ***Gradient check signals convergence***
              ***Rediagonalizing the Fockian in SOSCF/NRSCF***

               *****************************************************
               *                     SUCCESS                       *
               *           SCF CONVERGED AFTER  13 CYCLES          *
               *****************************************************

Old exchange energy                            =    -17.748185378 Eh
New exchange energy                            =    -17.748172830 Eh
Exchange energy change after final integration =      0.000012548 Eh
Total energy after final integration           =   -652.663396657 Eh
Final COS-X integration done in                =     9.879 sec

----------------
TOTAL SCF ENERGY
----------------

Total Energy       :         -652.66339666 Eh          -17759.87392 eV

Components:
Nuclear Repulsion  :         1007.61129296 Eh           27418.49721 eV
Electronic Energy  :        -1660.27468961 Eh          -45178.37113 eV
One Electron Energy:        -2886.92783348 Eh          -78557.30012 eV
Two Electron Energy:         1226.65314387 Eh           33378.92900 eV
Max COSX asymmetry :            0.00000274 Eh               0.00007 eV

Virial components:
Potential Energy   :        -1301.53221989 Eh          -35416.49224 eV
Kinetic Energy     :          648.86882323 Eh           17656.61833 eV
Virial Ratio       :            2.00584798


DFT components:
N(Alpha)           :       54.999949894254 electrons
N(Beta)            :       54.999949894254 electrons
N(Total)           :      109.999899788508 electrons
E(X)               :      -70.442712868233 Eh       
E(C)               :       -4.335840333053 Eh       
E(XC)              :      -74.778553201286 Eh       
DFET-embed. en.    :        0.000000000000 Eh       

---------------
SCF CONVERGENCE
---------------

  Last Energy change         ...   -1.9861e-08  Tolerance :   1.0000e-08
  Last MAX-Density change    ...    3.5527e-15  Tolerance :   1.0000e-07
  Last RMS-Density change    ...    4.6419e-17  Tolerance :   5.0000e-09
  Last Orbital Gradient      ...    1.4138e-06  Tolerance :   1.0000e-05
  Last Orbital Rotation      ...    4.6214e-06  Tolerance :   1.0000e-05

             **** THE GBW FILE WAS UPDATED (Nl_gas.gbw) ****
             **** DENSITY Nl_gas.scfp WAS UPDATED ****
             **** ENERGY FILE WAS UPDATED (Nl_gas.en.tmp) ****
             **** THE GBW FILE WAS UPDATED (Nl_gas.gbw) ****
             **** DENSITY Nl_gas.scfp WAS UPDATED ****
----------------
ORBITAL ENERGIES
----------------

  NO   OCC          E(Eh)            E(eV) 
   0   2.0000     -19.108453      -519.9674 
   1   2.0000     -19.104520      -519.8604 
   2   2.0000     -14.367112      -390.9490 
   3   2.0000     -14.358034      -390.7020 
   4   2.0000     -10.283328      -279.8236 
   5   2.0000     -10.279960      -279.7319 
   6   2.0000     -10.226212      -278.2694 
   7   2.0000     -10.223024      -278.1826 
   8   2.0000     -10.207174      -277.7513 
   9   2.0000     -10.194857      -277.4162 
  10   2.0000     -10.184874      -277.1445 
  11   2.0000     -10.166980      -276.6576 
  12   2.0000     -10.153766      -276.2980 
  13   2.0000     -10.153656      -276.2950 
  14   2.0000      -1.030770       -28.0487 
  15   2.0000      -1.022880       -27.8340 
  16   2.0000      -0.939181       -25.5564 
  17   2.0000      -0.927928       -25.2502 
  18   2.0000      -0.795965       -21.6593 
  19   2.0000      -0.750218       -20.4145 
  20   2.0000      -0.743376       -20.2283 
  21   2.0000      -0.727490       -19.7960 
  22   2.0000      -0.687732       -18.7141 
  23   2.0000      -0.673551       -18.3282 
  24   2.0000      -0.665675       -18.1139 
  25   2.0000      -0.573560       -15.6074 
  26   2.0000      -0.552458       -15.0331 
  27   2.0000      -0.532347       -14.4859 
  28   2.0000      -0.510492       -13.8912 
  29   2.0000      -0.500715       -13.6251 
  30   2.0000      -0.487348       -13.2614 
  31   2.0000      -0.480113       -13.0645 
  32   2.0000      -0.460657       -12.5351 
  33   2.0000      -0.448482       -12.2038 
  34   2.0000      -0.440800       -11.9948 
  35   2.0000      -0.430909       -11.7256 
  36   2.0000      -0.417373       -11.3573 
  37   2.0000      -0.415415       -11.3040 
  38   2.0000      -0.412177       -11.2159 
  39   2.0000      -0.404965       -11.0197 
  40   2.0000      -0.400836       -10.9073 
  41   2.0000      -0.394527       -10.7356 
  42   2.0000      -0.382414       -10.4060 
  43   2.0000      -0.380101       -10.3431 
  44   2.0000      -0.374638       -10.1944 
  45   2.0000      -0.368819       -10.0361 
  46   2.0000      -0.361589        -9.8393 
  47   2.0000      -0.349711        -9.5161 
  48   2.0000      -0.323222        -8.7953 
  49   2.0000      -0.322718        -8.7816 
  50   2.0000      -0.312480        -8.5030 
  51   2.0000      -0.256712        -6.9855 
  52   2.0000      -0.244866        -6.6632 
  53   2.0000      -0.242998        -6.6123 
  54   2.0000      -0.233858        -6.3636 
  55   0.0000       0.012562         0.3418 
  56   0.0000       0.021667         0.5896 
  57   0.0000       0.070358         1.9145 
  58   0.0000       0.096201         2.6178 
  59   0.0000       0.106586         2.9004 
  60   0.0000       0.124693         3.3931 
  61   0.0000       0.126803         3.4505 
  62   0.0000       0.131130         3.5682 
  63   0.0000       0.138065         3.7569 
  64   0.0000       0.145872         3.9694 
  65   0.0000       0.151514         4.1229 
  66   0.0000       0.154310         4.1990 
  67   0.0000       0.159458         4.3391 
  68   0.0000       0.162523         4.4225 
  69   0.0000       0.168681         4.5900 
  70   0.0000       0.171036         4.6541 
  71   0.0000       0.173416         4.7189 
  72   0.0000       0.182187         4.9576 
  73   0.0000       0.186557         5.0765 
  74   0.0000       0.194627         5.2961 
  75   0.0000       0.203120         5.5272 
  76   0.0000       0.210408         5.7255 
  77   0.0000       0.216648         5.8953 
  78   0.0000       0.228829         6.2267 
  79   0.0000       0.233932         6.3656 
  80   0.0000       0.243905         6.6370 
  81   0.0000       0.253255         6.8914 
  82   0.0000       0.257326         7.0022 
  83   0.0000       0.271152         7.3784 
  84   0.0000       0.280677         7.6376 
  85   0.0000       0.287021         7.8102 
  86   0.0000       0.331478         9.0200 
  87   0.0000       0.362620         9.8674 
  88   0.0000       0.390665        10.6305 
  89   0.0000       0.393241        10.7006 
  90   0.0000       0.465650        12.6710 
  91   0.0000       0.490287        13.3414 
  92   0.0000       0.502686        13.6788 
  93   0.0000       0.515106        14.0167 
  94   0.0000       0.522941        14.2300 
  95   0.0000       0.525312        14.2945 
  96   0.0000       0.532819        14.4988 
  97   0.0000       0.547766        14.9055 
  98   0.0000       0.568595        15.4723 
  99   0.0000       0.585187        15.9238 
 100   0.0000       0.590553        16.0698 
 101   0.0000       0.610146        16.6029 
 102   0.0000       0.617750        16.8098 
 103   0.0000       0.631778        17.1915 
 104   0.0000       0.645398        17.5622 
 105   0.0000       0.646763        17.5993 
 106   0.0000       0.672056        18.2876 
 107   0.0000       0.676040        18.3960 
 108   0.0000       0.684116        18.6157 
 109   0.0000       0.690377        18.7861 
 110   0.0000       0.712506        19.3883 
 111   0.0000       0.717316        19.5192 
 112   0.0000       0.733878        19.9698 
 113   0.0000       0.744297        20.2533 
 114   0.0000       0.751757        20.4563 
 115   0.0000       0.762864        20.7586 
 116   0.0000       0.768911        20.9231 
 117   0.0000       0.784071        21.3357 
 118   0.0000       0.814954        22.1760 
 119   0.0000       0.821501        22.3542 
 120   0.0000       0.831654        22.6305 
 121   0.0000       0.842516        22.9260 
 122   0.0000       0.851865        23.1804 
 123   0.0000       0.861590        23.4450 
 124   0.0000       0.871873        23.7249 
 125   0.0000       0.881908        23.9979 
 126   0.0000       0.891150        24.2494 
 127   0.0000       0.893585        24.3157 
 128   0.0000       0.898534        24.4503 
 129   0.0000       0.899977        24.4896 
 130   0.0000       0.917943        24.9785 
 131   0.0000       0.924010        25.1436 
 132   0.0000       0.931381        25.3442 
 133   0.0000       0.932591        25.3771 
 134   0.0000       0.948874        25.8202 
 135   0.0000       0.957414        26.0526 
 136   0.0000       0.960573        26.1385 
 137   0.0000       0.976821        26.5806 
 138   0.0000       0.981240        26.7009 
 139   0.0000       0.993892        27.0452 
 140   0.0000       0.998630        27.1741 
 141   0.0000       1.001426        27.2502 
 142   0.0000       1.015038        27.6206 
 143   0.0000       1.035161        28.1682 
 144   0.0000       1.048473        28.5304 
 145   0.0000       1.057458        28.7749 
 146   0.0000       1.089994        29.6602 
 147   0.0000       1.112073        30.2611 
 148   0.0000       1.118489        30.4356 
 149   0.0000       1.159753        31.5585 
 150   0.0000       1.167863        31.7792 
 151   0.0000       1.181720        32.1562 
 152   0.0000       1.219602        33.1871 
 153   0.0000       1.228117        33.4188 
 154   0.0000       1.318076        35.8667 
 155   0.0000       1.334872        36.3237 
 156   0.0000       1.351240        36.7691 
 157   0.0000       1.375229        37.4219 
 158   0.0000       1.390230        37.8301 
 159   0.0000       1.395108        37.9628 
 160   0.0000       1.419016        38.6134 
 161   0.0000       1.433148        38.9979 
 162   0.0000       1.447733        39.3948 
 163   0.0000       1.489922        40.5428 
 164   0.0000       1.505737        40.9732 
 165   0.0000       1.529359        41.6160 
 166   0.0000       1.578363        42.9494 
 167   0.0000       1.607263        43.7358 
 168   0.0000       1.615345        43.9558 
 169   0.0000       1.628129        44.3037 
 170   0.0000       1.683489        45.8101 
 171   0.0000       1.709399        46.5151 
 172   0.0000       1.738643        47.3109 
 173   0.0000       1.753385        47.7120 
 174   0.0000       1.786990        48.6265 
 175   0.0000       1.802544        49.0497 
 176   0.0000       1.823386        49.6169 
 177   0.0000       1.826662        49.7060 
 178   0.0000       1.847658        50.2773 
 179   0.0000       1.862970        50.6940 
 180   0.0000       1.866452        50.7887 
 181   0.0000       1.882799        51.2336 
 182   0.0000       1.896268        51.6001 
 183   0.0000       1.918895        52.2158 
 184   0.0000       1.929447        52.5029 
 185   0.0000       1.946113        52.9564 
 186   0.0000       1.956486        53.2387 
 187   0.0000       1.959118        53.3103 
 188   0.0000       1.968184        53.5570 
 189   0.0000       1.989141        54.1273 
 190   0.0000       2.011574        54.7377 
 191   0.0000       2.021725        55.0139 
 192   0.0000       2.049223        55.7622 
 193   0.0000       2.050786        55.8047 
 194   0.0000       2.051632        55.8278 
 195   0.0000       2.072914        56.4069 
 196   0.0000       2.090420        56.8832 
 197   0.0000       2.101957        57.1972 
 198   0.0000       2.129518        57.9471 
 199   0.0000       2.133769        58.0628 
 200   0.0000       2.154653        58.6311 
 201   0.0000       2.177239        59.2457 
 202   0.0000       2.210446        60.1493 
 203   0.0000       2.225548        60.5603 
 204   0.0000       2.253058        61.3088 
 205   0.0000       2.256648        61.4065 
 206   0.0000       2.263055        61.5808 
 207   0.0000       2.265494        61.6472 
 208   0.0000       2.273269        61.8588 
 209   0.0000       2.321020        63.1582 
 210   0.0000       2.353327        64.0373 
 211   0.0000       2.363643        64.3180 
 212   0.0000       2.371702        64.5373 
 213   0.0000       2.406738        65.4907 
 214   0.0000       2.420868        65.8752 
 215   0.0000       2.452114        66.7254 
 216   0.0000       2.459238        66.9193 
 217   0.0000       2.495163        67.8968 
 218   0.0000       2.538418        69.0739 
 219   0.0000       2.549275        69.3693 
 220   0.0000       2.561870        69.7120 
 221   0.0000       2.604675        70.8768 
 222   0.0000       2.608553        70.9823 
 223   0.0000       2.644433        71.9587 
 224   0.0000       2.684428        73.0470 
 225   0.0000       2.708860        73.7118 
 226   0.0000       2.718588        73.9765 
 227   0.0000       2.734417        74.4073 
 228   0.0000       2.774389        75.4950 
 229   0.0000       2.810794        76.4856 
 230   0.0000       2.919898        79.4545 
 231   0.0000       2.963085        80.6297 
 232   0.0000       3.002421        81.7000 
 233   0.0000       3.015562        82.0576 
 234   0.0000       3.150420        85.7273 
 235   0.0000       3.180487        86.5454 

                    ********************************
                    * MULLIKEN POPULATION ANALYSIS *
                    ********************************

-----------------------
MULLIKEN ATOMIC CHARGES
-----------------------
   0 C :   -0.558586
   1 H :    0.163183
   2 H :    0.191712
   3 H :    0.173686
   4 C :    0.525791
   5 O :   -0.465514
   6 N :   -0.392931
   7 C :   -0.246813
   8 H :    0.179664
   9 H :    0.165112
  10 C :    0.537167
  11 N :   -0.362173
  12 O :   -0.484539
  13 C :   -0.333880
  14 H :    0.168196
  15 H :    0.158525
  16 H :    0.181864
  17 C :   -0.326214
  18 H :    0.159145
  19 H :    0.205944
  20 H :    0.153274
  21 C :   -0.151707
  22 H :    0.167538
  23 C :   -0.068215
  24 H :    0.156843
  25 C :   -0.449008
  26 H :    0.141036
  27 H :    0.146148
  28 H :    0.140009
  29 H :    0.155900
  30 C :   -0.458678
  31 H :    0.148172
  32 H :    0.141653
  33 H :    0.137698
Sum of atomic charges:   -0.0000000

--------------------------------
MULLIKEN REDUCED ORBITAL CHARGES
--------------------------------
  0 C s       :     3.321138  s :     3.321138
      pz      :     1.083252  p :     3.205175
      px      :     1.105266
      py      :     1.016657
      dz2     :     0.005782  d :     0.032272
      dxz     :     0.007538
      dyz     :     0.005620
      dx2y2   :     0.007658
      dxy     :     0.005674
  1 H s       :     0.836817  s :     0.836817
  2 H s       :     0.808288  s :     0.808288
  3 H s       :     0.826314  s :     0.826314
  4 C s       :     2.984101  s :     2.984101
      pz      :     0.804063  p :     2.382700
      px      :     0.757177
      py      :     0.821461
      dz2     :     0.010511  d :     0.107408
      dxz     :     0.021747
      dyz     :     0.009633
      dx2y2   :     0.027944
      dxy     :     0.037573
  5 O s       :     3.872267  s :     3.872267
      pz      :     1.449563  p :     4.566694
      px      :     1.373685
      py      :     1.743446
      dz2     :     0.003403  d :     0.026553
      dxz     :     0.008220
      dyz     :     0.001387
      dx2y2   :     0.007417
      dxy     :     0.006126
  6 N s       :     3.562687  s :     3.562687
      pz      :     1.474683  p :     3.793612
      px      :     1.170847
      py      :     1.148081
      dz2     :     0.004581  d :     0.036632
      dxz     :     0.006298
      dyz     :     0.006391
      dx2y2   :     0.008220
      dxy     :     0.011141
  7 C s       :     3.246850  s :     3.246850
      pz      :     1.057475  p :     2.947229
      px      :     0.868192
      py      :     1.021562
      dz2     :     0.016689  d :     0.052735
      dxz     :     0.009520
      dyz     :     0.004541
      dx2y2   :     0.011612
      dxy     :     0.010373
  8 H s       :     0.820336  s :     0.820336
  9 H s       :     0.834888  s :     0.834888
 10 C s       :     2.971176  s :     2.971176
      pz      :     0.751527  p :     2.383654
      px      :     0.833856
      py      :     0.798271
      dz2     :     0.034057  d :     0.108003
      dxz     :     0.022908
      dyz     :     0.020571
      dx2y2   :     0.010752
      dxy     :     0.019715
 11 N s       :     3.525862  s :     3.525862
      pz      :     1.169155  p :     3.799050
      px      :     1.297530
      py      :     1.332366
      dz2     :     0.008866  d :     0.037260
      dxz     :     0.007931
      dyz     :     0.007952
      dx2y2   :     0.005919
      dxy     :     0.006593
 12 O s       :     3.877137  s :     3.877137
      pz      :     1.511599  p :     4.581023
      px      :     1.636192
      py      :     1.433233
      dz2     :     0.006422  d :     0.026379
      dxz     :     0.004544
      dyz     :     0.007391
      dx2y2   :     0.004545
      dxy     :     0.003477
 13 C s       :     3.262520  s :     3.262520
      pz      :     0.941742  p :     3.022307
      px      :     1.096479
      py      :     0.984086
      dz2     :     0.013175  d :     0.049052
      dxz     :     0.003923
      dyz     :     0.012880
      dx2y2   :     0.009354
      dxy     :     0.009721
 14 H s       :     0.831804  s :     0.831804
 15 H s       :     0.841475  s :     0.841475
 16 H s       :     0.818136  s :     0.818136
 17 C s       :     3.256192  s :     3.256192
      pz      :     1.129141  p :     3.021822
      px      :     0.900505
      py      :     0.992177
      dz2     :     0.008257  d :     0.048200
      dxz     :     0.004061
      dyz     :     0.012609
      dx2y2   :     0.008941
      dxy     :     0.014332
 18 H s       :     0.840855  s :     0.840855
 19 H s       :     0.794056  s :     0.794056
 20 H s       :     0.846726  s :     0.846726
 21 C s       :     3.213547  s :     3.213547
      pz      :     1.022642  p :     2.884861
      px      :     1.052043
      py      :     0.810176
      dz2     :     0.006198  d :     0.053299
      dxz     :     0.013076
      dyz     :     0.011837
      dx2y2   :     0.012453
      dxy     :     0.009735
 22 H s       :     0.832462  s :     0.832462
 23 C s       :     3.196693  s :     3.196693
      pz      :     0.956317  p :     2.826288
      px      :     0.946787
      py      :     0.923184
      dz2     :     0.005101  d :     0.045235
      dxz     :     0.011664
      dyz     :     0.011778
      dx2y2   :     0.007441
      dxy     :     0.009252
 24 H s       :     0.843157  s :     0.843157
 25 C s       :     3.297692  s :     3.297692
      pz      :     1.055726  p :     3.116339
      px      :     1.052602
      py      :     1.008012
      dz2     :     0.002494  d :     0.034977
      dxz     :     0.008711
      dyz     :     0.010826
      dx2y2   :     0.006774
      dxy     :     0.006171
 26 H s       :     0.858964  s :     0.858964
 27 H s       :     0.853852  s :     0.853852
 28 H s       :     0.859991  s :     0.859991
 29 H s       :     0.844100  s :     0.844100
 30 C s       :     3.296933  s :     3.296933
      pz      :     1.051572  p :     3.126724
      px      :     1.013598
      py      :     1.061553
      dz2     :     0.003125  d :     0.035021
      dxz     :     0.008681
      dyz     :     0.010297
      dx2y2   :     0.005256
      dxy     :     0.007662
 31 H s       :     0.851828  s :     0.851828
 32 H s       :     0.858347  s :     0.858347
 33 H s       :     0.862302  s :     0.862302


                     *******************************
                     * LOEWDIN POPULATION ANALYSIS *
                     *******************************

----------------------
LOEWDIN ATOMIC CHARGES
----------------------
   0 C :   -0.394632
   1 H :    0.135920
   2 H :    0.155360
   3 H :    0.144671
   4 C :    0.110815
   5 O :   -0.273422
   6 N :   -0.092848
   7 C :   -0.177439
   8 H :    0.140673
   9 H :    0.138704
  10 C :    0.099539
  11 N :   -0.077483
  12 O :   -0.288939
  13 C :   -0.281689
  14 H :    0.135725
  15 H :    0.124098
  16 H :    0.140421
  17 C :   -0.279038
  18 H :    0.126984
  19 H :    0.158452
  20 H :    0.125300
  21 C :   -0.155010
  22 H :    0.137265
  23 C :   -0.135314
  24 H :    0.132906
  25 C :   -0.357054
  26 H :    0.124310
  27 H :    0.125412
  28 H :    0.121667
  29 H :    0.131036
  30 C :   -0.364856
  31 H :    0.125236
  32 H :    0.120871
  33 H :    0.122359

-------------------------------
LOEWDIN REDUCED ORBITAL CHARGES
-------------------------------
  0 C s       :     2.983588  s :     2.983588
      pz      :     1.131857  p :     3.347347
      px      :     1.138634
      py      :     1.076856
      dz2     :     0.010879  d :     0.063698
      dxz     :     0.013576
      dyz     :     0.011352
      dx2y2   :     0.015911
      dxy     :     0.011980
  1 H s       :     0.864080  s :     0.864080
  2 H s       :     0.844640  s :     0.844640
  3 H s       :     0.855329  s :     0.855329
  4 C s       :     2.852157  s :     2.852157
      pz      :     0.834138  p :     2.784472
      px      :     0.964996
      py      :     0.985337
      dz2     :     0.023292  d :     0.252557
      dxz     :     0.048427
      dyz     :     0.020023
      dx2y2   :     0.066620
      dxy     :     0.094194
  5 O s       :     3.568630  s :     3.568630
      pz      :     1.448232  p :     4.651436
      px      :     1.453145
      py      :     1.750059
      dz2     :     0.006842  d :     0.053357
      dxz     :     0.014150
      dyz     :     0.002225
      dx2y2   :     0.016541
      dxy     :     0.013599
  6 N s       :     3.113746  s :     3.113746
      pz      :     1.473883  p :     3.885545
      px      :     1.216918
      py      :     1.194744
      dz2     :     0.010985  d :     0.093557
      dxz     :     0.015064
      dyz     :     0.014669
      dx2y2   :     0.022659
      dxy     :     0.030180
  7 C s       :     2.932929  s :     2.932929
      pz      :     1.089313  p :     3.133501
      px      :     0.963957
      py      :     1.080231
      dz2     :     0.034331  d :     0.111009
      dxz     :     0.020387
      dyz     :     0.008219
      dx2y2   :     0.024240
      dxy     :     0.023832
  8 H s       :     0.859327  s :     0.859327
  9 H s       :     0.861296  s :     0.861296
 10 C s       :     2.849796  s :     2.849796
      pz      :     0.937570  p :     2.795584
      px      :     0.923468
      py      :     0.934546
      dz2     :     0.082254  d :     0.255081
      dxz     :     0.053227
      dyz     :     0.050827
      dx2y2   :     0.023235
      dxy     :     0.045539
 11 N s       :     3.086161  s :     3.086161
      pz      :     1.233667  p :     3.894061
      px      :     1.315090
      py      :     1.345305
      dz2     :     0.023685  d :     0.097260
      dxz     :     0.022870
      dyz     :     0.020502
      dx2y2   :     0.014251
      dxy     :     0.015952
 12 O s       :     3.569690  s :     3.569690
      pz      :     1.548162  p :     4.665826
[...]
     76      -0.003838  -0.001023  -0.000028  -0.000028   0.000007   0.000015
     77      -0.007125  -0.001447   0.000218  -0.000030  -0.000046   0.000005
     78       0.011476   0.000465  -0.000639   0.000062   0.000088   0.000023
     79      -0.040951  -0.006365   0.001946  -0.000224  -0.000245  -0.000043
     80       0.049068   0.008411  -0.002223   0.000223   0.000258   0.000053
     81       0.094167   0.027354  -0.001019   0.000598  -0.000508  -0.000103
     82       0.018718   0.005016  -0.000233   0.000101  -0.000012  -0.000036
     83      -0.054013  -0.015614   0.000653  -0.000358   0.000260   0.000051
     84       0.084847   0.023497  -0.001441   0.000513   0.000201  -0.000145
     85       0.071505   0.021324  -0.001376   0.000479   0.000170  -0.000135
     86       0.091436   0.027573  -0.001532   0.000578   0.000190  -0.000189
     87       0.365968   0.052495  -0.013262   0.003025  -0.000198   0.000065
     88       0.058739   0.009181  -0.002244   0.000136  -0.000298   0.000006
     89      -0.196162  -0.028744   0.006645  -0.001693   0.000199  -0.000052
     90      -0.011126   0.015161   0.000074  -0.000083   0.000206   0.000053
     91       0.018560  -0.082030   0.000277   0.000039  -0.000813   0.000314
     92      -0.007672  -0.028867   0.000460  -0.000090  -0.000255   0.000230
     93       0.044463   0.211934  -0.002421   0.000805   0.001732  -0.001736
     94       0.032099   0.112075  -0.001505   0.000569   0.001311  -0.001244
     95       0.035155   0.183088  -0.001859   0.000680   0.001750  -0.001715
     96       0.069258  -0.356185   0.001713   0.000119  -0.003328   0.001089
     97      -0.151704   0.755287  -0.003645  -0.000394   0.006523  -0.002318
     98      -0.068805   0.333190  -0.001520  -0.000258   0.003360  -0.001104
     99       0.027868  -0.038201  -0.000428   0.000168  -0.000637  -0.000013
    100      -0.100556   0.123112   0.001820  -0.000577   0.001887  -0.000112
    101       0.126091  -0.175417  -0.002117   0.000674  -0.001875   0.000025


-----------
IR SPECTRUM
-----------

 Mode   freq       eps      Int      T**2         TX        TY        TZ
       cm**-1   L/(mol*cm) km/mol    a.u.
----------------------------------------------------------------------------
  6:     40.77   0.000302    1.53  0.002315  ( 0.021106 -0.031092  0.030048)
  7:     52.80   0.000487    2.46  0.002877  ( 0.041133 -0.022154  0.026343)
  8:     68.49   0.000231    1.17  0.001052  ( 0.015686 -0.004381 -0.028056)
  9:     73.72   0.000681    3.44  0.002881  (-0.052065  0.009211  0.009257)
 10:     81.06   0.000664    3.36  0.002557  (-0.032156  0.002350  0.038950)
 11:    107.55   0.000392    1.98  0.001137  (-0.003972 -0.020318  0.026621)
 12:    113.33   0.000125    0.63  0.000344  (-0.004749 -0.017848 -0.001642)
 13:    131.15   0.000075    0.38  0.000178  (-0.008157  0.010538  0.000891)
 14:    153.49   0.000384    1.94  0.000781  ( 0.022332 -0.013822  0.009539)
 15:    181.40   0.000221    1.12  0.000381  (-0.003390  0.016185 -0.010361)
 16:    187.37   0.000010    0.05  0.000017  (-0.001538  0.003253  0.001925)
 17:    228.00   0.000300    1.52  0.000411  (-0.003394  0.019897 -0.001767)
 18:    235.14   0.000858    4.34  0.001139  (-0.014702  0.030084 -0.004206)
 19:    242.59   0.001079    5.45  0.001388  ( 0.035604  0.002622  0.010632)
 20:    270.25   0.000210    1.06  0.000243  ( 0.014785  0.003787  0.003127)
 21:    297.81   0.000586    2.96  0.000614  ( 0.001457  0.024483 -0.003548)
 22:    324.95   0.000171    0.86  0.000164  ( 0.007704  0.005040 -0.008898)
 23:    347.37   0.002781   14.06  0.002499  ( 0.035920  0.032053 -0.013452)
 24:    371.76   0.000763    3.86  0.000641  ( 0.015114 -0.007049 -0.019044)
 25:    414.31   0.000232    1.17  0.000175  ( 0.010257 -0.004389  0.007079)
 26:    417.37   0.000274    1.39  0.000205  ( 0.012505 -0.000859 -0.006936)
 27:    429.98   0.000988    4.99  0.000717  ( 0.017791  0.019880 -0.002343)
 28:    462.02   0.000653    3.30  0.000441  (-0.016524 -0.010413 -0.007705)
 29:    511.90   0.001349    6.82  0.000822  ( 0.007757 -0.025316  0.011006)
 30:    563.20   0.002098   10.60  0.001162  ( 0.014643  0.011255  0.028656)
 31:    608.60   0.000770    3.89  0.000395  ( 0.008325  0.003512 -0.017701)
 32:    632.06   0.003495   17.66  0.001725  (-0.035882 -0.008495  0.019126)
 33:    706.79   0.001863    9.42  0.000823  (-0.000767 -0.028673 -0.000057)
 34:    769.63   0.000420    2.12  0.000170  ( 0.011684 -0.005281 -0.002446)
 35:    820.57   0.003721   18.81  0.001415  (-0.031483  0.005159  0.019933)
 36:    829.20   0.000397    2.00  0.000149  (-0.009895  0.005410 -0.004699)
 37:    913.44   0.000288    1.45  0.000098  ( 0.005384 -0.007600 -0.003388)
 38:    939.83   0.000420    2.12  0.000140  ( 0.003513 -0.010788 -0.003298)
 39:    951.57   0.000306    1.55  0.000100  (-0.008350  0.001841  0.005232)
 40:    978.48   0.000856    4.32  0.000273  (-0.001877 -0.016413  0.000069)
 41:    982.17   0.001606    8.11  0.000510  ( 0.009530  0.020003  0.004383)
 42:    997.42   0.002089   10.56  0.000653  (-0.025294 -0.003691 -0.000320)
 43:   1009.97   0.008013   40.49  0.002476  (-0.038822 -0.018948  0.024688)
 44:   1062.21   0.001133    5.73  0.000333  (-0.009950 -0.005688  0.014197)
 45:   1086.01   0.003106   15.69  0.000892  ( 0.008137  0.007362  0.027784)
 46:   1091.72   0.001239    6.26  0.000354  ( 0.009184  0.016044  0.003516)
 47:   1137.86   0.000418    2.11  0.000115  ( 0.002412 -0.006068 -0.008489)
 48:   1150.75   0.006520   32.95  0.001768  (-0.030789  0.027611  0.007611)
 49:   1158.69   0.002924   14.78  0.000788  (-0.021175  0.013374  0.012664)
 50:   1180.39   0.001059    5.35  0.000280  ( 0.010951 -0.001250  0.012585)
 51:   1202.61   0.006843   34.58  0.001776  ( 0.015509 -0.006572 -0.038626)
 52:   1208.68   0.000984    4.97  0.000254  ( 0.001749  0.009925 -0.012349)
 53:   1246.00   0.002709   13.69  0.000678  (-0.011718  0.022928 -0.003933)
 54:   1272.00   0.023421  118.36  0.005746  (-0.048442 -0.054510 -0.020685)
 55:   1303.18   0.010302   52.06  0.002467  (-0.036848 -0.032171  0.008619)
 56:   1335.20   0.005353   27.05  0.001251  (-0.011840 -0.033314 -0.001084)
 57:   1358.57   0.000241    1.22  0.000055  ( 0.002862  0.005666  0.003870)
 58:   1382.37   0.004676   23.63  0.001055  ( 0.004224  0.032207 -0.000607)
 59:   1398.98   0.004013   20.28  0.000895  ( 0.019548  0.021629  0.006724)
 60:   1409.41   0.002910   14.70  0.000644  (-0.024113 -0.007737 -0.001705)
 61:   1423.89   0.010209   51.59  0.002237  ( 0.021061  0.042345 -0.000920)
 62:   1430.48   0.001718    8.68  0.000375  (-0.017543 -0.007380  0.003538)
 63:   1444.00   0.011483   58.03  0.002482  (-0.038025 -0.029625  0.012569)
 64:   1447.33   0.008878   44.87  0.001914  (-0.011540  0.022790  0.035521)
 65:   1456.75   0.005177   26.16  0.001109  (-0.028528 -0.006619  0.015851)
 66:   1468.60   0.010057   50.82  0.002137  (-0.011888 -0.034469 -0.028416)
 67:   1494.81   0.002249   11.37  0.000470  (-0.019222 -0.009097  0.004162)
 68:   1502.38   0.001085    5.48  0.000225  (-0.010339  0.005296 -0.009504)
 69:   1511.13   0.001076    5.44  0.000222  (-0.003129 -0.012593  0.007331)
 70:   1516.30   0.002551   12.89  0.000525  ( 0.008612 -0.006911 -0.020078)
 71:   1517.63   0.001342    6.78  0.000276  (-0.012645 -0.008122  0.007083)
 72:   1519.82   0.000648    3.28  0.000133  (-0.003877  0.006938  0.008365)
 73:   1523.42   0.001428    7.22  0.000293  ( 0.014016  0.000081  0.009802)
 74:   1526.81   0.002870   14.50  0.000587  ( 0.008136 -0.017425 -0.014721)
 75:   1533.08   0.001716    8.67  0.000349  ( 0.009722 -0.015295  0.004575)
 76:   1534.84   0.001369    6.92  0.000278  ( 0.005002  0.015078  0.005092)
 77:   1540.49   0.003149   15.91  0.000638  (-0.011575  0.003884 -0.022110)
 78:   1544.79   0.000551    2.79  0.000111  ( 0.003213 -0.004288  0.009090)
 79:   1560.01   0.007762   39.22  0.001553  ( 0.026973  0.000587 -0.028718)
 80:   1758.65   0.055037  278.14  0.009766  ( 0.008854  0.048376  0.085718)
 81:   1765.74   0.046511  235.05  0.008220  ( 0.089153 -0.010895  0.012367)
 82:   3023.05   0.009177   46.38  0.000947  ( 0.005521 -0.027862 -0.011855)
 83:   3034.10   0.005126   25.91  0.000527  (-0.011125  0.017555  0.009761)
 84:   3035.64   0.011312   57.17  0.001163  (-0.026443 -0.002223  0.021418)
 85:   3043.08   0.004898   24.75  0.000502  (-0.015723 -0.012717  0.009661)
 86:   3055.16   0.000704    3.56  0.000072  (-0.002366  0.003016 -0.007564)
 87:   3056.20   0.004662   23.56  0.000476  (-0.014411  0.013434 -0.009373)
 88:   3060.23   0.006033   30.49  0.000615  (-0.007909  0.005104  0.022948)
 89:   3077.01   0.000807    4.08  0.000082  ( 0.006313 -0.006346  0.001314)
 90:   3084.08   0.008437   42.64  0.000854  (-0.019417  0.018490 -0.011611)
 91:   3094.89   0.002727   13.78  0.000275  (-0.000731  0.008246 -0.014369)
 92:   3097.56   0.001457    7.36  0.000147  ( 0.010202  0.005341 -0.003762)
 93:   3105.36   0.005710   28.86  0.000574  ( 0.020526 -0.000782  0.012324)
 94:   3110.87   0.009532   48.17  0.000956  ( 0.000175  0.014800 -0.027151)
 95:   3115.06   0.003041   15.37  0.000305  (-0.010577 -0.002319  0.013688)
 96:   3122.58   0.004143   20.94  0.000414  (-0.019277 -0.000025 -0.006516)
 97:   3133.23   0.006936   35.05  0.000691  ( 0.004569 -0.024320 -0.008859)
 98:   3154.49   0.002582   13.05  0.000255  (-0.007049  0.013142  0.005747)
 99:   3172.65   0.001798    9.09  0.000177  (-0.011976 -0.004430 -0.003723)
100:   3189.06   0.000897    4.53  0.000088  (-0.008380 -0.003652 -0.002051)
101:   3191.91   0.000414    2.09  0.000040  ( 0.005424  0.003190  0.000946)

* The epsilon (eps) is given for a Dirac delta lineshape.
** The dipole moment derivative (T) already includes vibrational overlap.

The first frequency considered to be a vibration is 6
The total number of vibrations considered is 96


--------------------------
THERMOCHEMISTRY AT 298.15K
--------------------------

Temperature         ... 298.15 K
Pressure            ... 1.00 atm
Total Mass          ... 200.28 AMU

Throughout the following assumptions are being made:
  (1) The electronic state is orbitally nondegenerate
  (2) There are no thermally accessible electronically excited states
  (3) Hindered rotations indicated by low frequency modes are not
      treated as such but are treated as vibrations and this may
      cause some error
  (4) All equations used are the standard statistical mechanics
      equations for an ideal gas
  (5) All vibrations are strictly harmonic

freq.      40.77  E(vib)   ...       0.54 
freq.      52.80  E(vib)   ...       0.52 
freq.      68.49  E(vib)   ...       0.50 
freq.      73.72  E(vib)   ...       0.49 
freq.      81.06  E(vib)   ...       0.48 
freq.     107.55  E(vib)   ...       0.45 
freq.     113.33  E(vib)   ...       0.45 
freq.     131.15  E(vib)   ...       0.42 
freq.     153.49  E(vib)   ...       0.40 
freq.     181.40  E(vib)   ...       0.37 
freq.     187.37  E(vib)   ...       0.36 
freq.     228.00  E(vib)   ...       0.33 
freq.     235.14  E(vib)   ...       0.32 
freq.     242.59  E(vib)   ...       0.31 
freq.     270.25  E(vib)   ...       0.29 
freq.     297.81  E(vib)   ...       0.27 
freq.     324.95  E(vib)   ...       0.24 
freq.     347.37  E(vib)   ...       0.23 
freq.     371.76  E(vib)   ...       0.21 
freq.     414.31  E(vib)   ...       0.19 
freq.     417.37  E(vib)   ...       0.18 
freq.     429.98  E(vib)   ...       0.18 
freq.     462.02  E(vib)   ...       0.16 
freq.     511.90  E(vib)   ...       0.14 
freq.     563.20  E(vib)   ...       0.11 
freq.     608.60  E(vib)   ...       0.10 
freq.     632.06  E(vib)   ...       0.09 
freq.     706.79  E(vib)   ...       0.07 
freq.     769.63  E(vib)   ...       0.05 
freq.     820.57  E(vib)   ...       0.05 
freq.     829.20  E(vib)   ...       0.04 
freq.     913.44  E(vib)   ...       0.03 
freq.     939.83  E(vib)   ...       0.03 
freq.     951.57  E(vib)   ...       0.03 
freq.     978.48  E(vib)   ...       0.03 
freq.     982.17  E(vib)   ...       0.02 
freq.     997.42  E(vib)   ...       0.02 
freq.    1009.97  E(vib)   ...       0.02 
freq.    1062.21  E(vib)   ...       0.02 
freq.    1086.01  E(vib)   ...       0.02 
freq.    1091.72  E(vib)   ...       0.02 
freq.    1137.86  E(vib)   ...       0.01 
freq.    1150.75  E(vib)   ...       0.01 
freq.    1158.69  E(vib)   ...       0.01 
freq.    1180.39  E(vib)   ...       0.01 
freq.    1202.61  E(vib)   ...       0.01 
freq.    1208.68  E(vib)   ...       0.01 
freq.    1246.00  E(vib)   ...       0.01 
freq.    1272.00  E(vib)   ...       0.01 
freq.    1303.18  E(vib)   ...       0.01 
freq.    1335.20  E(vib)   ...       0.01 
freq.    1358.57  E(vib)   ...       0.01 
freq.    1382.37  E(vib)   ...       0.01 
freq.    1398.98  E(vib)   ...       0.00 
freq.    1409.41  E(vib)   ...       0.00 
freq.    1423.89  E(vib)   ...       0.00 
freq.    1430.48  E(vib)   ...       0.00 
freq.    1444.00  E(vib)   ...       0.00 
freq.    1447.33  E(vib)   ...       0.00 
freq.    1456.75  E(vib)   ...       0.00 
freq.    1468.60  E(vib)   ...       0.00 
freq.    1494.81  E(vib)   ...       0.00 
freq.    1502.38  E(vib)   ...       0.00 
freq.    1511.13  E(vib)   ...       0.00 
freq.    1516.30  E(vib)   ...       0.00 
freq.    1517.63  E(vib)   ...       0.00 
freq.    1519.82  E(vib)   ...       0.00 
freq.    1523.42  E(vib)   ...       0.00 
freq.    1526.81  E(vib)   ...       0.00 
freq.    1533.08  E(vib)   ...       0.00 
freq.    1534.84  E(vib)   ...       0.00 
freq.    1540.49  E(vib)   ...       0.00 
freq.    1544.79  E(vib)   ...       0.00 
freq.    1560.01  E(vib)   ...       0.00 
freq.    1758.65  E(vib)   ...       0.00 
freq.    1765.74  E(vib)   ...       0.00 
freq.    3023.05  E(vib)   ...       0.00 
freq.    3034.10  E(vib)   ...       0.00 
freq.    3035.64  E(vib)   ...       0.00 
freq.    3043.08  E(vib)   ...       0.00 
freq.    3055.16  E(vib)   ...       0.00 
freq.    3056.20  E(vib)   ...       0.00 
freq.    3060.23  E(vib)   ...       0.00 
freq.    3077.01  E(vib)   ...       0.00 
freq.    3084.08  E(vib)   ...       0.00 
freq.    3094.89  E(vib)   ...       0.00 
freq.    3097.56  E(vib)   ...       0.00 
freq.    3105.36  E(vib)   ...       0.00 
freq.    3110.87  E(vib)   ...       0.00 
freq.    3115.06  E(vib)   ...       0.00 
freq.    3122.58  E(vib)   ...       0.00 
freq.    3133.23  E(vib)   ...       0.00 
freq.    3154.49  E(vib)   ...       0.00 
freq.    3172.65  E(vib)   ...       0.00 
freq.    3189.06  E(vib)   ...       0.00 
freq.    3191.91  E(vib)   ...       0.00 

------------
INNER ENERGY
------------

The inner energy is: U= E(el) + E(ZPE) + E(vib) + E(rot) + E(trans)
    E(el)   - is the total energy from the electronic structure calculation
              = E(kin-el) + E(nuc-el) + E(el-el) + E(nuc-nuc)
    E(ZPE)  - the the zero temperature vibrational energy from the frequency calculation
    E(vib)  - the the finite temperature correction to E(ZPE) due to population
              of excited vibrational states
    E(rot)  - is the rotational thermal energy
    E(trans)- is the translational thermal energy

Summary of contributions to the inner energy U:
Electronic energy                ...   -652.72160588 Eh
Zero point energy                ...      0.30165068 Eh     189.29 kcal/mol
Thermal vibrational correction   ...      0.01427383 Eh       8.96 kcal/mol
Thermal rotational correction    ...      0.00141627 Eh       0.89 kcal/mol
Thermal translational correction ...      0.00141627 Eh       0.89 kcal/mol
-----------------------------------------------------------------------
Total thermal energy                   -652.40284883 Eh


Summary of corrections to the electronic energy:
(perhaps to be used in another calculation)
Total thermal correction                  0.01710637 Eh      10.73 kcal/mol
Non-thermal (ZPE) correction              0.30165068 Eh     189.29 kcal/mol
-----------------------------------------------------------------------
Total correction                          0.31875705 Eh     200.02 kcal/mol


--------
ENTHALPY
--------

The enthalpy is H = U + kB*T
                kB is Boltzmann's constant
Total free energy                 ...   -652.40284883 Eh 
Thermal Enthalpy correction       ...      0.00094421 Eh       0.59 kcal/mol
-----------------------------------------------------------------------
Total Enthalpy                    ...   -652.40190462 Eh


Note: Only C1 symmetry has been detected, increase convergence thresholds 
      if your molecule has a higher symmetry. Symmetry factor of 1.0 is   
      used for the rotational entropy correction. 
 

Note: Rotational entropy computed according to Herzberg 
Infrared and Raman Spectra, Chapter V,1, Van Nostrand Reinhold, 1945 
Point Group:  C1, Symmetry Number:   1  
Rotational constants in cm-1:     0.025565     0.018706     0.013685 

Vibrational entropy computed according to the QRRHO of S. Grimme
Chem.Eur.J. 2012 18 9955


-------
ENTROPY
-------

The entropy contributions are T*S = T*(S(el)+S(vib)+S(rot)+S(trans))
     S(el)   - electronic entropy
     S(vib)  - vibrational entropy
     S(rot)  - rotational entropy
     S(trans)- translational entropy
The entropies will be listed as multiplied by the temperature to get
units of energy

Electronic entropy                ...      0.00000000 Eh      0.00 kcal/mol
Vibrational entropy               ...      0.02549365 Eh     16.00 kcal/mol
Rotational entropy                ...      0.01514613 Eh      9.50 kcal/mol
Translational entropy             ...      0.01985492 Eh     12.46 kcal/mol
-----------------------------------------------------------------------
Final entropy term                ...      0.06049471 Eh     37.96 kcal/mol

In case the symmetry of your molecule has not been determined correctly
or in case you have a reason to use a different symmetry number we print 
out the resulting rotational entropy values for sn=1,12 :
 --------------------------------------------------------
|  sn= 1 | S(rot)=       0.01514613 Eh      9.50 kcal/mol|
|  sn= 2 | S(rot)=       0.01449168 Eh      9.09 kcal/mol|
|  sn= 3 | S(rot)=       0.01410884 Eh      8.85 kcal/mol|
|  sn= 4 | S(rot)=       0.01383722 Eh      8.68 kcal/mol|
|  sn= 5 | S(rot)=       0.01362653 Eh      8.55 kcal/mol|
|  sn= 6 | S(rot)=       0.01345439 Eh      8.44 kcal/mol|
|  sn= 7 | S(rot)=       0.01330884 Eh      8.35 kcal/mol|
|  sn= 8 | S(rot)=       0.01318276 Eh      8.27 kcal/mol|
|  sn= 9 | S(rot)=       0.01307156 Eh      8.20 kcal/mol|
|  sn=10 | S(rot)=       0.01297208 Eh      8.14 kcal/mol|
|  sn=11 | S(rot)=       0.01288209 Eh      8.08 kcal/mol|
|  sn=12 | S(rot)=       0.01279993 Eh      8.03 kcal/mol|
 --------------------------------------------------------


-------------------
GIBBS FREE ENERGY
-------------------

The Gibbs free energy is G = H - T*S

Total enthalpy                    ...   -652.40190462 Eh 
Total entropy correction          ...     -0.06049471 Eh    -37.96 kcal/mol
-----------------------------------------------------------------------
Final Gibbs free energy         ...   -652.46239933 Eh

For completeness - the Gibbs free energy minus the electronic energy
G-E(el)                           ...      0.25920655 Eh    162.65 kcal/mol


Timings for individual modules:

Sum of individual times         ...     1249.265 sec (=  20.821 min)
GTO integral calculation        ...       13.216 sec (=   0.220 min)   1.1 %
SCF iterations                  ...      533.840 sec (=   8.897 min)  42.7 %
SCF Gradient evaluation         ...      160.014 sec (=   2.667 min)  12.8 %
Geometry relaxation             ...        0.972 sec (=   0.016 min)   0.1 %
Analytical frequency calculation...      541.222 sec (=   9.020 min)  43.3 %
                             ****ORCA TERMINATED NORMALLY****
TOTAL RUN TIME: 0 days 0 hours 20 minutes 53 seconds 962 msec
