
                                 *****************
                                 * O   R   C   A *
                                 *****************

                                            #,                                       
                                            ###                                      
                                            ####                                     
                                            #####                                    
                                            ######                                   
                                           ########,                                 
                                     ,,################,,,,,                         
                               ,,#################################,,                 
                          ,,##########################################,,             
                       ,#########################################, ''#####,          
                    ,#############################################,,   '####,        
                  ,##################################################,,,,####,       
                ,###########''''           ''''###############################       
              ,#####''   ,,,,##########,,,,          '''####'''          '####       
            ,##' ,,,,###########################,,,                        '##       
           ' ,,###''''                  '''############,,,                           
         ,,##''                                '''############,,,,        ,,,,,,###''
      ,#''                                            '''#######################'''  
     '                                                          ''''####''''         
             ,#######,   #######,   ,#######,      ##                                
            ,#'     '#,  ##    ##  ,#'     '#,    #''#        ######   ,####,        
            ##       ##  ##   ,#'  ##            #'  '#       #        #'  '#        
            ##       ##  #######   ##           ,######,      #####,   #    #        
            '#,     ,#'  ##    ##  '#,     ,#' ,#      #,         ##   #,  ,#        
             '#######'   ##     ##  '#######'  #'      '#     #####' # '####'        



                  #######################################################
                  #                        -***-                        #
                  #          Department of theory and spectroscopy      #
                  #    Directorship and core code : Frank Neese         #
                  #        Max Planck Institute fuer Kohlenforschung    #
                  #                Kaiser Wilhelm Platz 1               #
                  #                 D-45470 Muelheim/Ruhr               #
                  #                      Germany                        #
                  #                                                     #
                  #                  All rights reserved                #
                  #                        -***-                        #
                  #######################################################


                         Program Version 5.0.4 -  RELEASE  -


 With contributions from (in alphabetic order):
   Daniel Aravena         : Magnetic Suceptibility
   Michael Atanasov       : Ab Initio Ligand Field Theory (pilot matlab implementation)
   Alexander A. Auer      : GIAO ZORA, VPT2 properties, NMR spectrum
   Ute Becker             : Parallelization
   Giovanni Bistoni       : ED, misc. LED, open-shell LED, HFLD
   Martin Brehm           : Molecular dynamics
   Dmytro Bykov           : SCF Hessian
   Vijay G. Chilkuri      : MRCI spin determinant printing, contributions to CSF-ICE
   Dipayan Datta          : RHF DLPNO-CCSD density
   Achintya Kumar Dutta   : EOM-CC, STEOM-CC
   Dmitry Ganyushin       : Spin-Orbit,Spin-Spin,Magnetic field MRCI
   Miquel Garcia          : C-PCM and meta-GGA Hessian, CC/C-PCM, Gaussian charge scheme
   Yang Guo               : DLPNO-NEVPT2, F12-NEVPT2, CIM, IAO-localization
   Andreas Hansen         : Spin unrestricted coupled pair/coupled cluster methods
   Benjamin Helmich-Paris : MC-RPA, TRAH-SCF, COSX integrals
   Lee Huntington         : MR-EOM, pCC
   Robert Izsak           : Overlap fitted RIJCOSX, COSX-SCS-MP3, EOM
   Marcus Kettner         : VPT2
   Christian Kollmar      : KDIIS, OOCD, Brueckner-CCSD(T), CCSD density, CASPT2, CASPT2-K
   Simone Kossmann        : Meta GGA functionals, TD-DFT gradient, OOMP2, MP2 Hessian
   Martin Krupicka        : Initial AUTO-CI
   Lucas Lang             : DCDCAS
   Marvin Lechner         : AUTO-CI (C++ implementation), FIC-MRCC
   Dagmar Lenk            : GEPOL surface, SMD
   Dimitrios Liakos       : Extrapolation schemes; Compound Job, initial MDCI parallelization
   Dimitrios Manganas     : Further ROCIS development; embedding schemes
   Dimitrios Pantazis     : SARC Basis sets
   Anastasios Papadopoulos: AUTO-CI, single reference methods and gradients
   Taras Petrenko         : DFT Hessian,TD-DFT gradient, ASA, ECA, R-Raman, ABS, FL, XAS/XES, NRVS
   Peter Pinski           : DLPNO-MP2, DLPNO-MP2 Gradient
   Christoph Reimann      : Effective Core Potentials
   Marius Retegan         : Local ZFS, SOC
   Christoph Riplinger    : Optimizer, TS searches, QM/MM, DLPNO-CCSD(T), (RO)-DLPNO pert. Triples
   Tobias Risthaus        : Range-separated hybrids, TD-DFT gradient, RPA, STAB
   Michael Roemelt        : Original ROCIS implementation
   Masaaki Saitow         : Open-shell DLPNO-CCSD energy and density
   Barbara Sandhoefer     : DKH picture change effects
   Avijit Sen             : IP-ROCIS
   Kantharuban Sivalingam : CASSCF convergence, NEVPT2, FIC-MRCI
   Bernardo de Souza      : ESD, SOC TD-DFT
   Georgi Stoychev        : AutoAux, RI-MP2 NMR, DLPNO-MP2 response
   Willem Van den Heuvel  : Paramagnetic NMR
   Boris Wezisla          : Elementary symmetry handling
   Frank Wennmohs         : Technical directorship


 We gratefully acknowledge several colleagues who have allowed us to
 interface, adapt or use parts of their codes:
   Stefan Grimme, W. Hujo, H. Kruse, P. Pracht,  : VdW corrections, initial TS optimization,
                  C. Bannwarth, S. Ehlert          DFT functionals, gCP, sTDA/sTD-DF
   Ed Valeev, F. Pavosevic, A. Kumar             : LibInt (2-el integral package), F12 methods
   Garnet Chan, S. Sharma, J. Yang, R. Olivares  : DMRG
   Ulf Ekstrom                                   : XCFun DFT Library
   Mihaly Kallay                                 : mrcc  (arbitrary order and MRCC methods)
   Jiri Pittner, Ondrej Demel                    : Mk-CCSD
   Frank Weinhold                                : gennbo (NPA and NBO analysis)
   Christopher J. Cramer and Donald G. Truhlar   : smd solvation model
   Lars Goerigk                                  : TD-DFT with DH, B97 family of functionals
   V. Asgeirsson, H. Jonsson                     : NEB implementation
   FAccTs GmbH                                   : IRC, NEB, NEB-TS, DLPNO-Multilevel, CI-OPT
                                                   MM, QMMM, 2- and 3-layer-ONIOM, Crystal-QMMM,
                                                   LR-CPCM, SF, NACMEs, symmetry and pop. for TD-DFT,
                                                   nearIR, NL-DFT gradient (VV10), updates on ESD,
                                                   ML-optimized integration grids
   S Lehtola, MJT Oliveira, MAL Marques          : LibXC Library
   Liviu Ungur et al                             : ANISO software


 Your calculation uses the libint2 library for the computation of 2-el integrals
 For citations please refer to: http://libint.valeyev.net

 Your ORCA version has been built with support for libXC version: 5.1.0
 For citations please refer to: https://tddft.org/programs/libxc/

 This ORCA versions uses:
   CBLAS   interface :  Fast vector & matrix operations
   LAPACKE interface :  Fast linear algebra routines
   SCALAPACK package :  Parallel linear algebra routines
   Shared memory     :  Shared parallel matrices
   BLAS/LAPACK       :  OpenBLAS 0.3.15  USE64BITINT DYNAMIC_ARCH NO_AFFINITY SkylakeX SINGLE_THREADED
        Core in use  :  SkylakeX
   Copyright (c) 2011-2014, The OpenBLAS Project




***************************************
The coordinates will be read from file: /users/fjb15167/WWenergy/structures/Nr.xyz
***************************************


Your calculation utilizes the atom-pairwise dispersion correction
based on tight binding partial charges (D4)
Cite in your paper:
E.Caldeweyher, C.Bannwarth, S.Grimme, J.Chem.Phys., (2017), 147, 034112.
E.Caldeweyher, S.Ehlert, A.Hansen, H.Neugebauer, S.Grimme, J.Chem.Phys., (2018), in progress.
   

================================================================================

----- Orbital basis set information -----
Your calculation utilizes the basis: 6-31+G(d)
   H-He, Li-Ne : W. J. Hehre, R. Ditchfield and J.A. Pople, J. Chem. Phys. 56, 2257 (1972).
                 Note: He and Ne are unpublished basis sets taken from the Gaussian program.
                 Note: Li and B from J. D. Dill and J. A. Pople, J. Chem. Phys. 62, 2921 (1975).
   Na - Ar     : M. M. Francl, W. J. Pietro, W. J. Hehre, J. S. Binkley, M. S. Gordon, 
                 D. J. DeFrees and J. A. Pople, J. Chem. Phys. 77, 3654 (1982).
   K - Zn      : V. A. Rassolov, J. A. Pople, M. A. Ratner, and T. L. Windus, J. Chem. Phys. 109, 1223 (1998).
   Additional Pol./Diff. from the 6-311G equivalent.

----- AuxJ basis set information -----
Your calculation utilizes the AutoAux generation procedure.
  G. L. Stoychev, A. A. Auer, F. Neese, J. Chem. Theory Comput. 13, 554 (2017)

----- AuxC basis set information -----
Your calculation utilizes the AutoAux generation procedure.
  G. L. Stoychev, A. A. Auer, F. Neese, J. Chem. Theory Comput. 13, 554 (2017)

----- AuxJK basis set information -----
Your calculation utilizes the AutoAux generation procedure.
  G. L. Stoychev, A. A. Auer, F. Neese, J. Chem. Theory Comput. 13, 554 (2017)

================================================================================
                                        WARNINGS
                       Please study these warnings very carefully!
================================================================================


WARNING: Geometry Optimization
  ===> : Switching off AutoStart
         For restart on a previous wavefunction, please use MOREAD

INFO   : the flag for use of the SHARK integral package has been found!

================================================================================
                                       INPUT FILE
================================================================================
NAME = Nr_gas.inp
|  1> ! OPT FREQ B3LYP 6-31+G(d) D4 AUTOAUX
|  2> 
|  3> %PAL NPROCS 4 END
|  4> 
|  5> %maxcore 3375
|  6> 
|  7> *xyzfile 1 1 /users/fjb15167/WWenergy/structures/Nr.xyz
|  8> 
|  9>                          ****END OF INPUT****
================================================================================

                       *****************************
                       * Geometry Optimization Run *
                       *****************************

Geometry optimization settings:
Update method            Update   .... BFGS
Choice of coordinates    CoordSys .... Z-matrix Internals
Initial Hessian          InHess   .... Almoef's Model

Convergence Tolerances:
Energy Change            TolE     ....  5.0000e-06 Eh
Max. Gradient            TolMAXG  ....  3.0000e-04 Eh/bohr
RMS Gradient             TolRMSG  ....  1.0000e-04 Eh/bohr
Max. Displacement        TolMAXD  ....  4.0000e-03 bohr
RMS Displacement         TolRMSD  ....  2.0000e-03 bohr
Strict Convergence                ....  False
------------------------------------------------------------------------------
                        ORCA OPTIMIZATION COORDINATE SETUP
------------------------------------------------------------------------------

The optimization will be done in new redundant internal coordinates
Making redundant internal coordinates   ...  (new redundants) done
Evaluating the initial hessian          ...  (Almloef) done
Evaluating the coordinates              ...  done
Calculating the B-matrix                .... done
Calculating the G-matrix                .... done
Diagonalizing the G-matrix              .... done
Small eigenvalue found = 2.367e-03
Small eigenvalue found = 3.553e-03
Small eigenvalue found = 9.084e-03
Small eigenvalue found = 1.076e-02
Small eigenvalue found = 1.391e-02
Small eigenvalue found = 2.110e-02
Small eigenvalue found = 2.628e-02
The first mode is                       ....   73
The number of degrees of freedom        ....  111

    -----------------------------------------------------------------
                    Redundant Internal Coordinates


    -----------------------------------------------------------------
         Definition                    Initial Value    Approx d2E/dq
    -----------------------------------------------------------------
      1. B(H   1,C   0)                  1.0920         0.357520   
      2. B(H   2,C   0)                  1.0899         0.360204   
      3. B(H   3,C   0)                  1.0937         0.355213   
      4. B(C   4,C   0)                  1.5266         0.378273   
      5. B(N   5,C   4)                  1.3831         0.573861   
      6. B(C   6,N   5)                  1.4649         0.424918   
      7. B(H   7,C   6)                  1.0953         0.353117   
      8. B(H   8,C   6)                  1.0956         0.352788   
      9. B(C   9,C   6)                  1.5350         0.366731   
     10. B(N  10,C   9)                  1.3625         0.619066   
     11. B(O  11,C   9)                  1.2360         0.985476   
     12. B(O  12,C   4)                  1.2205         1.043058   
     13. B(C  13,N  10)                  1.4531         0.443806   
     14. B(H  14,C  13)                  1.0959         0.352327   
     15. B(H  15,C  13)                  1.0936         0.355314   
     16. B(H  16,C  13)                  1.0891         0.361342   
     17. B(C  17,N  10)                  1.4598         0.432979   
     18. B(H  18,C  17)                  1.0938         0.355092   
     19. B(H  19,C  17)                  1.0945         0.354156   
     20. B(H  20,C  17)                  1.0884         0.362158   
     21. B(C  21,N   5)                  1.4596         0.433363   
     22. B(H  22,C  21)                  1.0934         0.355586   
     23. B(C  23,C  21)                  1.5339         0.368238   
     24. B(H  24,C  23)                  1.0983         0.349277   
     25. B(H  25,C  23)                  1.0968         0.351264   
     26. B(C  26,C  23)                  1.5204         0.386971   
     27. B(H  27,C  26)                  1.0900         0.360061   
     28. B(H  28,C  26)                  1.0944         0.354277   
     29. B(N  29,C  26)                  1.4723         0.413656   
     30. B(H  30,N  29)                  1.0148         0.425198   
     31. B(C  31,N  29)                  1.3312         0.694426   
     32. B(N  32,C  31)                  1.3375         0.678520   
     33. B(N  33,C  31)                  1.3430         0.665095   
     34. B(H  34,N  32)                  1.0133         0.427459   
     35. B(H  35,N  32)                  1.0120         0.429575   
     36. B(H  36,N  33)                  1.0106         0.431771   
     37. B(H  37,N  33)                  1.0114         0.430555   
     38. B(H  38,C  21)                  1.0933         0.355729   
     39. A(H   3,C   0,C   4)          110.1945         0.324257   
     40. A(H   1,C   0,H   2)          110.1881         0.290524   
     41. A(H   1,C   0,H   3)          107.1968         0.289889   
     42. A(H   1,C   0,C   4)          113.7554         0.324602   
     43. A(H   2,C   0,C   4)          106.7096         0.325001   
     44. A(H   2,C   0,H   3)          108.7254         0.290229   
     45. A(C   0,C   4,O  12)          121.6903         0.433253   
     46. A(C   0,C   4,N   5)          116.7183         0.389707   
     47. A(N   5,C   4,O  12)          121.5914         0.464195   
     48. A(C   6,N   5,C  21)          118.4341         0.376331   
     49. A(C   4,N   5,C  21)          116.3197         0.396553   
     50. A(C   4,N   5,C   6)          124.3351         0.395186   
     51. A(H   7,C   6,C   9)          104.5104         0.322300   
     52. A(N   5,C   6,C   9)          116.3732         0.367972   
     53. A(H   7,C   6,H   8)          107.1198         0.289016   
     54. A(N   5,C   6,H   8)          107.3856         0.328172   
     55. A(H   8,C   6,C   9)          109.1551         0.322251   
     56. A(N   5,C   6,H   7)          111.9407         0.328222   
     57. A(C   6,C   9,N  10)          118.0550         0.392774   
     58. A(C   6,C   9,O  11)          118.2423         0.426482   
     59. A(N  10,C   9,O  11)          123.7023         0.465815   
     60. A(C  13,N  10,C  17)          116.0366         0.379115   
     61. A(C   9,N  10,C  17)          118.6476         0.401814   
     62. A(C   9,N  10,C  13)          125.3077         0.403567   
     63. A(H  15,C  13,H  16)          107.5803         0.290386   
     64. A(H  14,C  13,H  16)          109.1293         0.290002   
     65. A(N  10,C  13,H  16)          111.1171         0.331851   
     66. A(H  14,C  13,H  15)          108.6176         0.289238   
     67. A(N  10,C  13,H  15)          108.2524         0.330928   
     68. A(N  10,C  13,H  14)          112.0103         0.330466   
     69. A(H  18,C  17,H  19)          109.0426         0.289444   
     70. A(N  10,C  17,H  19)          109.6974         0.329402   
     71. A(N  10,C  17,H  18)          110.3042         0.329546   
     72. A(H  19,C  17,H  20)          110.0187         0.290340   
     73. A(H  18,C  17,H  20)          109.3738         0.290460   
     74. A(N  10,C  17,H  20)          108.3943         0.330621   
     75. A(H  22,C  21,C  23)          109.9345         0.322885   
     76. A(N   5,C  21,C  23)          114.2153         0.369477   
     77. A(N   5,C  21,H  22)          107.9302         0.329670   
     78. A(C  23,C  21,H  38)          108.4930         0.322906   
     79. A(H  22,C  21,H  38)          107.9595         0.289708   
     80. A(N   5,C  21,H  38)          108.1257         0.329692   
     81. A(H  25,C  23,C  26)          109.9874         0.324873   
     82. A(H  24,C  23,C  26)          109.6951         0.324570   
     83. A(C  21,C  23,C  26)          111.5920         0.364649   
     84. A(H  24,C  23,H  25)          107.6074         0.288326   
     85. A(C  21,C  23,H  25)          109.9602         0.322238   
     86. A(C  21,C  23,H  24)          107.8930         0.321939   
     87. A(H  28,C  26,N  29)          109.9995         0.326949   
     88. A(H  27,C  26,N  29)          107.7437         0.327823   
     89. A(C  23,C  26,N  29)          110.8409         0.369673   
     90. A(H  27,C  26,H  28)          108.1652         0.290091   
     91. A(C  23,C  26,H  28)          109.8852         0.325329   
     92. A(C  23,C  26,H  27)          110.1433         0.326197   
     93. A(H  30,N  29,C  31)          118.0484         0.364583   
     94. A(C  26,N  29,C  31)          122.4251         0.406753   
     95. A(C  26,N  29,H  30)          118.5519         0.334093   
     96. A(N  32,C  31,N  33)          119.3461         0.440960   
     97. A(N  29,C  31,N  33)          120.6270         0.442810   
     98. A(N  29,C  31,N  32)          120.0163         0.444414   
     99. A(H  34,N  32,H  35)          117.4235         0.302315   
    100. A(C  31,N  32,H  35)          121.0193         0.363778   
    101. A(C  31,N  32,H  34)          121.3811         0.363471   
    102. A(H  36,N  33,H  37)          117.3332         0.302910   
    103. A(C  31,N  33,H  37)          121.3050         0.362679   
    104. A(C  31,N  33,H  36)          121.1994         0.362854   
    105. D(O  12,C   4,C   0,H   3)   -106.7842         0.010684   
    106. D(O  12,C   4,C   0,H   1)    132.8136         0.010684   
    107. D(N   5,C   4,C   0,H   1)    -47.0966         0.010684   
    108. D(O  12,C   4,C   0,H   2)     11.0918         0.010684   
    109. D(N   5,C   4,C   0,H   3)     73.3056         0.010684   
    110. D(N   5,C   4,C   0,H   2)   -168.8184         0.010684   
    111. D(C  21,N   5,C   4,C   0)   -179.7394         0.026377   
    112. D(C   6,N   5,C   4,O  12)   -168.5185         0.026377   
    113. D(C  21,N   5,C   4,O  12)      0.3503         0.026377   
    114. D(C   6,N   5,C   4,C   0)     11.3918         0.026377   
    115. D(C   9,C   6,N   5,C   4)    -56.5868         0.015394   
    116. D(H   7,C   6,N   5,C  21)   -105.1567         0.015394   
    117. D(H   8,C   6,N   5,C   4)   -179.2039         0.015394   
    118. D(H   8,C   6,N   5,C  21)     12.1449         0.015394   
    119. D(H   7,C   6,N   5,C   4)     63.4945         0.015394   
    120. D(C   9,C   6,N   5,C  21)    134.7620         0.015394   
    121. D(O  11,C   9,C   6,H   8)   -111.6225         0.010084   
    122. D(O  11,C   9,C   6,H   7)      2.6949         0.010084   
    123. D(O  11,C   9,C   6,N   5)    126.6898         0.010084   
    124. D(N  10,C   9,C   6,H   7)   -177.5178         0.010084   
    125. D(N  10,C   9,C   6,H   8)     68.1648         0.010084   
    126. D(N  10,C   9,C   6,N   5)    -53.5228         0.010084   
    127. D(C  17,N  10,C   9,C   6)    175.8927         0.031026   
    128. D(C  13,N  10,C   9,O  11)    174.5934         0.031026   
    129. D(C  13,N  10,C   9,C   6)     -5.1814         0.031026   
    130. D(C  17,N  10,C   9,O  11)     -4.3325         0.031026   
    131. D(H  15,C  13,N  10,C   9)   -143.1923         0.016797   
    132. D(H  14,C  13,N  10,C  17)    -83.9708         0.016797   
    133. D(H  15,C  13,N  10,C  17)     35.7587         0.016797   
    134. D(H  14,C  13,N  10,C   9)     97.0782         0.016797   
    135. D(H  16,C  13,N  10,C   9)    -25.2676         0.016797   
    136. D(H  16,C  13,N  10,C  17)    153.6834         0.016797   
    137. D(H  20,C  17,N  10,C  13)    174.7005         0.015984   
    138. D(H  20,C  17,N  10,C   9)     -6.2750         0.015984   
    139. D(H  19,C  17,N  10,C  13)     54.5527         0.015984   
    140. D(H  19,C  17,N  10,C   9)   -126.4228         0.015984   
    141. D(H  18,C  17,N  10,C  13)    -65.5775         0.015984   
    142. D(H  18,C  17,N  10,C   9)    113.4470         0.015984   
    143. D(H  38,C  21,N   5,C   6)    -37.1855         0.016012   
    144. D(H  38,C  21,N   5,C   4)    153.2592         0.016012   
    145. D(C  23,C  21,N   5,C   6)     83.6899         0.016012   
    146. D(C  23,C  21,N   5,C   4)    -85.8655         0.016012   
    147. D(H  22,C  21,N   5,C   6)   -153.7322         0.016012   
    148. D(H  22,C  21,N   5,C   4)     36.7125         0.016012   
    149. D(C  26,C  23,C  21,H  38)   -172.4772         0.010846   
    150. D(C  26,C  23,C  21,H  22)    -54.6273         0.010846   
    151. D(C  26,C  23,C  21,N   5)     66.8515         0.010846   
    152. D(H  25,C  23,C  21,H  38)     65.1897         0.010846   
    153. D(H  25,C  23,C  21,H  22)   -176.9604         0.010846   
    154. D(H  25,C  23,C  21,N   5)    -55.4815         0.010846   
    155. D(H  24,C  23,C  21,H  38)    -51.9035         0.010846   
    156. D(H  24,C  23,C  21,H  22)     65.9464         0.010846   
    157. D(H  24,C  23,C  21,N   5)   -172.5747         0.010846   
    158. D(N  29,C  26,C  23,H  25)    -61.2173         0.011913   
    159. D(N  29,C  26,C  23,H  24)     56.9519         0.011913   
    160. D(N  29,C  26,C  23,C  21)    176.4652         0.011913   
    161. D(H  28,C  26,C  23,H  25)    176.9896         0.011913   
    162. D(H  28,C  26,C  23,H  24)    -64.8412         0.011913   
    163. D(H  28,C  26,C  23,C  21)     54.6721         0.011913   
    164. D(H  27,C  26,C  23,H  25)     57.9247         0.011913   
    165. D(H  27,C  26,C  23,H  24)    176.0940         0.011913   
    166. D(H  27,C  26,C  23,C  21)    -64.3927         0.011913   
    167. D(H  30,N  29,C  26,C  23)    -20.4254         0.014594   
    168. D(C  31,N  29,C  26,H  28)    -67.1766         0.014594   
    169. D(C  31,N  29,C  26,H  27)     50.5205         0.014594   
    170. D(C  31,N  29,C  26,C  23)    171.0973         0.014594   
    171. D(H  30,N  29,C  26,H  28)    101.3007         0.014594   
    172. D(H  30,N  29,C  26,H  27)   -141.0022         0.014594   
    173. D(N  33,C  31,N  29,H  30)     16.5425         0.039842   
    174. D(N  33,C  31,N  29,C  26)   -174.9251         0.039842   
    175. D(N  32,C  31,N  29,H  30)   -164.6468         0.039842   
    176. D(N  32,C  31,N  29,C  26)      3.8856         0.039842   
    177. D(H  35,N  32,C  31,N  33)     13.3819         0.037867   
    178. D(H  35,N  32,C  31,N  29)   -165.4440         0.037867   
    179. D(H  34,N  32,C  31,N  33)   -171.5648         0.037867   
    180. D(H  34,N  32,C  31,N  29)      9.6093         0.037867   
    181. D(H  37,N  33,C  31,N  32)     16.3438         0.036248   
    182. D(H  37,N  33,C  31,N  29)   -164.8376         0.036248   
    183. D(H  36,N  33,C  31,N  32)   -168.4112         0.036248   
    184. D(H  36,N  33,C  31,N  29)     10.4074         0.036248   
    -----------------------------------------------------------------

Number of atoms                         .... 39
Number of degrees of freedom            .... 184

         *************************************************************
         *                GEOMETRY OPTIMIZATION CYCLE   1            *
         *************************************************************
---------------------------------
CARTESIAN COORDINATES (ANGSTROEM)
---------------------------------
  C      1.894000    2.080000    0.542000
  H      1.869000    1.745000    1.581000
  H      1.542000    3.109000    0.470000
  H      2.937000    2.042000    0.215000
  C      1.018000    1.250000   -0.393000
  N      1.125000   -0.125000   -0.288000
  C      1.823000   -0.819000    0.797000
  H      1.352000   -0.637000    1.769000
  H      1.749000   -1.894000    0.599000
  C      3.297000   -0.446000    1.008000
  N      4.137000   -0.523000   -0.062000
  O      3.656000   -0.097000    2.138000
  O      0.259000    1.773000   -1.193000
  C      3.780000   -1.033000   -1.375000
  H      3.518000   -0.228000   -2.071000
  H      4.640000   -1.576000   -1.777000
  H      2.949000   -1.734000   -1.311000
  C      5.520000   -0.085000    0.101000
  H      6.201000   -0.936000    0.009000
  H      5.766000    0.654000   -0.668000
  H      5.626000    0.357000    1.090000
  C      0.288000   -0.910000   -1.190000
  H      0.241000   -0.385000   -2.148000
  C     -1.130000   -1.170000   -0.666000
  H     -1.620000   -1.873000   -1.353000
  H     -1.083000   -1.648000    0.320000
  C     -1.940000    0.114000   -0.583000
  H     -1.498000    0.790000    0.149000
  H     -1.941000    0.617000   -1.555000
  N     -3.322000   -0.165000   -0.159000
  H     -3.684000   -1.106000   -0.274000
  C     -4.181000    0.802000    0.156000
  N     -3.825000    2.084000    0.019000
  N     -5.400000    0.505000    0.635000
  H     -2.968000    2.346000   -0.454000
  H     -4.365000    2.824000    0.449000
  H     -5.638000   -0.437000    0.913000
  H     -6.136000    1.198000    0.665000
  H      0.778000   -1.873000   -1.357000

----------------------------
CARTESIAN COORDINATES (A.U.)
----------------------------
  NO LB      ZA    FRAG     MASS         X           Y           Z
   0 C     6.0000    0    12.011    3.579141    3.930630    1.024232
   1 H     1.0000    0     1.008    3.531898    3.297572    2.987657
   2 H     1.0000    0     1.008    2.913958    5.875159    0.888171
   3 H     1.0000    0     1.008    5.550126    3.858821    0.406291
   4 C     6.0000    0    12.011    1.923741    2.362158   -0.742662
   5 N     7.0000    0    14.007    2.125942   -0.236216   -0.544241
   6 C     6.0000    0    12.011    3.444971   -1.547686    1.506112
   7 H     1.0000    0     1.008    2.554910   -1.203756    3.342926
   8 H     1.0000    0     1.008    3.305131   -3.579141    1.131946
   9 C     6.0000    0    12.011    6.230427   -0.842818    1.904844
  10 N     7.0000    0    14.007    7.817797   -0.988327   -0.117163
  11 O     8.0000    0    15.999    6.908839   -0.183303    4.040234
  12 O     8.0000    0    15.999    0.489439    3.350484   -2.254443
  13 C     6.0000    0    12.011    7.143165   -1.952087   -2.598373
  14 H     1.0000    0     1.008    6.648057   -0.430858   -3.913623
  15 H     1.0000    0     1.008    8.768329   -2.978208   -3.358043
  16 H     1.0000    0     1.008    5.572802   -3.276785   -2.477431
  17 C     6.0000    0    12.011   10.431288   -0.160627    0.190862
  18 H     1.0000    0     1.008   11.718192   -1.768784    0.017008
  19 H     1.0000    0     1.008   10.896161    1.235881   -1.262337
  20 H     1.0000    0     1.008   10.631599    0.674632    2.059801
  21 C     6.0000    0    12.011    0.544241   -1.719651   -2.248774
  22 H     1.0000    0     1.008    0.455424   -0.727545   -4.059132
  23 C     6.0000    0    12.011   -2.135391   -2.210980   -1.258558
  24 H     1.0000    0     1.008   -3.061356   -3.539457   -2.556799
  25 H     1.0000    0     1.008   -2.046573   -3.114269    0.604712
  26 C     6.0000    0    12.011   -3.666069    0.215429   -1.101710
  27 H     1.0000    0     1.008   -2.830810    1.492884    0.281569
  28 H     1.0000    0     1.008   -3.667958    1.165961   -2.938524
  29 N     7.0000    0    14.007   -6.277670   -0.311805   -0.300466
  30 H     1.0000    0     1.008   -6.961751   -2.090037   -0.517785
  31 C     6.0000    0    12.011   -7.900945    1.515560    0.294797
  32 N     7.0000    0    14.007   -7.228202    3.938189    0.035905
  33 N     7.0000    0    14.007  -10.204521    0.954312    1.199976
  34 H     1.0000    0     1.008   -5.608707    4.433298   -0.857936
  35 H     1.0000    0     1.008   -8.248655    5.336587    0.848487
  36 H     1.0000    0     1.008  -10.654276   -0.825810    1.725320
  37 H     1.0000    0     1.008  -11.595360    2.263892    1.256668
  38 H     1.0000    0     1.008    1.470207   -3.539457   -2.564358

--------------------------------
INTERNAL COORDINATES (ANGSTROEM)
--------------------------------
 C      0   0   0     0.000000000000     0.00000000     0.00000000
 H      1   0   0     1.091957416752     0.00000000     0.00000000
 H      1   2   0     1.089921556810   110.18805158     0.00000000
 H      1   2   3     1.093719342427   107.19675427   118.15450329
 C      1   2   3     1.526597851433   113.75542193   240.22940067
 N      5   1   2     1.383148220546   116.71825440   312.90340151
 C      6   5   1     1.464945391474   124.33505451    11.39177437
 H      7   6   5     1.095330543717   111.94072292    63.49448726
 H      7   6   5     1.095584318982   107.38564007   180.79609710
 C      7   6   5     1.535032898670   116.37316090   303.41319699
 N     10   7   6     1.362508348598   118.05497749   306.47715234
 O     10   7   6     1.235953882635   118.24234789   126.68982536
 O      5   1   2     1.220495800894   121.69031143   132.81359183
 C     11  10   7     1.453106327837   125.30770598   354.81863341
 H     14  11  10     1.095940235597   112.01025900    97.07820790
 H     14  11  10     1.093642080390   108.25238780   216.80774312
 H     14  11  10     1.089062899928   111.11712825   334.73240785
 C     11  10   7     1.459829442092   118.64763753   175.89269008
 H     18  11  10     1.093812598209   110.30417586   113.44701741
 H     18  11  10     1.094530949768   109.69743241   233.57723534
 H     18  11  10     1.088448896366   108.39432048   353.72497202
 C      6   5   1     1.459588298117   116.31969076   180.26057648
 H     22   6   5     1.093434040077   107.93018565    36.71248520
 C     22   6   5     1.533916555749   114.21534211   274.13454726
 H     24  22   6     1.098306878791   107.89302716   187.42528797
 H     24  22   6     1.096762964364   109.96024121   304.51848947
 C     24  22   6     1.520409484317   111.59204187    66.85154482
 H     27  24  22     1.090029357403   110.14329538   295.60728998
 H     27  24  22     1.094437755197   109.88522943    54.67211676
 N     27  24  22     1.472257110698   110.84087475   176.46521514
 H     30  27  24     1.014765982875   118.55192194   339.57459310
 C     30  27  24     1.331238145487   122.42509736   171.09732458
 N     32  30  27     1.337545887063   120.01631080     3.88560761
 N     32  30  27     1.342985852494   120.62701416   185.07494830
 H     33  32  30     1.013322258711   121.38112095     9.60927798
 H     33  32  30     1.011978260636   121.01932415   194.55603950
 H     34  32  30     1.010589926726   121.19938860    10.40737588
 H     34  32  30     1.011357997941   121.30501752   195.16237409
 H     22   6   5     1.093324288580   108.12570719   153.25919147

---------------------------
INTERNAL COORDINATES (A.U.)
---------------------------
 C      0   0   0     0.000000000000     0.00000000     0.00000000
 H      1   0   0     2.063500467566     0.00000000     0.00000000
 H      1   2   0     2.059653249829   110.18805158     0.00000000
 H      1   2   3     2.066830024560   107.19675427   118.15450329
 C      1   2   3     2.884851855841   113.75542193   240.22940067
 N      5   1   2     2.613771339453   116.71825440   312.90340151
 C      6   5   1     2.768345591035   124.33505451    11.39177437
 H      7   6   5     2.069874753745   111.94072292    63.49448726
 H      7   6   5     2.070354319495   107.38564007   180.79609710
 C      7   6   5     2.900791785046   116.37316090   303.41319699
 N     10   7   6     2.574767634032   118.05497749   306.47715234
 O     10   7   6     2.335614352336   118.24234789   126.68982536
 O      5   1   2     2.306402811291   121.69031143   132.81359183
 C     11  10   7     2.745973003080   125.30770598   354.81863341
 H     14  11  10     2.071026904423   112.01025900    97.07820790
 H     14  11  10     2.066684020469   108.25238780   216.80774312
 H     14  11  10     2.058030623478   111.11712825   334.73240785
 C     11  10   7     2.758677847790   118.64763753   175.89269008
 H     18  11  10     2.067006252447   110.30417586   113.44701741
 H     18  11  10     2.068363740162   109.69743241   233.57723534
 H     18  11  10     2.056870324900   108.39432048   353.72497202
 C      6   5   1     2.758222151717   116.31969076   180.26057648
 H     22   6   5     2.066290881253   107.93018565    36.71248520
 C     22   6   5     2.898682202653   114.21534211   274.13454726
 H     24  22   6     2.075499211917   107.89302716   187.42528797
 H     24  22   6     2.072581636475   109.96024121   304.51848947
 C     24  22   6     2.873157536775   111.59204187    66.85154482
 H     27  24  22     2.059856963425   110.14329538   295.60728998
 H     27  24  22     2.068187627945   109.88522943    54.67211676
 N     27  24  22     2.782162737937   110.84087475   176.46521514
 H     30  27  24     1.917629797653   118.55192194   339.57459310
 C     30  27  24     2.515675514000   122.42509736   171.09732458
 N     32  30  27     2.527595418102   120.01631080     3.88560761
 N     32  30  27     2.537875462945   120.62701416   185.07494830
 H     33  32  30     1.914901554371   121.38112095     9.60927798
 H     33  32  30     1.912361766084   121.01932415   194.55603950
 H     34  32  30     1.909738195212   121.19938860    10.40737588
 H     34  32  30     1.911189639460   121.30501752   195.16237409
 H     22   6   5     2.066083480981   108.12570719   153.25919147

---------------------
BASIS SET INFORMATION
---------------------
There are 4 groups of distinct atoms

 Group   1 Type C   : 11s5p1d contracted to 4s3p1d pattern {6311/311/1}
 Group   2 Type H   : 4s contracted to 2s pattern {31}
 Group   3 Type N   : 11s5p1d contracted to 4s3p1d pattern {6311/311/1}
 Group   4 Type O   : 11s5p1d contracted to 4s3p1d pattern {6311/311/1}

Atom   0C    basis set group =>   1
Atom   1H    basis set group =>   2
Atom   2H    basis set group =>   2
Atom   3H    basis set group =>   2
Atom   4C    basis set group =>   1
Atom   5N    basis set group =>   3
Atom   6C    basis set group =>   1
Atom   7H    basis set group =>   2
Atom   8H    basis set group =>   2
Atom   9C    basis set group =>   1
Atom  10N    basis set group =>   3
Atom  11O    basis set group =>   4
Atom  12O    basis set group =>   4
Atom  13C    basis set group =>   1
Atom  14H    basis set group =>   2
Atom  15H    basis set group =>   2
Atom  16H    basis set group =>   2
Atom  17C    basis set group =>   1
Atom  18H    basis set group =>   2
Atom  19H    basis set group =>   2
Atom  20H    basis set group =>   2
Atom  21C    basis set group =>   1
Atom  22H    basis set group =>   2
Atom  23C    basis set group =>   1
Atom  24H    basis set group =>   2
Atom  25H    basis set group =>   2
Atom  26C    basis set group =>   1
Atom  27H    basis set group =>   2
Atom  28H    basis set group =>   2
Atom  29N    basis set group =>   3
Atom  30H    basis set group =>   2
Atom  31C    basis set group =>   1
Atom  32N    basis set group =>   3
Atom  33N    basis set group =>   3
Atom  34H    basis set group =>   2
Atom  35H    basis set group =>   2
Atom  36H    basis set group =>   2
Atom  37H    basis set group =>   2
Atom  38H    basis set group =>   2
---------------------------------
AUXILIARY/J BASIS SET INFORMATION
---------------------------------
There are 4 groups of distinct atoms

 Group   1 Type C   : 16s13p12d2f contracted to 16s13p12d2f pattern {1111111111111111/1111111111111/111111111111/11}
 Group   2 Type H   : 9s2p contracted to 9s2p pattern {111111111/11}
 Group   3 Type N   : 16s13p12d3f contracted to 16s13p12d3f pattern {1111111111111111/1111111111111/111111111111/111}
 Group   4 Type O   : 16s13p12d3f contracted to 16s13p12d3f pattern {1111111111111111/1111111111111/111111111111/111}

Atom   0C    basis set group =>   1
Atom   1H    basis set group =>   2
Atom   2H    basis set group =>   2
Atom   3H    basis set group =>   2
Atom   4C    basis set group =>   1
Atom   5N    basis set group =>   3
Atom   6C    basis set group =>   1
Atom   7H    basis set group =>   2
Atom   8H    basis set group =>   2
Atom   9C    basis set group =>   1
Atom  10N    basis set group =>   3
Atom  11O    basis set group =>   4
Atom  12O    basis set group =>   4
Atom  13C    basis set group =>   1
Atom  14H    basis set group =>   2
Atom  15H    basis set group =>   2
Atom  16H    basis set group =>   2
Atom  17C    basis set group =>   1
Atom  18H    basis set group =>   2
Atom  19H    basis set group =>   2
Atom  20H    basis set group =>   2
Atom  21C    basis set group =>   1
Atom  22H    basis set group =>   2
Atom  23C    basis set group =>   1
Atom  24H    basis set group =>   2
Atom  25H    basis set group =>   2
Atom  26C    basis set group =>   1
Atom  27H    basis set group =>   2
Atom  28H    basis set group =>   2
Atom  29N    basis set group =>   3
Atom  30H    basis set group =>   2
Atom  31C    basis set group =>   1
Atom  32N    basis set group =>   3
Atom  33N    basis set group =>   3
Atom  34H    basis set group =>   2
Atom  35H    basis set group =>   2
Atom  36H    basis set group =>   2
Atom  37H    basis set group =>   2
Atom  38H    basis set group =>   2
---------------------------------
AUXILIARY/C BASIS SET INFORMATION
---------------------------------
There are 4 groups of distinct atoms

 Group   1 Type C   : 16s13p12d2f contracted to 16s13p12d2f pattern {1111111111111111/1111111111111/111111111111/11}
 Group   2 Type H   : 9s2p contracted to 9s2p pattern {111111111/11}
 Group   3 Type N   : 16s13p12d3f contracted to 16s13p12d3f pattern {1111111111111111/1111111111111/111111111111/111}
 Group   4 Type O   : 16s13p12d3f contracted to 16s13p12d3f pattern {1111111111111111/1111111111111/111111111111/111}

Atom   0C    basis set group =>   1
Atom   1H    basis set group =>   2
Atom   2H    basis set group =>   2
Atom   3H    basis set group =>   2
Atom   4C    basis set group =>   1
Atom   5N    basis set group =>   3
Atom   6C    basis set group =>   1
Atom   7H    basis set group =>   2
Atom   8H    basis set group =>   2
Atom   9C    basis set group =>   1
Atom  10N    basis set group =>   3
Atom  11O    basis set group =>   4
Atom  12O    basis set group =>   4
Atom  13C    basis set group =>   1
Atom  14H    basis set group =>   2
Atom  15H    basis set group =>   2
Atom  16H    basis set group =>   2
Atom  17C    basis set group =>   1
Atom  18H    basis set group =>   2
Atom  19H    basis set group =>   2
Atom  20H    basis set group =>   2
Atom  21C    basis set group =>   1
Atom  22H    basis set group =>   2
Atom  23C    basis set group =>   1
Atom  24H    basis set group =>   2
Atom  25H    basis set group =>   2
Atom  26C    basis set group =>   1
Atom  27H    basis set group =>   2
Atom  28H    basis set group =>   2
Atom  29N    basis set group =>   3
Atom  30H    basis set group =>   2
Atom  31C    basis set group =>   1
Atom  32N    basis set group =>   3
Atom  33N    basis set group =>   3
Atom  34H    basis set group =>   2
Atom  35H    basis set group =>   2
Atom  36H    basis set group =>   2
Atom  37H    basis set group =>   2
Atom  38H    basis set group =>   2
----------------------------------
AUXILIARY/JK BASIS SET INFORMATION
----------------------------------
There are 4 groups of distinct atoms

 Group   1 Type C   : 16s13p12d2f contracted to 16s13p12d2f pattern {1111111111111111/1111111111111/111111111111/11}
 Group   2 Type H   : 9s2p contracted to 9s2p pattern {111111111/11}
 Group   3 Type N   : 16s13p12d3f contracted to 16s13p12d3f pattern {1111111111111111/1111111111111/111111111111/111}
 Group   4 Type O   : 16s13p12d3f contracted to 16s13p12d3f pattern {1111111111111111/1111111111111/111111111111/111}

Atom   0C    basis set group =>   1
Atom   1H    basis set group =>   2
Atom   2H    basis set group =>   2
Atom   3H    basis set group =>   2
Atom   4C    basis set group =>   1
Atom   5N    basis set group =>   3
Atom   6C    basis set group =>   1
Atom   7H    basis set group =>   2
Atom   8H    basis set group =>   2
Atom   9C    basis set group =>   1
Atom  10N    basis set group =>   3
Atom  11O    basis set group =>   4
Atom  12O    basis set group =>   4
Atom  13C    basis set group =>   1
Atom  14H    basis set group =>   2
Atom  15H    basis set group =>   2
Atom  16H    basis set group =>   2
Atom  17C    basis set group =>   1
Atom  18H    basis set group =>   2
Atom  19H    basis set group =>   2
Atom  20H    basis set group =>   2
Atom  21C    basis set group =>   1
Atom  22H    basis set group =>   2
Atom  23C    basis set group =>   1
Atom  24H    basis set group =>   2
Atom  25H    basis set group =>   2
Atom  26C    basis set group =>   1
Atom  27H    basis set group =>   2
Atom  28H    basis set group =>   2
Atom  29N    basis set group =>   3
Atom  30H    basis set group =>   2
Atom  31C    basis set group =>   1
Atom  32N    basis set group =>   3
Atom  33N    basis set group =>   3
Atom  34H    basis set group =>   2
Atom  35H    basis set group =>   2
Atom  36H    basis set group =>   2
Atom  37H    basis set group =>   2
Atom  38H    basis set group =>   2


           ************************************************************
           *        Program running with 4 parallel MPI-processes     *
           *              working on a common directory               *
           ************************************************************
------------------------------------------------------------------------------
                           ORCA GTO INTEGRAL CALCULATION
                           -- RI-GTO INTEGRALS CHOSEN --
------------------------------------------------------------------------------
------------------------------------------------------------------------------
                   ___                                                        
                  /   \      - P O W E R E D   B Y -                         
                 /     \                                                     
                 |  |  |   _    _      __       _____    __    __             
                 |  |  |  | |  | |    /  \     |  _  \  |  |  /  |          
                  \  \/   | |  | |   /    \    | | | |  |  | /  /          
                 / \  \   | |__| |  /  /\  \   | |_| |  |  |/  /          
                |  |  |   |  __  | /  /__\  \  |    /   |      \           
                |  |  |   | |  | | |   __   |  |    \   |  |\   \          
                \     /   | |  | | |  |  |  |  | |\  \  |  | \   \       
                 \___/    |_|  |_| |__|  |__|  |_| \__\ |__|  \__/        
                                                                              
                      - O R C A' S   B I G   F R I E N D -                    
                                      &                                       
                       - I N T E G R A L  F E E D E R -                       
                                                                              
 v1 FN, 2020, v2 2021                                                         
------------------------------------------------------------------------------


Reading SHARK input file Nr_gas.SHARKINP.tmp ... ok
----------------------
SHARK INTEGRAL PACKAGE
----------------------

Number of atoms                             ...     39
Number of basis functions                   ...    350
Number of shells                            ...    180
Maximum angular momentum                    ...      2
Integral batch strategy                     ... SHARK/LIBINT Hybrid
RI-J (if used) integral strategy            ... SPLIT-RIJ (Revised 2003 algorithm where possible)
Printlevel                                  ...      1
Contraction scheme used                     ... SEGMENTED contraction
Coulomb Range Separation                    ... NOT USED
Exchange Range Separation                   ... NOT USED
Finite Nucleus Model                        ... NOT USED
Auxiliary Coulomb fitting basis             ... AVAILABLE
   # of basis functions in Aux-J            ...   2572
   # of shells in Aux-J                     ...    980
   Maximum angular momentum in Aux-J        ...      3
Auxiliary J/K fitting basis                 ... AVAILABLE
   # of basis functions in Aux-JK           ...   2572
   # of shells in Aux-JK                    ...    980
   Maximum angular momentum in Aux-JK       ...      3
Auxiliary Correlation fitting basis         ... AVAILABLE
   # of basis functions in Aux-C            ...   2572
   # of shells in Aux-C                     ...    980
   Maximum angular momentum in Aux-C        ...      3
Auxiliary 'external' fitting basis          ... NOT available
Integral threshold                          ...     2.500000e-11
Primitive cut-off                           ...     2.500000e-12
Primitive pair pre-selection threshold      ...     2.500000e-12

Calculating pre-screening integrals         ... done (  0.0 sec) Dimension = 180
Organizing shell pair data                  ... done (  0.8 sec)
Shell pair information
Total number of shell pairs                 ...     16290
Shell pairs after pre-screening             ...     13557
Total number of primitive shell pairs       ...     71676
Primitive shell pairs kept                  ...     37696
          la=0 lb=0:   5046 shell pairs
          la=1 lb=0:   5043 shell pairs
          la=1 lb=1:   1242 shell pairs
          la=2 lb=0:   1392 shell pairs
          la=2 lb=1:    731 shell pairs
          la=2 lb=2:    103 shell pairs

Calculating one electron integrals          ... done (  0.0 sec)
Calculating RI/J V-Matrix + Cholesky decomp.... done (  6.9 sec)
Calculating RI/JK V-Matrix + Cholesky decomp... done (  2.8 sec)
Calculating RI/C V-Matrix + Cholesky decomp.... done (  2.7 sec)
Calculating Nuclear repulsion               ... done (  0.0 sec) ENN=   1308.912334848613 Eh

SHARK setup successfully completed in  14.0 seconds

Maximum memory used throughout the entire GTOINT-calculation: 57.1 MB


           ************************************************************
           *        Program running with 4 parallel MPI-processes     *
           *              working on a common directory               *
           ************************************************************
-------------------------------------------------------------------------------
                                 ORCA SCF
-------------------------------------------------------------------------------

------------
SCF SETTINGS
------------
Hamiltonian:
 Density Functional     Method          .... DFT(GTOs)
 Exchange Functional    Exchange        .... B88
   X-Alpha parameter    XAlpha          ....  0.666667
   Becke's b parameter  XBeta           ....  0.004200
 Correlation Functional Correlation     .... LYP
 LDA part of GGA corr.  LDAOpt          .... VWN-5
 Gradients option       PostSCFGGA      .... off
 Hybrid DFT is turned on
   Fraction HF Exchange ScalHFX         ....  0.200000
   Scaling of DF-GGA-X  ScalDFX         ....  0.720000
   Scaling of DF-GGA-C  ScalDFC         ....  0.810000
   Scaling of DF-LDA-C  ScalLDAC        ....  1.000000
   Perturbative correction              ....  0.000000
   Density functional embedding theory  .... OFF
   NL short-range parameter             ....  4.800000
 RI-approximation to the Coulomb term is turned on
   Number of AuxJ basis functions       .... 2572
   RIJ-COSX (HFX calculated with COS-X)).... on


General Settings:
 Integral files         IntName         .... Nr_gas
 Hartree-Fock type      HFTyp           .... RHF
 Total Charge           Charge          ....    1
 Multiplicity           Mult            ....    1
 Number of Electrons    NEL             ....  132
 Basis Dimension        Dim             ....  350
 Nuclear Repulsion      ENuc            ....   1308.9123348486 Eh

Convergence Acceleration:
 DIIS                   CNVDIIS         .... on
   Start iteration      DIISMaxIt       ....    12
   Startup error        DIISStart       ....  0.200000
   # of expansion vecs  DIISMaxEq       ....     5
   Bias factor          DIISBfac        ....   1.050
   Max. coefficient     DIISMaxC        ....  10.000
 Trust-Rad. Augm. Hess. CNVTRAH         .... auto
   Auto Start mean grad. ratio tolernc. ....  1.125000
   Auto Start start iteration           ....    20
   Auto Start num. interpolation iter.  ....    10
   Max. Number of Micro iterations      ....    16
   Max. Number of Macro iterations      .... Maxiter - #DIIS iter
   Number of Davidson start vectors     ....     2
   Converg. threshold I  (grad. norm)   ....   1.000e-05
   Converg. threshold II (energy diff.) ....   1.000e-08
   Grad. Scal. Fac. for Micro threshold ....   0.100
   Minimum threshold for Micro iter.    ....   0.010
   NR start threshold (gradient norm)   ....   0.001
   Initial trust radius                 ....   0.400
   Minimum AH scaling param. (alpha)    ....   1.000
   Maximum AH scaling param. (alpha)    .... 1000.000
   Orbital update algorithm             .... Taylor
   White noise on init. David. guess    .... on
   Maximum white noise                  ....   0.010
   Quad. conv. algorithm                .... NR
 SOSCF                  CNVSOSCF        .... on
   Start iteration      SOSCFMaxIt      ....   150
   Startup grad/error   SOSCFStart      ....  0.003300
 Level Shifting         CNVShift        .... on
   Level shift para.    LevelShift      ....    0.2500
   Turn off err/grad.   ShiftErr        ....    0.0010
 Zerner damping         CNVZerner       .... off
 Static damping         CNVDamp         .... on
   Fraction old density DampFac         ....    0.7000
   Max. Damping (<1)    DampMax         ....    0.9800
   Min. Damping (>=0)   DampMin         ....    0.0000
   Turn off err/grad.   DampErr         ....    0.1000
 Fernandez-Rico         CNVRico         .... off

SCF Procedure:
 Maximum # iterations   MaxIter         ....   125
 SCF integral mode      SCFMode         .... Direct
   Integral package                     .... SHARK and LIBINT hybrid scheme
 Reset frequency        DirectResetFreq ....    20
 Integral Threshold     Thresh          ....  2.500e-11 Eh
 Primitive CutOff       TCut            ....  2.500e-12 Eh

Convergence Tolerance:
 Convergence Check Mode ConvCheckMode   .... Total+1el-Energy
 Convergence forced     ConvForced      .... 0
 Energy Change          TolE            ....  1.000e-08 Eh
 1-El. energy change                    ....  1.000e-05 Eh
 Orbital Gradient       TolG            ....  1.000e-05
 Orbital Rotation angle TolX            ....  1.000e-05
 DIIS Error             TolErr          ....  5.000e-07


Diagonalization of the overlap matrix:
Smallest eigenvalue                        ... 1.116e-05
Time for diagonalization                   ...    0.016 sec
Threshold for overlap eigenvalues          ... 1.000e-08
Number of eigenvalues below threshold      ... 0
Time for construction of square roots      ...    0.008 sec
Total time needed                          ...    0.026 sec

Time for model grid setup =    0.554 sec

------------------------------
INITIAL GUESS: MODEL POTENTIAL
------------------------------
Loading Hartree-Fock densities                     ... done
Calculating cut-offs                               ... done
Initializing the effective Hamiltonian             ... done
Setting up the integral package (SHARK)            ... done
Starting the Coulomb interaction                   ... done (   0.3 sec)
Reading the grid                                   ... done
Mapping shells                                     ... done
Starting the XC term evaluation                    ... done (   0.3 sec)
  promolecular density results
     # of electrons  =    132.989045269
     EX              =   -107.339759107
     EC              =     -4.498259178
     EX+EC           =   -111.838018286
Transforming the Hamiltonian                       ... done (   0.0 sec)
Diagonalizing the Hamiltonian                      ... done (   0.0 sec)
Back transforming the eigenvectors                 ... done (   0.0 sec)
Now organizing SCF variables                       ... done
                      ------------------
                      INITIAL GUESS DONE (   1.5 sec)
                      ------------------
-------------------
DFT GRID GENERATION
-------------------

General Integration Accuracy     IntAcc      ... 4.388
Radial Grid Type                 RadialGrid  ... OptM3 with GC (2021)
Angular Grid (max. ang.)         AngularGrid ... 4 (Lebedev-302)
Angular grid pruning method      GridPruning ... 4 (adaptive)
Weight generation scheme         WeightScheme... Becke
Basis function cutoff            BFCut       ... 1.0000e-11
Integration weight cutoff        WCut        ... 1.0000e-14
Angular grids for H and He will be reduced by one unit
Partially contracted basis set               ... off
Rotationally invariant grid construction     ... off

Total number of grid points                  ...   175656
Total number of batches                      ...     2762
Average number of points per batch           ...       63
Average number of grid points per atom       ...     4504
Time for grid setup =    1.442 sec

--------------------
COSX GRID GENERATION
--------------------

GRIDX 1
-------
General Integration Accuracy     IntAcc      ... 3.816
Radial Grid Type                 RadialGrid  ... OptM3 with GC (2021)
Angular Grid (max. ang.)         AngularGrid ... 1 (Lebedev-50)
Angular grid pruning method      GridPruning ... 4 (adaptive)
Weight generation scheme         WeightScheme... Becke
Basis function cutoff            BFCut       ... 1.0000e-11
Integration weight cutoff        WCut        ... 1.0000e-14
Angular grids for H and He will be reduced by one unit
Partially contracted basis set               ... on
Rotationally invariant grid construction     ... off

Total number of grid points                  ...    22406
Total number of batches                      ...      368
Average number of points per batch           ...       60
Average number of grid points per atom       ...      575
UseSFitting                                  ... on

GRIDX 2
-------
General Integration Accuracy     IntAcc      ... 4.020
Radial Grid Type                 RadialGrid  ... OptM3 with GC (2021)
Angular Grid (max. ang.)         AngularGrid ... 2 (Lebedev-110)
Angular grid pruning method      GridPruning ... 4 (adaptive)
Weight generation scheme         WeightScheme... Becke
Basis function cutoff            BFCut       ... 1.0000e-11
Integration weight cutoff        WCut        ... 1.0000e-14
Angular grids for H and He will be reduced by one unit
Partially contracted basis set               ... on
Rotationally invariant grid construction     ... off

Total number of grid points                  ...    50399
Total number of batches                      ...      806
Average number of points per batch           ...       62
Average number of grid points per atom       ...     1292
UseSFitting                                  ... on

GRIDX 3
-------
General Integration Accuracy     IntAcc      ... 4.338
Radial Grid Type                 RadialGrid  ... OptM3 with GC (2021)
Angular Grid (max. ang.)         AngularGrid ... 3 (Lebedev-194)
Angular grid pruning method      GridPruning ... 4 (adaptive)
Weight generation scheme         WeightScheme... Becke
Basis function cutoff            BFCut       ... 1.0000e-11
Integration weight cutoff        WCut        ... 1.0000e-14
Angular grids for H and He will be reduced by one unit
Partially contracted basis set               ... on
Rotationally invariant grid construction     ... off

Total number of grid points                  ...   108460
Total number of batches                      ...     1714
Average number of points per batch           ...       63
Average number of grid points per atom       ...     2781
UseSFitting                                  ... on

Time for X-Grid setup             =    3.237 sec

--------------
SCF ITERATIONS
--------------
ITER       Energy         Delta-E        Max-DP      RMS-DP      [F,P]     Damp
               ***  Starting incremental Fock matrix formation  ***
  0   -817.3267071265   0.000000000000 0.25402138  0.00292999  0.2751516 0.7000
  1   -817.5805174700  -0.253810343585 0.16445747  0.00204257  0.1014053 0.7000
                               ***Turning on DIIS***
  2   -817.6733713465  -0.092853876497 0.29548950  0.00342342  0.0351047 0.0000
  3   -817.8254074293  -0.152036082778 0.14159441  0.00142212  0.0528440 0.0000
  4   -817.8575299649  -0.032122535537 0.04011122  0.00053887  0.0159764 0.0000
  5   -817.8597072258  -0.002177260913 0.06044454  0.00039378  0.0063570 0.0000
                      *** Initiating the SOSCF procedure ***
                           *** Shutting down DIIS ***
                      *** Re-Reading the Fockian *** 
                      *** Removing any level shift *** 
ITER      Energy       Delta-E        Grad      Rot      Max-DP    RMS-DP
  6   -817.85987274  -0.0001655127  0.000333  0.000333  0.025759  0.000170
               *** Restarting incremental Fock matrix formation ***
  7   -817.85988009  -0.0000073544  0.000141  0.000561  0.026486  0.000173
  8   -817.85987936   0.0000007285  0.000334  0.000525  0.004229  0.000033
  9   -817.85988269  -0.0000033261  0.000085  0.000184  0.002928  0.000023
 10   -817.85988232   0.0000003744  0.000127  0.000120  0.000288  0.000006
 11   -817.85988295  -0.0000006317  0.000011  0.000022  0.001256  0.000010
 12   -817.85988293   0.0000000185  0.000011  0.000011  0.000466  0.000004
                  ***Gradient check signals convergence***
              ***Rediagonalizing the Fockian in SOSCF/NRSCF***

               *****************************************************
               *                     SUCCESS                       *
               *           SCF CONVERGED AFTER  13 CYCLES          *
               *****************************************************

Old exchange energy                            =    -21.799838371 Eh
New exchange energy                            =    -21.799864496 Eh
Exchange energy change after final integration =     -0.000026126 Eh
Total energy after final integration           =   -817.859909059 Eh
Final COS-X integration done in                =    22.482 sec

----------------
TOTAL SCF ENERGY
----------------

Total Energy       :         -817.85990906 Eh          -22255.09955 eV

Components:
Nuclear Repulsion  :         1308.91233485 Eh           35617.31538 eV
Electronic Energy  :        -2126.77224391 Eh          -57872.41493 eV
One Electron Energy:        -3693.75264525 Eh         -100512.11941 eV
Two Electron Energy:         1566.98040134 Eh           42639.70448 eV
Max COSX asymmetry :            0.00000615 Eh               0.00017 eV

Virial components:
Potential Energy   :        -1630.86258147 Eh          -44378.02698 eV
Kinetic Energy     :          813.00267242 Eh           22122.92742 eV
Virial Ratio       :            2.00597444


DFT components:
N(Alpha)           :       66.000017436365 electrons
N(Beta)            :       66.000017436365 electrons
N(Total)           :      132.000034872729 electrons
E(X)               :      -86.594950152570 Eh       
E(C)               :       -5.261136292600 Eh       
E(XC)              :      -91.856086445170 Eh       
DFET-embed. en.    :        0.000000000000 Eh       

---------------
SCF CONVERGENCE
---------------

  Last Energy change         ...   -4.1101e-09  Tolerance :   1.0000e-08
  Last MAX-Density change    ...    3.1086e-15  Tolerance :   1.0000e-07
  Last RMS-Density change    ...    3.6815e-17  Tolerance :   5.0000e-09
  Last Orbital Gradient      ...    1.4111e-06  Tolerance :   1.0000e-05
  Last Orbital Rotation      ...    4.9602e-06  Tolerance :   1.0000e-05

             **** THE GBW FILE WAS UPDATED (Nr_gas.gbw) ****
             **** DENSITY Nr_gas.scfp WAS UPDATED ****
             **** ENERGY FILE WAS UPDATED (Nr_gas.en.tmp) ****
             **** THE GBW FILE WAS UPDATED (Nr_gas.gbw) ****
             **** DENSITY Nr_gas.scfp WAS UPDATED ****
----------------
ORBITAL ENERGIES
----------------

  NO   OCC          E(Eh)            E(eV) 
   0   2.0000     -19.224607      -523.1282 
   1   2.0000     -19.200217      -522.4645 
   2   2.0000     -14.543058      -395.7367 
   3   2.0000     -14.542016      -395.7084 
   4   2.0000     -14.541952      -395.7066 
   5   2.0000     -14.473402      -393.8413 
   6   2.0000     -14.455983      -393.3673 
   7   2.0000     -10.508055      -285.9387 
   8   2.0000     -10.392385      -282.7912 
   9   2.0000     -10.375479      -282.3311 
  10   2.0000     -10.365663      -282.0640 
  11   2.0000     -10.334214      -281.2083 
  12   2.0000     -10.329386      -281.0769 
  13   2.0000     -10.321753      -280.8692 
  14   2.0000     -10.306379      -280.4508 
  15   2.0000     -10.283648      -279.8323 
  16   2.0000     -10.268734      -279.4265 
  17   2.0000      -1.198999       -32.6264 
  18   2.0000      -1.152239       -31.3540 
  19   2.0000      -1.121900       -30.5285 
  20   2.0000      -1.089780       -29.6544 
  21   2.0000      -1.078954       -29.3598 
  22   2.0000      -1.048601       -28.5339 
  23   2.0000      -1.024760       -27.8851 
  24   2.0000      -0.931417       -25.3452 
  25   2.0000      -0.863140       -23.4872 
  26   2.0000      -0.844632       -22.9836 
  27   2.0000      -0.824703       -22.4413 
  28   2.0000      -0.812827       -22.1182 
  29   2.0000      -0.807186       -21.9646 
  30   2.0000      -0.777720       -21.1628 
  31   2.0000      -0.774348       -21.0711 
  32   2.0000      -0.748458       -20.3666 
  33   2.0000      -0.728741       -19.8300 
  34   2.0000      -0.682876       -18.5820 
  35   2.0000      -0.677852       -18.4453 
  36   2.0000      -0.670633       -18.2489 
  37   2.0000      -0.640690       -17.4341 
  38   2.0000      -0.632806       -17.2195 
  39   2.0000      -0.628892       -17.1130 
  40   2.0000      -0.602139       -16.3850 
  41   2.0000      -0.598426       -16.2840 
  42   2.0000      -0.583502       -15.8779 
  43   2.0000      -0.579729       -15.7752 
  44   2.0000      -0.562898       -15.3172 
  45   2.0000      -0.555062       -15.1040 
  46   2.0000      -0.549073       -14.9410 
  47   2.0000      -0.545086       -14.8325 
  48   2.0000      -0.524438       -14.2707 
  49   2.0000      -0.514068       -13.9885 
  50   2.0000      -0.510393       -13.8885 
  51   2.0000      -0.503886       -13.7114 
  52   2.0000      -0.495818       -13.4919 
  53   2.0000      -0.490949       -13.3594 
  54   2.0000      -0.487902       -13.2765 
  55   2.0000      -0.482937       -13.1414 
  56   2.0000      -0.476081       -12.9548 
  57   2.0000      -0.464951       -12.6520 
  58   2.0000      -0.460578       -12.5330 
  59   2.0000      -0.458449       -12.4750 
  60   2.0000      -0.447595       -12.1797 
  61   2.0000      -0.435799       -11.8587 
  62   2.0000      -0.367982       -10.0133 
  63   2.0000      -0.359368        -9.7789 
  64   2.0000      -0.338889        -9.2216 
  65   2.0000      -0.330817        -9.0020 
  66   0.0000      -0.156092        -4.2475 
  67   0.0000      -0.151326        -4.1178 
  68   0.0000      -0.120978        -3.2920 
  69   0.0000      -0.110086        -2.9956 
  70   0.0000      -0.098073        -2.6687 
  71   0.0000      -0.093816        -2.5529 
  72   0.0000      -0.087703        -2.3865 
  73   0.0000      -0.085319        -2.3217 
  74   0.0000      -0.080055        -2.1784 
  75   0.0000      -0.075413        -2.0521 
  76   0.0000      -0.062289        -1.6950 
  77   0.0000      -0.058962        -1.6044 
  78   0.0000      -0.054086        -1.4718 
  79   0.0000      -0.041547        -1.1306 
  80   0.0000      -0.039236        -1.0677 
  81   0.0000      -0.036787        -1.0010 
  82   0.0000      -0.034087        -0.9276 
  83   0.0000      -0.030541        -0.8311 
  84   0.0000      -0.024091        -0.6555 
  85   0.0000      -0.018939        -0.5154 
  86   0.0000      -0.015540        -0.4229 
  87   0.0000      -0.010051        -0.2735 
  88   0.0000      -0.007973        -0.2169 
  89   0.0000      -0.004455        -0.1212 
  90   0.0000      -0.002224        -0.0605 
  91   0.0000       0.001650         0.0449 
  92   0.0000       0.005864         0.1596 
  93   0.0000       0.013315         0.3623 
  94   0.0000       0.018080         0.4920 
  95   0.0000       0.020407         0.5553 
  96   0.0000       0.023326         0.6347 
  97   0.0000       0.026309         0.7159 
  98   0.0000       0.032290         0.8787 
  99   0.0000       0.034867         0.9488 
 100   0.0000       0.041797         1.1373 
 101   0.0000       0.045171         1.2292 
 102   0.0000       0.048361         1.3160 
 103   0.0000       0.048607         1.3227 
 104   0.0000       0.049683         1.3519 
 105   0.0000       0.056999         1.5510 
 106   0.0000       0.058235         1.5847 
 107   0.0000       0.061996         1.6870 
 108   0.0000       0.069812         1.8997 
 109   0.0000       0.070064         1.9065 
 110   0.0000       0.076563         2.0834 
 111   0.0000       0.078450         2.1347 
 112   0.0000       0.081941         2.2297 
 113   0.0000       0.085986         2.3398 
 114   0.0000       0.090538         2.4637 
 115   0.0000       0.095067         2.5869 
 116   0.0000       0.101668         2.7665 
 117   0.0000       0.105138         2.8610 
 118   0.0000       0.106280         2.8920 
 119   0.0000       0.112691         3.0665 
 120   0.0000       0.117392         3.1944 
 121   0.0000       0.121646         3.3102 
 122   0.0000       0.123709         3.3663 
 123   0.0000       0.125798         3.4231 
 124   0.0000       0.128486         3.4963 
 125   0.0000       0.132203         3.5974 
 126   0.0000       0.136082         3.7030 
 127   0.0000       0.141828         3.8593 
 128   0.0000       0.146100         3.9756 
 129   0.0000       0.148542         4.0420 
 130   0.0000       0.150782         4.1030 
 131   0.0000       0.155575         4.2334 
 132   0.0000       0.156940         4.2706 
 133   0.0000       0.162305         4.4165 
 134   0.0000       0.164301         4.4709 
 135   0.0000       0.167640         4.5617 
 136   0.0000       0.169893         4.6230 
 137   0.0000       0.176683         4.8078 
 138   0.0000       0.179401         4.8818 
 139   0.0000       0.186581         5.0771 
 140   0.0000       0.190772         5.1912 
 141   0.0000       0.194532         5.2935 
 142   0.0000       0.203164         5.5284 
 143   0.0000       0.206776         5.6267 
 144   0.0000       0.208122         5.6633 
 145   0.0000       0.213519         5.8101 
 146   0.0000       0.221224         6.0198 
 147   0.0000       0.223989         6.0950 
 148   0.0000       0.228954         6.2302 
 149   0.0000       0.232008         6.3133 
 150   0.0000       0.238991         6.5033 
 151   0.0000       0.247008         6.7214 
 152   0.0000       0.252475         6.8702 
 153   0.0000       0.255346         6.9483 
 154   0.0000       0.257202         6.9988 
 155   0.0000       0.265736         7.2310 
 156   0.0000       0.274037         7.4569 
 157   0.0000       0.276869         7.5340 
 158   0.0000       0.281002         7.6465 
 159   0.0000       0.290029         7.8921 
 160   0.0000       0.297597         8.0980 
 161   0.0000       0.300059         8.1650 
 162   0.0000       0.306322         8.3354 
 163   0.0000       0.308269         8.3884 
 164   0.0000       0.317616         8.6428 
 165   0.0000       0.324433         8.8283 
 166   0.0000       0.330058         8.9813 
 167   0.0000       0.334671         9.1069 
 168   0.0000       0.356720         9.7069 
 169   0.0000       0.365273         9.9396 
 170   0.0000       0.380059        10.3419 
 171   0.0000       0.383869        10.4456 
 172   0.0000       0.399093        10.8599 
 173   0.0000       0.437153        11.8955 
 174   0.0000       0.442911        12.0522 
 175   0.0000       0.510345        13.8872 
 176   0.0000       0.537966        14.6388 
 177   0.0000       0.544659        14.8209 
 178   0.0000       0.564662        15.3652 
 179   0.0000       0.570804        15.5324 
 180   0.0000       0.583536        15.8788 
 181   0.0000       0.590888        16.0789 
 182   0.0000       0.594800        16.1853 
 183   0.0000       0.604529        16.4501 
 184   0.0000       0.605359        16.4726 
 185   0.0000       0.616559        16.7774 
 186   0.0000       0.628469        17.1015 
 187   0.0000       0.636026        17.3071 
 188   0.0000       0.662313        18.0224 
 189   0.0000       0.664813        18.0905 
 190   0.0000       0.671028        18.2596 
 191   0.0000       0.673281        18.3209 
 192   0.0000       0.684856        18.6359 
 193   0.0000       0.711438        19.3592 
 194   0.0000       0.719261        19.5721 
 195   0.0000       0.727116        19.7858 
 196   0.0000       0.731290        19.8994 
 197   0.0000       0.737483        20.0679 
 198   0.0000       0.752387        20.4735 
 199   0.0000       0.766324        20.8527 
 200   0.0000       0.775155        21.0930 
 201   0.0000       0.785495        21.3744 
 202   0.0000       0.787345        21.4248 
 203   0.0000       0.800727        21.7889 
 204   0.0000       0.808745        22.0071 
 205   0.0000       0.822194        22.3730 
 206   0.0000       0.827738        22.5239 
 207   0.0000       0.836819        22.7710 
 208   0.0000       0.846839        23.0437 
 209   0.0000       0.858727        23.3671 
 210   0.0000       0.861797        23.4507 
 211   0.0000       0.869882        23.6707 
 212   0.0000       0.874535        23.7973 
 213   0.0000       0.878184        23.8966 
 214   0.0000       0.888527        24.1781 
 215   0.0000       0.891165        24.2498 
 216   0.0000       0.896739        24.4015 
 217   0.0000       0.903109        24.5749 
 218   0.0000       0.921013        25.0620 
 219   0.0000       0.928478        25.2652 
 220   0.0000       0.935951        25.4685 
 221   0.0000       0.938742        25.5445 
 222   0.0000       0.958500        26.0821 
 223   0.0000       0.964108        26.2347 
 224   0.0000       0.980699        26.6862 
 225   0.0000       0.982233        26.7279 
 226   0.0000       1.000821        27.2337 
 227   0.0000       1.015588        27.6356 
 228   0.0000       1.019412        27.7396 
 229   0.0000       1.028143        27.9772 
 230   0.0000       1.042910        28.3790 
 231   0.0000       1.050638        28.5893 
 232   0.0000       1.051737        28.6192 
 233   0.0000       1.071364        29.1533 
 234   0.0000       1.074837        29.2478 
 235   0.0000       1.088701        29.6251 
 236   0.0000       1.093808        29.7640 
 237   0.0000       1.105989        30.0955 
 238   0.0000       1.116254        30.3748 
 239   0.0000       1.134256        30.8647 
 240   0.0000       1.149991        31.2928 
 241   0.0000       1.163880        31.6708 
 242   0.0000       1.171867        31.8881 
 243   0.0000       1.180588        32.1254 
 244   0.0000       1.188196        32.3325 
 245   0.0000       1.201111        32.6839 
 246   0.0000       1.219574        33.1863 
 247   0.0000       1.233117        33.5548 
 248   0.0000       1.248442        33.9718 
 249   0.0000       1.268779        34.5252 
 250   0.0000       1.274882        34.6913 
 251   0.0000       1.289349        35.0850 
 252   0.0000       1.299164        35.3520 
 253   0.0000       1.310609        35.6635 
 254   0.0000       1.321733        35.9662 
 255   0.0000       1.340230        36.4695 
 256   0.0000       1.345374        36.6095 
 257   0.0000       1.359858        37.0036 
 258   0.0000       1.379904        37.5491 
 259   0.0000       1.397099        38.0170 
 260   0.0000       1.414255        38.4838 
 261   0.0000       1.436804        39.0974 
 262   0.0000       1.446095        39.3503 
 263   0.0000       1.464384        39.8479 
 264   0.0000       1.465479        39.8777 
 265   0.0000       1.490036        40.5459 
 266   0.0000       1.516603        41.2689 
 267   0.0000       1.528204        41.5845 
 268   0.0000       1.536924        41.8218 
 269   0.0000       1.555820        42.3360 
 270   0.0000       1.567933        42.6656 
 271   0.0000       1.584895        43.1272 
 272   0.0000       1.616514        43.9876 
 273   0.0000       1.632280        44.4166 
 274   0.0000       1.671469        45.4830 
 275   0.0000       1.679971        45.7143 
 276   0.0000       1.698446        46.2171 
 277   0.0000       1.702804        46.3357 
 278   0.0000       1.726401        46.9778 
 279   0.0000       1.731442        47.1149 
 280   0.0000       1.754022        47.7294 
 281   0.0000       1.758895        47.8620 
 282   0.0000       1.768470        48.1225 
 283   0.0000       1.776318        48.3361 
 284   0.0000       1.785406        48.5834 
 285   0.0000       1.800426        48.9921 
 286   0.0000       1.818929        49.4956 
 287   0.0000       1.829095        49.7722 
 288   0.0000       1.845337        50.2142 
 289   0.0000       1.857474        50.5444 
 290   0.0000       1.876471        51.0614 
 291   0.0000       1.902830        51.7786 
 292   0.0000       1.904746        51.8308 
 293   0.0000       1.914251        52.0894 
 294   0.0000       1.921263        52.2802 
 295   0.0000       1.932683        52.5910 
 296   0.0000       1.947426        52.9922 
 297   0.0000       1.954835        53.1938 
 298   0.0000       1.962381        53.3991 
 299   0.0000       1.982673        53.9513 
 300   0.0000       1.989833        54.1461 
 301   0.0000       2.019241        54.9463 
 302   0.0000       2.027246        55.1642 
 303   0.0000       2.048998        55.7561 
 304   0.0000       2.061458        56.0951 
 305   0.0000       2.072948        56.4078 
 306   0.0000       2.089760        56.8653 
 307   0.0000       2.102954        57.2243 
 308   0.0000       2.107477        57.3474 
 309   0.0000       2.144637        58.3585 
 310   0.0000       2.165309        58.9210 
 311   0.0000       2.177664        59.2573 
 312   0.0000       2.188917        59.5635 
 313   0.0000       2.199789        59.8593 
 314   0.0000       2.212283        60.1993 
 315   0.0000       2.233686        60.7817 
 316   0.0000       2.250757        61.2462 
 317   0.0000       2.264122        61.6099 
 318   0.0000       2.280088        62.0443 
 319   0.0000       2.292674        62.3868 
 320   0.0000       2.301785        62.6347 
 321   0.0000       2.342454        63.7414 
 322   0.0000       2.350736        63.9668 
 323   0.0000       2.368199        64.4420 
 324   0.0000       2.384653        64.8897 
 325   0.0000       2.392638        65.1070 
 326   0.0000       2.406171        65.4752 
 327   0.0000       2.429215        66.1023 
 328   0.0000       2.435655        66.2775 
 329   0.0000       2.482797        67.5603 
 330   0.0000       2.495395        67.9032 
 331   0.0000       2.519661        68.5635 
 332   0.0000       2.535125        68.9842 
 333   0.0000       2.561926        69.7136 
 334   0.0000       2.578128        70.1544 
 335   0.0000       2.586582        70.3845 
 336   0.0000       2.600159        70.7539 
 337   0.0000       2.615449        71.1700 
 338   0.0000       2.653243        72.1984 
 339   0.0000       2.672317        72.7174 
 340   0.0000       2.709965        73.7419 
 341   0.0000       2.756121        74.9979 
 342   0.0000       2.845541        77.4311 
 343   0.0000       2.916231        79.3547 
 344   0.0000       2.939089        79.9767 
 345   0.0000       2.992916        81.4414 
 346   0.0000       3.045735        82.8787 
 347   0.0000       3.059423        83.2511 
 348   0.0000       3.122648        84.9716 
 349   0.0000       3.163063        86.0713 

                    ********************************
                    * MULLIKEN POPULATION ANALYSIS *
                    ********************************

-----------------------
MULLIKEN ATOMIC CHARGES
-----------------------
   0 C :   -0.837726
   1 H :    0.265104
   2 H :    0.241328
   3 H :    0.264435
   4 C :    0.598028
   5 N :   -0.235977
   6 C :   -0.285197
   7 H :    0.257977
   8 H :    0.233620
   9 C :    0.070639
  10 N :   -0.078375
  11 O :   -0.451915
  12 O :   -0.496628
  13 C :   -0.419265
  14 H :    0.227950
  15 H :    0.227264
  16 H :    0.195610
  17 C :   -0.555288
  18 H :    0.225426
  19 H :    0.215824
  20 H :    0.262219
  21 C :   -0.196494
  22 H :    0.249218
  23 C :   -0.684695
  24 H :    0.218323
  25 H :    0.237083
  26 C :   -0.389213
  27 H :    0.243598
  28 H :    0.261263
  29 N :   -0.541616
  30 H :    0.426779
  31 C :    0.971269
  32 N :   -0.885279
  33 N :   -0.821747
  34 H :    0.459276
  35 H :    0.450806
  36 H :    0.431547
  37 H :    0.437395
  38 H :    0.207433
Sum of atomic charges:    1.0000000

--------------------------------
MULLIKEN REDUCED ORBITAL CHARGES
--------------------------------
  0 C s       :     3.642238  s :     3.642238
      pz      :     1.050430  p :     3.164203
      px      :     1.062742
      py      :     1.051031
[...]
    112      -0.257537  -0.038676   0.476411
    113      -0.011932  -0.001549   0.023115
    114       0.000390  -0.000134   0.000000
    115      -0.000307   0.000260   0.000005
    116      -0.000133  -0.000004  -0.000011


-----------
IR SPECTRUM
-----------

 Mode   freq       eps      Int      T**2         TX        TY        TZ
       cm**-1   L/(mol*cm) km/mol    a.u.
----------------------------------------------------------------------------
  6:     18.97   0.000718    3.63  0.011812  ( 0.066735 -0.021303  0.083095)
  7:     36.73   0.000834    4.22  0.007089  (-0.027700 -0.079380 -0.004556)
  8:     48.13   0.000140    0.71  0.000905  (-0.019949  0.022327 -0.002871)
  9:     58.35   0.000133    0.67  0.000709  ( 0.009868 -0.021117  0.012860)
 10:     67.47   0.000713    3.60  0.003298  (-0.049254  0.029124  0.004910)
 11:     77.35   0.000094    0.47  0.000377  ( 0.019225 -0.000396 -0.002737)
 12:     83.55   0.000332    1.68  0.001239  ( 0.032918 -0.006752 -0.010464)
 13:     93.79   0.000277    1.40  0.000922  ( 0.021372  0.012806 -0.017353)
 14:    107.91   0.001138    5.75  0.003291  (-0.046465  0.005601  0.033179)
 15:    141.27   0.001037    5.24  0.002290  (-0.037848  0.022284  0.019008)
 16:    151.27   0.000256    1.30  0.000529  (-0.018897  0.009759  0.008737)
 17:    161.18   0.001119    5.65  0.002166  (-0.032836 -0.027596  0.018055)
 18:    178.27   0.000673    3.40  0.001178  (-0.004355 -0.025031 -0.023070)
 19:    180.06   0.000245    1.24  0.000425  (-0.000392 -0.012379 -0.016487)
 20:    194.27   0.000682    3.44  0.001095  (-0.030969 -0.010626 -0.004778)
 21:    229.20   0.020081  101.48  0.027341  ( 0.012789  0.065154  0.151436)
 22:    233.80   0.001108    5.60  0.001479  (-0.014291  0.035289 -0.005467)
 23:    266.86   0.000490    2.48  0.000573  ( 0.019043 -0.013940  0.004004)
 24:    274.97   0.000871    4.40  0.000989  (-0.020599 -0.007994  0.022370)
 25:    291.70   0.000519    2.62  0.000555  ( 0.016319  0.013670 -0.010082)
 26:    319.28   0.001215    6.14  0.001188  ( 0.032700 -0.001262 -0.010819)
 27:    335.70   0.002152   10.88  0.002001  (-0.001773  0.018186  0.040827)
 28:    385.83   0.062587  316.29  0.050621  ( 0.097742 -0.010654  0.202371)
 29:    394.29   0.001974    9.98  0.001562  ( 0.001810 -0.001476 -0.039458)
 30:    405.92   0.002017   10.19  0.001550  (-0.036570 -0.005928 -0.013339)
 31:    439.16   0.003927   19.85  0.002791  (-0.046195  0.007327 -0.024554)
 32:    453.64   0.000837    4.23  0.000576  ( 0.015819  0.017902  0.002311)
 33:    488.36   0.007291   36.85  0.004659  (-0.021168  0.026914 -0.059046)
 34:    508.56   0.016974   85.78  0.010416  ( 0.055674 -0.003281  0.085471)
 35:    544.71   0.003892   19.67  0.002230  ( 0.024505 -0.023743  0.032644)
 36:    562.64   0.001777    8.98  0.000985  (-0.006850  0.021195 -0.022119)
 37:    567.16   0.000901    4.55  0.000496  (-0.004153  0.013126 -0.017501)
 38:    594.48   0.002761   13.95  0.001450  ( 0.035235  0.001113 -0.014379)
 39:    611.14   0.001758    8.88  0.000898  (-0.011163  0.023858  0.014273)
 40:    619.92   0.000948    4.79  0.000477  ( 0.019075 -0.006748 -0.008225)
 41:    678.10   0.001772    8.96  0.000816  (-0.023330  0.007470  0.014684)
 42:    707.41   0.000201    1.01  0.000089  ( 0.006071 -0.000248 -0.007187)
 43:    738.86   0.001413    7.14  0.000597  ( 0.016713 -0.012686 -0.012517)
 44:    788.61   0.001536    7.76  0.000608  ( 0.006027 -0.015563 -0.018141)
 45:    819.93   0.000239    1.21  0.000091  ( 0.002345 -0.002940 -0.008766)
 46:    893.14   0.000949    4.79  0.000331  (-0.009847  0.012099 -0.009389)
 47:    927.72   0.000122    0.61  0.000041  (-0.004925 -0.003981  0.000891)
 48:    976.94   0.000187    0.94  0.000060  ( 0.001155 -0.005987 -0.004744)
 49:    991.58   0.001762    8.91  0.000555  (-0.014484  0.008322  0.016601)
 50:   1001.72   0.005382   27.20  0.001677  (-0.029851 -0.019589  0.020044)
 51:   1034.08   0.004613   23.31  0.001392  ( 0.031390 -0.018186  0.008729)
 52:   1063.28   0.002122   10.72  0.000623  (-0.024230 -0.002982  0.005179)
 53:   1064.89   0.001317    6.66  0.000386  ( 0.012197 -0.013756  0.006936)
 54:   1074.90   0.001545    7.81  0.000449  ( 0.002687  0.020971 -0.001233)
 55:   1085.90   0.002028   10.25  0.000583  ( 0.019396  0.005967  0.013078)
 56:   1086.67   0.000560    2.83  0.000161  ( 0.002000 -0.007484 -0.010038)
 57:   1111.55   0.000146    0.74  0.000041  ( 0.005067  0.001341 -0.003664)
 58:   1132.09   0.000345    1.75  0.000095  (-0.002585  0.000643 -0.009386)
 59:   1138.90   0.001317    6.66  0.000361  ( 0.014769 -0.005158  0.010780)
 60:   1155.17   0.005625   28.42  0.001519  ( 0.038036 -0.005774 -0.006278)
 61:   1171.63   0.000763    3.86  0.000203  ( 0.001104 -0.010234 -0.009861)
 62:   1186.32   0.009411   47.56  0.002476  (-0.032953  0.006941  0.036627)
 63:   1205.34   0.008312   42.00  0.002152  ( 0.043433  0.006947  0.014741)
 64:   1260.20   0.005252   26.54  0.001301  ( 0.003811  0.033445  0.012941)
 65:   1283.25   0.003856   19.48  0.000938  ( 0.025158 -0.017379  0.001628)
 66:   1292.42   0.008593   43.43  0.002075  (-0.039163 -0.023238  0.001083)
 67:   1319.56   0.004135   20.90  0.000978  ( 0.009943  0.029433 -0.003558)
 68:   1350.64   0.009735   49.19  0.002249  ( 0.001712 -0.043696  0.018356)
 69:   1360.66   0.001135    5.74  0.000260  ( 0.011856 -0.006694  0.008657)
 70:   1376.59   0.002725   13.77  0.000618  (-0.021755  0.003201 -0.011584)
 71:   1414.60   0.002539   12.83  0.000560  (-0.006590  0.022534 -0.003004)
 72:   1417.20   0.006875   34.74  0.001514  ( 0.032892  0.015899 -0.013387)
 73:   1423.44   0.001979   10.00  0.000434  ( 0.018041  0.008262  0.006330)
 74:   1441.89   0.017827   90.09  0.003858  ( 0.047537 -0.013331 -0.037692)
 75:   1451.45   0.020928  105.76  0.004499  (-0.005114 -0.066680  0.005204)
 76:   1456.59   0.002121   10.72  0.000454  ( 0.013985 -0.012631  0.009964)
 77:   1459.02   0.001519    7.67  0.000325  ( 0.001652 -0.017428 -0.004280)
 78:   1488.37   0.003168   16.01  0.000664  (-0.001223  0.025744 -0.000082)
 79:   1493.18   0.003369   17.03  0.000704  ( 0.015072 -0.013951 -0.016804)
 80:   1495.21   0.005439   27.49  0.001135  ( 0.029308  0.001126  0.016579)
 81:   1506.70   0.000015    0.08  0.000003  ( 0.001316  0.000683  0.000991)
 82:   1511.36   0.002801   14.15  0.000578  (-0.016314  0.004301  0.017136)
 83:   1512.04   0.004529   22.89  0.000935  (-0.006496  0.017960  0.023875)
 84:   1517.36   0.003145   15.89  0.000647  (-0.021109 -0.014169 -0.000641)
 85:   1518.70   0.002979   15.05  0.000612  (-0.009058  0.022996  0.001122)
 86:   1526.81   0.005440   27.49  0.001112  ( 0.015569 -0.028939  0.005664)
 87:   1532.50   0.005429   27.44  0.001106  ( 0.014001  0.029994  0.003134)
 88:   1550.39   0.011495   58.09  0.002314  ( 0.040716 -0.000456 -0.025606)
 89:   1608.98   0.002038   10.30  0.000395  ( 0.009101  0.017516 -0.002374)
 90:   1665.60   0.038831  196.24  0.007275  ( 0.063815 -0.054423 -0.015526)
 91:   1706.15   0.092563  467.77  0.016930  ( 0.104825 -0.060400  0.047893)
 92:   1711.89   0.091729  463.56  0.016721  ( 0.113981  0.031449 -0.052352)
 93:   1718.24   0.051595  260.74  0.009371  (-0.014497  0.095648 -0.003443)
 94:   1738.38   0.073102  369.43  0.013123  (-0.004177  0.022950  0.112155)
 95:   3029.28   0.004636   23.43  0.000478  (-0.012713 -0.017700 -0.001652)
 96:   3037.28   0.007141   36.09  0.000734  ( 0.017241 -0.000125  0.020892)
 97:   3044.89   0.009308   47.04  0.000954  ( 0.022880  0.002370 -0.020613)
 98:   3068.73   0.000751    3.79  0.000076  ( 0.007481  0.001038  0.004396)
 99:   3069.82   0.000148    0.75  0.000015  (-0.002113 -0.002550 -0.002021)
100:   3073.59   0.002156   10.90  0.000219  (-0.000223  0.004711 -0.014024)
101:   3079.94   0.002233   11.28  0.000226  (-0.000501  0.012414 -0.008479)
102:   3088.66   0.004658   23.54  0.000471  ( 0.003822 -0.015568 -0.014619)
103:   3096.52   0.006059   30.62  0.000611  (-0.008502  0.022400 -0.006044)
104:   3106.61   0.002930   14.81  0.000294  ( 0.009847 -0.012769 -0.005859)
105:   3117.24   0.001537    7.77  0.000154  (-0.002585  0.005713  0.010704)
106:   3132.77   0.000670    3.39  0.000067  ( 0.004823 -0.002271 -0.006191)
107:   3134.45   0.001831    9.26  0.000182  (-0.009017  0.008732 -0.004978)
108:   3145.70   0.001669    8.43  0.000166  ( 0.004279  0.002807  0.011804)
109:   3159.87   0.004511   22.80  0.000445  ( 0.016505  0.013027 -0.001826)
110:   3170.19   0.000854    4.31  0.000084  (-0.002174  0.008892 -0.000506)
111:   3187.67   0.000146    0.74  0.000014  ( 0.003062  0.002122  0.000670)
112:   3583.47   0.033555  169.57  0.002922  (-0.031445 -0.043115  0.008624)
113:   3593.64   0.024194  122.27  0.002101  ( 0.039294 -0.019225 -0.013688)
114:   3603.15   0.008291   41.90  0.000718  ( 0.016534  0.021026 -0.001599)
115:   3696.22   0.025274  127.72  0.002134  (-0.039301  0.015676  0.018535)
116:   3704.71   0.021076  106.51  0.001775  (-0.015482  0.038887 -0.004837)

* The epsilon (eps) is given for a Dirac delta lineshape.
** The dipole moment derivative (T) already includes vibrational overlap.

The first frequency considered to be a vibration is 6
The total number of vibrations considered is 111


--------------------------
THERMOCHEMISTRY AT 298.15K
--------------------------

Temperature         ... 298.15 K
Pressure            ... 1.00 atm
Total Mass          ... 244.32 AMU

Throughout the following assumptions are being made:
  (1) The electronic state is orbitally nondegenerate
  (2) There are no thermally accessible electronically excited states
  (3) Hindered rotations indicated by low frequency modes are not
      treated as such but are treated as vibrations and this may
      cause some error
  (4) All equations used are the standard statistical mechanics
      equations for an ideal gas
  (5) All vibrations are strictly harmonic

freq.      18.97  E(vib)   ...       0.57 
freq.      36.73  E(vib)   ...       0.54 
freq.      48.13  E(vib)   ...       0.53 
freq.      58.35  E(vib)   ...       0.51 
freq.      67.47  E(vib)   ...       0.50 
freq.      77.35  E(vib)   ...       0.49 
freq.      83.55  E(vib)   ...       0.48 
freq.      93.79  E(vib)   ...       0.47 
freq.     107.91  E(vib)   ...       0.45 
freq.     141.27  E(vib)   ...       0.41 
freq.     151.27  E(vib)   ...       0.40 
freq.     161.18  E(vib)   ...       0.39 
freq.     178.27  E(vib)   ...       0.37 
freq.     180.06  E(vib)   ...       0.37 
freq.     194.27  E(vib)   ...       0.36 
freq.     229.20  E(vib)   ...       0.32 
freq.     233.80  E(vib)   ...       0.32 
freq.     266.86  E(vib)   ...       0.29 
freq.     274.97  E(vib)   ...       0.28 
freq.     291.70  E(vib)   ...       0.27 
freq.     319.28  E(vib)   ...       0.25 
freq.     335.70  E(vib)   ...       0.24 
freq.     385.83  E(vib)   ...       0.20 
freq.     394.29  E(vib)   ...       0.20 
freq.     405.92  E(vib)   ...       0.19 
freq.     439.16  E(vib)   ...       0.17 
freq.     453.64  E(vib)   ...       0.16 
freq.     488.36  E(vib)   ...       0.15 
freq.     508.56  E(vib)   ...       0.14 
freq.     544.71  E(vib)   ...       0.12 
freq.     562.64  E(vib)   ...       0.11 
freq.     567.16  E(vib)   ...       0.11 
freq.     594.48  E(vib)   ...       0.10 
freq.     611.14  E(vib)   ...       0.10 
freq.     619.92  E(vib)   ...       0.09 
freq.     678.10  E(vib)   ...       0.08 
freq.     707.41  E(vib)   ...       0.07 
freq.     738.86  E(vib)   ...       0.06 
freq.     788.61  E(vib)   ...       0.05 
freq.     819.93  E(vib)   ...       0.05 
freq.     893.14  E(vib)   ...       0.03 
freq.     927.72  E(vib)   ...       0.03 
freq.     976.94  E(vib)   ...       0.03 
freq.     991.58  E(vib)   ...       0.02 
freq.    1001.72  E(vib)   ...       0.02 
freq.    1034.08  E(vib)   ...       0.02 
freq.    1063.28  E(vib)   ...       0.02 
freq.    1064.89  E(vib)   ...       0.02 
freq.    1074.90  E(vib)   ...       0.02 
freq.    1085.90  E(vib)   ...       0.02 
freq.    1086.67  E(vib)   ...       0.02 
freq.    1111.55  E(vib)   ...       0.01 
freq.    1132.09  E(vib)   ...       0.01 
freq.    1138.90  E(vib)   ...       0.01 
freq.    1155.17  E(vib)   ...       0.01 
freq.    1171.63  E(vib)   ...       0.01 
freq.    1186.32  E(vib)   ...       0.01 
freq.    1205.34  E(vib)   ...       0.01 
freq.    1260.20  E(vib)   ...       0.01 
freq.    1283.25  E(vib)   ...       0.01 
freq.    1292.42  E(vib)   ...       0.01 
freq.    1319.56  E(vib)   ...       0.01 
freq.    1350.64  E(vib)   ...       0.01 
freq.    1360.66  E(vib)   ...       0.01 
freq.    1376.59  E(vib)   ...       0.01 
freq.    1414.60  E(vib)   ...       0.00 
freq.    1417.20  E(vib)   ...       0.00 
freq.    1423.44  E(vib)   ...       0.00 
freq.    1441.89  E(vib)   ...       0.00 
freq.    1451.45  E(vib)   ...       0.00 
freq.    1456.59  E(vib)   ...       0.00 
freq.    1459.02  E(vib)   ...       0.00 
freq.    1488.37  E(vib)   ...       0.00 
freq.    1493.18  E(vib)   ...       0.00 
freq.    1495.21  E(vib)   ...       0.00 
freq.    1506.70  E(vib)   ...       0.00 
freq.    1511.36  E(vib)   ...       0.00 
freq.    1512.04  E(vib)   ...       0.00 
freq.    1517.36  E(vib)   ...       0.00 
freq.    1518.70  E(vib)   ...       0.00 
freq.    1526.81  E(vib)   ...       0.00 
freq.    1532.50  E(vib)   ...       0.00 
freq.    1550.39  E(vib)   ...       0.00 
freq.    1608.98  E(vib)   ...       0.00 
freq.    1665.60  E(vib)   ...       0.00 
freq.    1706.15  E(vib)   ...       0.00 
freq.    1711.89  E(vib)   ...       0.00 
freq.    1718.24  E(vib)   ...       0.00 
freq.    1738.38  E(vib)   ...       0.00 
freq.    3029.28  E(vib)   ...       0.00 
freq.    3037.28  E(vib)   ...       0.00 
freq.    3044.89  E(vib)   ...       0.00 
freq.    3068.73  E(vib)   ...       0.00 
freq.    3069.82  E(vib)   ...       0.00 
freq.    3073.59  E(vib)   ...       0.00 
freq.    3079.94  E(vib)   ...       0.00 
freq.    3088.66  E(vib)   ...       0.00 
freq.    3096.52  E(vib)   ...       0.00 
freq.    3106.61  E(vib)   ...       0.00 
freq.    3117.24  E(vib)   ...       0.00 
freq.    3132.77  E(vib)   ...       0.00 
freq.    3134.45  E(vib)   ...       0.00 
freq.    3145.70  E(vib)   ...       0.00 
freq.    3159.87  E(vib)   ...       0.00 
freq.    3170.19  E(vib)   ...       0.00 
freq.    3187.67  E(vib)   ...       0.00 
freq.    3583.47  E(vib)   ...       0.00 
freq.    3593.64  E(vib)   ...       0.00 
freq.    3603.15  E(vib)   ...       0.00 
freq.    3696.22  E(vib)   ...       0.00 
freq.    3704.71  E(vib)   ...       0.00 

------------
INNER ENERGY
------------

The inner energy is: U= E(el) + E(ZPE) + E(vib) + E(rot) + E(trans)
    E(el)   - is the total energy from the electronic structure calculation
              = E(kin-el) + E(nuc-el) + E(el-el) + E(nuc-nuc)
    E(ZPE)  - the the zero temperature vibrational energy from the frequency calculation
    E(vib)  - the the finite temperature correction to E(ZPE) due to population
              of excited vibrational states
    E(rot)  - is the rotational thermal energy
    E(trans)- is the translational thermal energy

Summary of contributions to the inner energy U:
Electronic energy                ...   -817.92450762 Eh
Zero point energy                ...      0.34216807 Eh     214.71 kcal/mol
Thermal vibrational correction   ...      0.01820225 Eh      11.42 kcal/mol
Thermal rotational correction    ...      0.00141627 Eh       0.89 kcal/mol
Thermal translational correction ...      0.00141627 Eh       0.89 kcal/mol
-----------------------------------------------------------------------
Total thermal energy                   -817.56130475 Eh


Summary of corrections to the electronic energy:
(perhaps to be used in another calculation)
Total thermal correction                  0.02103480 Eh      13.20 kcal/mol
Non-thermal (ZPE) correction              0.34216807 Eh     214.71 kcal/mol
-----------------------------------------------------------------------
Total correction                          0.36320287 Eh     227.91 kcal/mol


--------
ENTHALPY
--------

The enthalpy is H = U + kB*T
                kB is Boltzmann's constant
Total free energy                 ...   -817.56130475 Eh 
Thermal Enthalpy correction       ...      0.00094421 Eh       0.59 kcal/mol
-----------------------------------------------------------------------
Total Enthalpy                    ...   -817.56036054 Eh


Note: Only C1 symmetry has been detected, increase convergence thresholds 
      if your molecule has a higher symmetry. Symmetry factor of 1.0 is   
      used for the rotational entropy correction. 
 

Note: Rotational entropy computed according to Herzberg 
Infrared and Raman Spectra, Chapter V,1, Van Nostrand Reinhold, 1945 
Point Group:  C1, Symmetry Number:   1  
Rotational constants in cm-1:     0.036784     0.005966     0.005803 

Vibrational entropy computed according to the QRRHO of S. Grimme
Chem.Eur.J. 2012 18 9955


-------
ENTROPY
-------

The entropy contributions are T*S = T*(S(el)+S(vib)+S(rot)+S(trans))
     S(el)   - electronic entropy
     S(vib)  - vibrational entropy
     S(rot)  - rotational entropy
     S(trans)- translational entropy
The entropies will be listed as multiplied by the temperature to get
units of energy

Electronic entropy                ...      0.00000000 Eh      0.00 kcal/mol
Vibrational entropy               ...      0.03297959 Eh     20.69 kcal/mol
Rotational entropy                ...      0.01591880 Eh      9.99 kcal/mol
Translational entropy             ...      0.02013640 Eh     12.64 kcal/mol
-----------------------------------------------------------------------
Final entropy term                ...      0.06903479 Eh     43.32 kcal/mol

In case the symmetry of your molecule has not been determined correctly
or in case you have a reason to use a different symmetry number we print 
out the resulting rotational entropy values for sn=1,12 :
 --------------------------------------------------------
|  sn= 1 | S(rot)=       0.01591880 Eh      9.99 kcal/mol|
|  sn= 2 | S(rot)=       0.01526434 Eh      9.58 kcal/mol|
|  sn= 3 | S(rot)=       0.01488151 Eh      9.34 kcal/mol|
|  sn= 4 | S(rot)=       0.01460989 Eh      9.17 kcal/mol|
|  sn= 5 | S(rot)=       0.01439920 Eh      9.04 kcal/mol|
|  sn= 6 | S(rot)=       0.01422706 Eh      8.93 kcal/mol|
|  sn= 7 | S(rot)=       0.01408151 Eh      8.84 kcal/mol|
|  sn= 8 | S(rot)=       0.01395543 Eh      8.76 kcal/mol|
|  sn= 9 | S(rot)=       0.01384422 Eh      8.69 kcal/mol|
|  sn=10 | S(rot)=       0.01374474 Eh      8.62 kcal/mol|
|  sn=11 | S(rot)=       0.01365475 Eh      8.57 kcal/mol|
|  sn=12 | S(rot)=       0.01357260 Eh      8.52 kcal/mol|
 --------------------------------------------------------


-------------------
GIBBS FREE ENERGY
-------------------

The Gibbs free energy is G = H - T*S

Total enthalpy                    ...   -817.56036054 Eh 
Total entropy correction          ...     -0.06903479 Eh    -43.32 kcal/mol
-----------------------------------------------------------------------
Final Gibbs free energy         ...   -817.62939533 Eh

For completeness - the Gibbs free energy minus the electronic energy
G-E(el)                           ...      0.29511229 Eh    185.19 kcal/mol


Timings for individual modules:

Sum of individual times         ...     3831.924 sec (=  63.865 min)
GTO integral calculation        ...       48.291 sec (=   0.805 min)   1.3 %
SCF iterations                  ...     1710.978 sec (=  28.516 min)  44.7 %
SCF Gradient evaluation         ...      446.086 sec (=   7.435 min)  11.6 %
Geometry relaxation             ...        2.501 sec (=   0.042 min)   0.1 %
Analytical frequency calculation...     1624.068 sec (=  27.068 min)  42.4 %
                             ****ORCA TERMINATED NORMALLY****
TOTAL RUN TIME: 0 days 1 hours 4 minutes 0 seconds 247 msec
