
                                 *****************
                                 * O   R   C   A *
                                 *****************

                                            #,                                       
                                            ###                                      
                                            ####                                     
                                            #####                                    
                                            ######                                   
                                           ########,                                 
                                     ,,################,,,,,                         
                               ,,#################################,,                 
                          ,,##########################################,,             
                       ,#########################################, ''#####,          
                    ,#############################################,,   '####,        
                  ,##################################################,,,,####,       
                ,###########''''           ''''###############################       
              ,#####''   ,,,,##########,,,,          '''####'''          '####       
            ,##' ,,,,###########################,,,                        '##       
           ' ,,###''''                  '''############,,,                           
         ,,##''                                '''############,,,,        ,,,,,,###''
      ,#''                                            '''#######################'''  
     '                                                          ''''####''''         
             ,#######,   #######,   ,#######,      ##                                
            ,#'     '#,  ##    ##  ,#'     '#,    #''#        ######   ,####,        
            ##       ##  ##   ,#'  ##            #'  '#       #        #'  '#        
            ##       ##  #######   ##           ,######,      #####,   #    #        
            '#,     ,#'  ##    ##  '#,     ,#' ,#      #,         ##   #,  ,#        
             '#######'   ##     ##  '#######'  #'      '#     #####' # '####'        



                  #######################################################
                  #                        -***-                        #
                  #          Department of theory and spectroscopy      #
                  #    Directorship and core code : Frank Neese         #
                  #        Max Planck Institute fuer Kohlenforschung    #
                  #                Kaiser Wilhelm Platz 1               #
                  #                 D-45470 Muelheim/Ruhr               #
                  #                      Germany                        #
                  #                                                     #
                  #                  All rights reserved                #
                  #                        -***-                        #
                  #######################################################


                         Program Version 5.0.4 -  RELEASE  -


 With contributions from (in alphabetic order):
   Daniel Aravena         : Magnetic Suceptibility
   Michael Atanasov       : Ab Initio Ligand Field Theory (pilot matlab implementation)
   Alexander A. Auer      : GIAO ZORA, VPT2 properties, NMR spectrum
   Ute Becker             : Parallelization
   Giovanni Bistoni       : ED, misc. LED, open-shell LED, HFLD
   Martin Brehm           : Molecular dynamics
   Dmytro Bykov           : SCF Hessian
   Vijay G. Chilkuri      : MRCI spin determinant printing, contributions to CSF-ICE
   Dipayan Datta          : RHF DLPNO-CCSD density
   Achintya Kumar Dutta   : EOM-CC, STEOM-CC
   Dmitry Ganyushin       : Spin-Orbit,Spin-Spin,Magnetic field MRCI
   Miquel Garcia          : C-PCM and meta-GGA Hessian, CC/C-PCM, Gaussian charge scheme
   Yang Guo               : DLPNO-NEVPT2, F12-NEVPT2, CIM, IAO-localization
   Andreas Hansen         : Spin unrestricted coupled pair/coupled cluster methods
   Benjamin Helmich-Paris : MC-RPA, TRAH-SCF, COSX integrals
   Lee Huntington         : MR-EOM, pCC
   Robert Izsak           : Overlap fitted RIJCOSX, COSX-SCS-MP3, EOM
   Marcus Kettner         : VPT2
   Christian Kollmar      : KDIIS, OOCD, Brueckner-CCSD(T), CCSD density, CASPT2, CASPT2-K
   Simone Kossmann        : Meta GGA functionals, TD-DFT gradient, OOMP2, MP2 Hessian
   Martin Krupicka        : Initial AUTO-CI
   Lucas Lang             : DCDCAS
   Marvin Lechner         : AUTO-CI (C++ implementation), FIC-MRCC
   Dagmar Lenk            : GEPOL surface, SMD
   Dimitrios Liakos       : Extrapolation schemes; Compound Job, initial MDCI parallelization
   Dimitrios Manganas     : Further ROCIS development; embedding schemes
   Dimitrios Pantazis     : SARC Basis sets
   Anastasios Papadopoulos: AUTO-CI, single reference methods and gradients
   Taras Petrenko         : DFT Hessian,TD-DFT gradient, ASA, ECA, R-Raman, ABS, FL, XAS/XES, NRVS
   Peter Pinski           : DLPNO-MP2, DLPNO-MP2 Gradient
   Christoph Reimann      : Effective Core Potentials
   Marius Retegan         : Local ZFS, SOC
   Christoph Riplinger    : Optimizer, TS searches, QM/MM, DLPNO-CCSD(T), (RO)-DLPNO pert. Triples
   Tobias Risthaus        : Range-separated hybrids, TD-DFT gradient, RPA, STAB
   Michael Roemelt        : Original ROCIS implementation
   Masaaki Saitow         : Open-shell DLPNO-CCSD energy and density
   Barbara Sandhoefer     : DKH picture change effects
   Avijit Sen             : IP-ROCIS
   Kantharuban Sivalingam : CASSCF convergence, NEVPT2, FIC-MRCI
   Bernardo de Souza      : ESD, SOC TD-DFT
   Georgi Stoychev        : AutoAux, RI-MP2 NMR, DLPNO-MP2 response
   Willem Van den Heuvel  : Paramagnetic NMR
   Boris Wezisla          : Elementary symmetry handling
   Frank Wennmohs         : Technical directorship


 We gratefully acknowledge several colleagues who have allowed us to
 interface, adapt or use parts of their codes:
   Stefan Grimme, W. Hujo, H. Kruse, P. Pracht,  : VdW corrections, initial TS optimization,
                  C. Bannwarth, S. Ehlert          DFT functionals, gCP, sTDA/sTD-DF
   Ed Valeev, F. Pavosevic, A. Kumar             : LibInt (2-el integral package), F12 methods
   Garnet Chan, S. Sharma, J. Yang, R. Olivares  : DMRG
   Ulf Ekstrom                                   : XCFun DFT Library
   Mihaly Kallay                                 : mrcc  (arbitrary order and MRCC methods)
   Jiri Pittner, Ondrej Demel                    : Mk-CCSD
   Frank Weinhold                                : gennbo (NPA and NBO analysis)
   Christopher J. Cramer and Donald G. Truhlar   : smd solvation model
   Lars Goerigk                                  : TD-DFT with DH, B97 family of functionals
   V. Asgeirsson, H. Jonsson                     : NEB implementation
   FAccTs GmbH                                   : IRC, NEB, NEB-TS, DLPNO-Multilevel, CI-OPT
                                                   MM, QMMM, 2- and 3-layer-ONIOM, Crystal-QMMM,
                                                   LR-CPCM, SF, NACMEs, symmetry and pop. for TD-DFT,
                                                   nearIR, NL-DFT gradient (VV10), updates on ESD,
                                                   ML-optimized integration grids
   S Lehtola, MJT Oliveira, MAL Marques          : LibXC Library
   Liviu Ungur et al                             : ANISO software


 Your calculation uses the libint2 library for the computation of 2-el integrals
 For citations please refer to: http://libint.valeyev.net

 Your ORCA version has been built with support for libXC version: 5.1.0
 For citations please refer to: https://tddft.org/programs/libxc/

 This ORCA versions uses:
   CBLAS   interface :  Fast vector & matrix operations
   LAPACKE interface :  Fast linear algebra routines
   SCALAPACK package :  Parallel linear algebra routines
   Shared memory     :  Shared parallel matrices
   BLAS/LAPACK       :  OpenBLAS 0.3.15  USE64BITINT DYNAMIC_ARCH NO_AFFINITY SkylakeX SINGLE_THREADED
        Core in use  :  SkylakeX
   Copyright (c) 2011-2014, The OpenBLAS Project




***************************************
The coordinates will be read from file: /users/fjb15167/WWenergy/structures/Nfp.xyz
***************************************


Your calculation utilizes the atom-pairwise dispersion correction
based on tight binding partial charges (D4)
Cite in your paper:
E.Caldeweyher, C.Bannwarth, S.Grimme, J.Chem.Phys., (2017), 147, 034112.
E.Caldeweyher, S.Ehlert, A.Hansen, H.Neugebauer, S.Grimme, J.Chem.Phys., (2018), in progress.
   

================================================================================

----- Orbital basis set information -----
Your calculation utilizes the basis: 6-31G(d)
   H-He, Li-Ne : W. J. Hehre, R. Ditchfield and J.A. Pople, J. Chem. Phys. 56, 2257 (1972).
                 Note: He and Ne are unpublished basis sets taken from the Gaussian program.
                 Note: Li and B from J. D. Dill and J. A. Pople, J. Chem. Phys. 62, 2921 (1975).
   Na - Ar     : M. M. Francl, W. J. Pietro, W. J. Hehre, J. S. Binkley, M. S. Gordon, 
                 D. J. DeFrees and J. A. Pople, J. Chem. Phys. 77, 3654 (1982).
   K - Zn      : V. A. Rassolov, J. A. Pople, M. A. Ratner, and T. L. Windus, J. Chem. Phys. 109, 1223 (1998).

----- AuxJ basis set information -----
Your calculation utilizes the AutoAux generation procedure.
  G. L. Stoychev, A. A. Auer, F. Neese, J. Chem. Theory Comput. 13, 554 (2017)

----- AuxC basis set information -----
Your calculation utilizes the AutoAux generation procedure.
  G. L. Stoychev, A. A. Auer, F. Neese, J. Chem. Theory Comput. 13, 554 (2017)

----- AuxJK basis set information -----
Your calculation utilizes the AutoAux generation procedure.
  G. L. Stoychev, A. A. Auer, F. Neese, J. Chem. Theory Comput. 13, 554 (2017)

================================================================================
                                        WARNINGS
                       Please study these warnings very carefully!
================================================================================


WARNING: Geometry Optimization
  ===> : Switching off AutoStart
         For restart on a previous wavefunction, please use MOREAD

INFO   : the flag for use of the SHARK integral package has been found!

================================================================================
                                       INPUT FILE
================================================================================
NAME = Nfp_water.inp
|  1> ! OPT FREQ B3LYP 6-31G(d) D4 AUTOAUX CPCM(water)
|  2> 
|  3> %PAL NPROCS 4 END
|  4> 
|  5> %maxcore 3375
|  6> 
|  7> *xyzfile 0 1 /users/fjb15167/WWenergy/structures/Nfp.xyz
|  8> 
|  9>                          ****END OF INPUT****
================================================================================

                       *****************************
                       * Geometry Optimization Run *
                       *****************************

Geometry optimization settings:
Update method            Update   .... BFGS
Choice of coordinates    CoordSys .... Z-matrix Internals
Initial Hessian          InHess   .... Almoef's Model

Convergence Tolerances:
Energy Change            TolE     ....  5.0000e-06 Eh
Max. Gradient            TolMAXG  ....  3.0000e-04 Eh/bohr
RMS Gradient             TolRMSG  ....  1.0000e-04 Eh/bohr
Max. Displacement        TolMAXD  ....  4.0000e-03 bohr
RMS Displacement         TolRMSD  ....  2.0000e-03 bohr
Strict Convergence                ....  False
------------------------------------------------------------------------------
                        ORCA OPTIMIZATION COORDINATE SETUP
------------------------------------------------------------------------------

The optimization will be done in new redundant internal coordinates
Making redundant internal coordinates   ...  (new redundants) done
Evaluating the initial hessian          ...  (Almloef) done
Evaluating the coordinates              ...  done
Calculating the B-matrix                .... done
Calculating the G-matrix                .... done
Diagonalizing the G-matrix              .... done
Small eigenvalue found = 2.875e-03
Small eigenvalue found = 5.228e-03
Small eigenvalue found = 1.052e-02
Small eigenvalue found = 1.267e-02
Small eigenvalue found = 1.464e-02
Small eigenvalue found = 2.125e-02
The first mode is                       ....   89
The number of degrees of freedom        ....  117

    -----------------------------------------------------------------
                    Redundant Internal Coordinates


    -----------------------------------------------------------------
         Definition                    Initial Value    Approx d2E/dq
    -----------------------------------------------------------------
      1. B(H   1,C   0)                  1.0929         0.356308   
      2. B(H   2,C   0)                  1.0943         0.354510   
      3. B(H   3,C   0)                  1.0886         0.362003   
      4. B(C   4,C   0)                  1.5155         0.393980   
      5. B(O   5,C   4)                  1.2395         0.972610   
      6. B(N   6,C   4)                  1.3721         0.597633   
      7. B(C   7,N   6)                  1.4608         0.431512   
      8. B(H   8,C   7)                  1.0956         0.352828   
      9. B(H   9,C   7)                  1.0903         0.359659   
     10. B(C  10,N   6)                  1.4635         0.427122   
     11. B(H  11,C  10)                  1.0946         0.354042   
     12. B(H  12,C  10)                  1.0950         0.353555   
     13. B(C  13,C  10)                  1.5291         0.374852   
     14. B(H  14,C  13)                  1.0916         0.358000   
     15. B(H  15,C  13)                  1.0971         0.350857   
     16. B(C  16,C   7)                  1.5259         0.379294   
     17. B(N  17,C  16)                  1.3640         0.615634   
     18. B(O  18,C  16)                  1.2422         0.963206   
     19. B(C  19,N  17)                  1.4563         0.438689   
     20. B(H  20,C  19)                  1.0971         0.350805   
     21. B(H  21,C  19)                  1.0937         0.355264   
     22. B(H  22,C  19)                  1.0878         0.363047   
     23. B(C  23,N  17)                  1.4565         0.438316   
     24. B(H  24,C  23)                  1.0968         0.351268   
     25. B(H  25,C  23)                  1.0885         0.362064   
     26. B(H  26,C  23)                  1.0933         0.355756   
     27. B(C  27,C  13)                  1.5341         0.367972   
     28. B(H  28,C  27)                  1.0972         0.350661   
     29. B(H  29,C  27)                  1.0974         0.350380   
     30. B(C  30,C  27)                  1.5055         0.408802   
     31. B(C  31,C  30)                  1.4038         0.593839   
     32. B(C  32,C  30)                  1.3987         0.605176   
     33. B(C  33,C  31)                  1.3949         0.613582   
     34. B(H  34,H  24)                  2.7401         0.000161   
     35. B(H  34,C  31)                  1.0902         0.359854   
     36. B(C  35,C  32)                  1.3974         0.608083   
     37. B(H  36,C  32)                  1.0896         0.360644   
     38. B(C  37,C  35)                  1.3961         0.610853   
     39. B(C  37,C  33)                  1.3979         0.606837   
     40. B(H  38,C  33)                  1.0879         0.362875   
     41. B(H  39,C  35)                  1.0873         0.363638   
     42. B(H  40,C  37)                  1.0878         0.362969   
     43. A(H   1,C   0,H   2)          108.0852         0.289645   
     44. A(H   2,C   0,C   4)          110.8826         0.326327   
     45. A(H   1,C   0,C   4)          112.2672         0.326599   
     46. A(H   1,C   0,H   3)          109.5316         0.290597   
     47. A(H   2,C   0,H   3)          108.8838         0.290366   
     48. A(H   3,C   0,C   4)          107.1420         0.327453   
     49. A(C   0,C   4,O   5)          121.0209         0.430982   
     50. A(C   0,C   4,N   6)          116.9438         0.395290   
     51. A(O   5,C   4,N   6)          122.0322         0.461712   
     52. A(C   7,N   6,C  10)          115.9003         0.376389   
     53. A(C   4,N   6,C  10)          124.8043         0.398374   
     54. A(C   4,N   6,C   7)          119.2539         0.399091   
     55. A(H   8,C   7,C  16)          105.4316         0.324042   
     56. A(N   6,C   7,C  16)          111.2875         0.371088   
     57. A(N   6,C   7,H   9)          107.8145         0.330057   
     58. A(H   8,C   7,H   9)          109.0308         0.289854   
     59. A(N   6,C   7,H   8)          109.5302         0.329013   
     60. A(H   9,C   7,C  16)          113.6776         0.325064   
     61. A(H  12,C  10,C  13)          108.9772         0.323525   
     62. A(H  11,C  10,C  13)          111.1197         0.323598   
     63. A(N   6,C  10,C  13)          113.1015         0.369686   
     64. A(H  11,C  10,H  12)          107.0604         0.289233   
     65. A(N   6,C  10,H  11)          109.8007         0.328645   
     66. A(N   6,C  10,H  12)          106.4954         0.328570   
     67. A(H  14,C  13,H  15)          106.6864         0.289390   
     68. A(H  15,C  13,C  27)          109.8992         0.322139   
     69. A(C  10,C  13,H  15)          110.5138         0.323119   
     70. A(C  10,C  13,H  14)          108.8137         0.324189   
     71. A(H  14,C  13,C  27)          108.2757         0.323205   
     72. A(C  10,C  13,C  27)          112.4527         0.362626   
     73. A(N  17,C  16,O  18)          122.4283         0.463400   
     74. A(C   7,C  16,O  18)          119.3897         0.427310   
     75. A(C   7,C  16,N  17)          118.1714         0.394714   
     76. A(C  16,N  17,C  19)          124.7115         0.402348   
     77. A(C  19,N  17,C  23)          115.5896         0.379158   
     78. A(C  16,N  17,C  23)          117.5912         0.402288   
     79. A(H  21,C  19,H  22)          108.7532         0.290594   
     80. A(H  20,C  19,H  22)          108.4628         0.290019   
     81. A(N  17,C  19,H  22)          111.8409         0.331473   
     82. A(H  20,C  19,H  21)          108.3478         0.289035   
     83. A(N  17,C  19,H  21)          108.9333         0.330286   
     84. A(N  17,C  19,H  20)          110.4256         0.329598   
     85. A(H  25,C  23,H  26)          110.0741         0.290534   
     86. A(H  24,C  23,H  26)          109.0488         0.289158   
     87. A(N  17,C  23,H  26)          108.7174         0.330316   
     88. A(H  24,C  23,H  25)          108.9400         0.289955   
     89. A(N  17,C  23,H  25)          108.7626         0.331277   
     90. A(N  17,C  23,H  24)          111.2906         0.329623   
     91. A(H  29,C  27,C  30)          109.1645         0.327685   
     92. A(H  28,C  27,C  30)          110.4745         0.327728   
     93. A(C  13,C  27,C  30)          110.6722         0.368049   
     94. A(H  28,C  27,H  29)          107.0838         0.288391   
     95. A(C  13,C  27,H  29)          108.6937         0.322067   
     96. A(C  13,C  27,H  28)          110.6553         0.322110   
     97. A(C  31,C  30,C  32)          118.8613         0.428849   
     98. A(C  27,C  30,C  32)          121.9821         0.401309   
     99. A(C  27,C  30,C  31)          119.0820         0.399975   
    100. A(C  33,C  31,H  34)          120.3175         0.352247   
    101. A(C  30,C  31,H  34)          119.1006         0.350306   
    102. A(C  30,C  31,C  33)          120.5806         0.429912   
    103. A(C  35,C  32,H  36)          119.7833         0.351842   
    104. A(C  30,C  32,H  36)          119.5214         0.351557   
    105. A(C  30,C  32,C  35)          120.6915         0.430677   
    106. A(C  37,C  33,H  38)          120.0448         0.352087   
    107. A(C  31,C  33,H  38)          119.8516         0.352746   
    108. A(C  31,C  33,C  37)          120.1028         0.431586   
    109. A(C  37,C  35,H  39)          120.0779         0.352605   
    110. A(C  32,C  35,H  39)          119.8795         0.352334   
    111. A(C  32,C  35,C  37)          120.0426         0.431400   
    112. A(C  35,C  37,H  40)          120.0935         0.352495   
    113. A(C  33,C  37,H  40)          120.1862         0.352102   
    114. A(C  33,C  37,C  35)          119.7187         0.431241   
    115. D(N   6,C   4,C   0,H   1)     52.7816         0.011536   
    116. D(O   5,C   4,C   0,H   1)   -127.8410         0.011536   
    117. D(O   5,C   4,C   0,H   2)    111.1451         0.011536   
    118. D(N   6,C   4,C   0,H   2)    -68.2323         0.011536   
    119. D(O   5,C   4,C   0,H   3)     -7.5523         0.011536   
    120. D(N   6,C   4,C   0,H   3)    173.0703         0.011536   
    121. D(C   7,N   6,C   4,C   0)    175.2400         0.028763   
    122. D(C   7,N   6,C   4,O   5)     -4.1306         0.028763   
    123. D(C  10,N   6,C   4,C   0)     -2.3151         0.028763   
    124. D(C  10,N   6,C   4,O   5)    178.3143         0.028763   
    125. D(H   9,C   7,N   6,C  10)    178.0436         0.015875   
    126. D(H   9,C   7,N   6,C   4)      0.2752         0.015875   
    127. D(H   8,C   7,N   6,C  10)     59.5284         0.015875   
    128. D(C  16,C   7,N   6,C   4)    125.5788         0.015875   
    129. D(C  16,C   7,N   6,C  10)    -56.6528         0.015875   
    130. D(H   8,C   7,N   6,C   4)   -118.2400         0.015875   
    131. D(C  13,C  10,N   6,C   7)     91.8810         0.015554   
    132. D(C  13,C  10,N   6,C   4)    -90.4903         0.015554   
    133. D(H  12,C  10,N   6,C   7)    -27.7911         0.015554   
    134. D(H  12,C  10,N   6,C   4)    149.8376         0.015554   
    135. D(H  11,C  10,N   6,C   7)   -143.3740         0.015554   
    136. D(H  11,C  10,N   6,C   4)     34.2547         0.015554   
    137. D(H  15,C  13,C  10,H  12)   -168.5671         0.011216   
    138. D(C  27,C  13,C  10,H  11)     72.3886         0.011216   
    139. D(H  15,C  13,C  10,H  11)    -50.8303         0.011216   
    140. D(H  15,C  13,C  10,N   6)     73.1957         0.011216   
    141. D(H  14,C  13,C  10,H  12)     74.6025         0.011216   
    142. D(C  27,C  13,C  10,N   6)   -163.5855         0.011216   
    143. D(H  14,C  13,C  10,H  11)   -167.6607         0.011216   
    144. D(C  27,C  13,C  10,H  12)    -45.3482         0.011216   
    145. D(H  14,C  13,C  10,N   6)    -43.6348         0.011216   
    146. D(O  18,C  16,C   7,H   9)   -139.6925         0.010738   
    147. D(O  18,C  16,C   7,H   8)    -20.3250         0.010738   
    148. D(O  18,C  16,C   7,N   6)     98.3444         0.010738   
    149. D(N  17,C  16,C   7,H   9)     41.4603         0.010738   
    150. D(N  17,C  16,C   7,H   8)    160.8278         0.010738   
    151. D(N  17,C  16,C   7,N   6)    -80.5028         0.010738   
    152. D(C  23,N  17,C  16,O  18)     -3.2413         0.030656   
    153. D(C  23,N  17,C  16,C   7)    175.5687         0.030656   
    154. D(C  19,N  17,C  16,O  18)   -165.9628         0.030656   
    155. D(C  19,N  17,C  16,C   7)     12.8472         0.030656   
    156. D(H  22,C  19,N  17,C  16)    -20.7003         0.016410   
    157. D(H  21,C  19,N  17,C  23)     56.0278         0.016410   
    158. D(H  21,C  19,N  17,C  16)   -140.9420         0.016410   
    159. D(H  20,C  19,N  17,C  23)    -62.8447         0.016410   
    160. D(H  22,C  19,N  17,C  23)    176.2694         0.016410   
    161. D(H  20,C  19,N  17,C  16)    100.1855         0.016410   
    162. D(H  26,C  23,N  17,C  19)    -45.6811         0.016382   
    163. D(H  26,C  23,N  17,C  16)    150.0254         0.016382   
    164. D(H  25,C  23,N  17,C  19)   -165.5382         0.016382   
    165. D(H  25,C  23,N  17,C  16)     30.1683         0.016382   
    166. D(H  24,C  23,N  17,C  19)     74.4432         0.016382   
    167. D(H  24,C  23,N  17,C  16)    -89.8503         0.016382   
    168. D(C  30,C  27,C  13,H  15)    -70.8284         0.010832   
    169. D(C  30,C  27,C  13,H  14)     45.3476         0.010832   
    170. D(C  30,C  27,C  13,C  10)    165.6095         0.010832   
    171. D(H  29,C  27,C  13,H  15)    169.2985         0.010832   
    172. D(H  29,C  27,C  13,H  14)    -74.5255         0.010832   
    173. D(H  29,C  27,C  13,C  10)     45.7364         0.010832   
    174. D(H  28,C  27,C  13,H  15)     51.9766         0.010832   
    175. D(H  28,C  27,C  13,H  14)    168.1526         0.010832   
    176. D(H  28,C  27,C  13,C  10)    -71.5854         0.010832   
    177. D(C  31,C  30,C  27,C  13)    -74.7789         0.012380   
    178. D(C  32,C  30,C  27,H  29)   -138.3647         0.012380   
    179. D(C  32,C  30,C  27,H  28)    -20.8651         0.012380   
    180. D(C  32,C  30,C  27,C  13)    102.0450         0.012380   
    181. D(C  31,C  30,C  27,H  29)     44.8114         0.012380   
    182. D(C  31,C  30,C  27,H  28)    162.3110         0.012380   
    183. D(H  34,C  31,C  30,C  32)   -179.9138         0.024284   
    184. D(H  34,C  31,C  30,C  27)     -2.9898         0.024284   
    185. D(C  33,C  31,C  30,C  32)      0.5044         0.024284   
    186. D(C  33,C  31,C  30,C  27)    177.4283         0.024284   
    187. D(H  36,C  32,C  30,C  31)   -179.8016         0.025271   
    188. D(H  36,C  32,C  30,C  27)      3.3677         0.025271   
    189. D(C  35,C  32,C  30,C  31)     -0.5208         0.025271   
    190. D(C  35,C  32,C  30,C  27)   -177.3514         0.025271   
    191. D(H  38,C  33,C  31,H  34)     -0.3039         0.026019   
    192. D(H  38,C  33,C  31,C  30)    179.2728         0.026019   
    193. D(C  37,C  33,C  31,H  34)   -179.9554         0.026019   
    194. D(C  37,C  33,C  31,C  30)     -0.3786         0.026019   
    195. D(H  39,C  35,C  32,H  36)     -0.3198         0.025528   
    196. D(H  39,C  35,C  32,C  30)   -179.5988         0.025528   
    197. D(C  37,C  35,C  32,H  36)    179.6906         0.025528   
    198. D(C  37,C  35,C  32,C  30)      0.4116         0.025528   
    199. D(H  40,C  37,C  35,H  39)      0.1992         0.025775   
    200. D(H  40,C  37,C  35,C  32)   -179.8113         0.025775   
    201. D(C  33,C  37,C  35,H  39)    179.7349         0.025775   
    202. D(C  33,C  37,C  35,C  32)     -0.2755         0.025775   
    203. D(H  40,C  37,C  33,H  38)      0.1445         0.025418   
    204. D(H  40,C  37,C  33,C  31)    179.7953         0.025418   
    205. D(C  35,C  37,C  33,H  38)   -179.3908         0.025418   
    206. D(C  35,C  37,C  33,C  31)      0.2599         0.025418   
    -----------------------------------------------------------------

Number of atoms                         .... 41
Number of degrees of freedom            .... 206

         *************************************************************
         *                GEOMETRY OPTIMIZATION CYCLE   1            *
         *************************************************************
---------------------------------
CARTESIAN COORDINATES (ANGSTROEM)
---------------------------------
  C      2.880000   -2.686000   -0.892000
  H      1.841000   -2.823000   -1.202000
  H      3.083000   -3.378000   -0.069000
  H      3.542000   -2.923000   -1.723000
  C      3.173000   -1.257000   -0.481000
  O      4.126000   -0.634000   -0.971000
  N      2.346000   -0.699000    0.461000
  C      2.644000    0.637000    0.971000
  H      2.832000    0.584000    2.049000
  H      3.545000    0.992000    0.470000
  C      1.185000   -1.365000    1.053000
  H      1.383000   -2.437000    1.152000
  H      1.079000   -0.963000    2.066000
  C     -0.110000   -1.113000    0.280000
  H     -0.160000   -0.056000    0.012000
  H     -0.112000   -1.677000   -0.661000
  C      1.447000    1.570000    0.813000
  N      1.230000    2.138000   -0.408000
  O      0.697000    1.769000    1.783000
  C      1.885000    1.727000   -1.642000
  H      1.220000    1.085000   -2.233000
  H      2.119000    2.617000   -2.233000
  H      2.807000    1.183000   -1.449000
  C      0.030000    2.947000   -0.572000
  H     -0.818000    2.338000   -0.908000
  H     -0.219000    3.402000    0.385000
  H      0.229000    3.723000   -1.316000
  C     -1.359000   -1.461000    1.100000
  H     -1.458000   -2.548000    1.212000
  H     -1.246000   -1.042000    2.108000
  C     -2.593000   -0.883000    0.460000
  C     -2.834000    0.496000    0.565000
  C     -3.474000   -1.667000   -0.292000
  C     -3.939000    1.073000   -0.061000
  H     -2.149000    1.111000    1.149000
  C     -4.582000   -1.092000   -0.920000
  H     -3.299000   -2.739000   -0.378000
  C     -4.815000    0.280000   -0.808000
  H     -4.121000    2.141000    0.038000
  H     -5.262000   -1.715000   -1.496000
  H     -5.679000    0.728000   -1.294000

----------------------------
CARTESIAN COORDINATES (A.U.)
----------------------------
  NO LB      ZA    FRAG     MASS         X           Y           Z
   0 C     6.0000    0    12.011    5.442411   -5.075804   -1.685636
   1 H     1.0000    0     1.008    3.478986   -5.334697   -2.271451
   2 H     1.0000    0     1.008    5.826026   -6.383495   -0.130391
   3 H     1.0000    0     1.008    6.693410   -5.523669   -3.255998
   4 C     6.0000    0    12.011    5.996101   -2.375386   -0.908958
   5 O     8.0000    0    15.999    7.797010   -1.198086   -1.834924
   6 N     7.0000    0    14.007    4.433298   -1.320919    0.871164
   7 C     6.0000    0    12.011    4.996436    1.203756    1.834924
   8 H     1.0000    0     1.008    5.351704    1.103600    3.872049
   9 H     1.0000    0     1.008    6.699079    1.874608    0.888171
  10 C     6.0000    0    12.011    2.239325   -2.579476    1.989882
  11 H     1.0000    0     1.008    2.613491   -4.605263    2.176965
  12 H     1.0000    0     1.008    2.039014   -1.819806    3.904174
  13 C     6.0000    0    12.011   -0.207870   -2.103265    0.529123
  14 H     1.0000    0     1.008   -0.302356   -0.105825    0.022677
  15 H     1.0000    0     1.008   -0.211649   -3.169071   -1.249109
  16 C     6.0000    0    12.011    2.734434    2.966870    1.536347
  17 N     7.0000    0    14.007    2.324363    4.040234   -0.771008
  18 O     8.0000    0    15.999    1.317139    3.342926    3.369382
  19 C     6.0000    0    12.011    3.562134    3.263557   -3.102930
  20 H     1.0000    0     1.008    2.305466    2.050353   -4.219758
  21 H     1.0000    0     1.008    4.004330    4.945413   -4.219758
  22 H     1.0000    0     1.008    5.304461    2.235546   -2.738213
  23 C     6.0000    0    12.011    0.056692    5.569023   -1.080923
  24 H     1.0000    0     1.008   -1.545796    4.418180   -1.715871
  25 H     1.0000    0     1.008   -0.413850    6.428848    0.727545
  26 H     1.0000    0     1.008    0.432747    7.035450   -2.486880
  27 C     6.0000    0    12.011   -2.568138   -2.760890    2.078699
  28 H     1.0000    0     1.008   -2.755221   -4.815022    2.290348
  29 H     1.0000    0     1.008   -2.354599   -1.969095    3.983543
  30 C     6.0000    0    12.011   -4.900060   -1.668628    0.869274
  31 C     6.0000    0    12.011   -5.355484    0.937304    1.067695
  32 C     6.0000    0    12.011   -6.564909   -3.150173   -0.551800
  33 C     6.0000    0    12.011   -7.443631    2.027676   -0.115273
  34 H     1.0000    0     1.008   -4.061021    2.099486    2.171295
  35 C     6.0000    0    12.011   -8.658725   -2.063581   -1.738548
  36 H     1.0000    0     1.008   -6.234207   -5.175960   -0.714316
  37 C     6.0000    0    12.011   -9.099031    0.529123   -1.526899
  38 H     1.0000    0     1.008   -7.787561    4.045904    0.071810
  39 H     1.0000    0     1.008   -9.943739   -3.240880   -2.827030
  40 H     1.0000    0     1.008  -10.731755    1.375721   -2.445306

--------------------------------
INTERNAL COORDINATES (ANGSTROEM)
--------------------------------
 C      0   0   0     0.000000000000     0.00000000     0.00000000
 H      1   0   0     1.092881512333     0.00000000     0.00000000
 H      1   2   0     1.094258653153   108.08521166     0.00000000
 H      1   2   3     1.088565110593   109.53158262   118.49642396
 C      1   2   3     1.515523341952   112.26715846   237.39034462
 O      5   1   2     1.239531363056   121.02089056   232.15898185
 N      5   1   2     1.372099486189   116.94382541    52.78161388
 C      7   5   1     1.460753230358   119.25390073   175.23997517
 H      8   7   5     1.095553284875   109.53015465   241.75999047
 H      8   7   5     1.090333435239   107.81453232     0.27520697
 C      7   5   1     1.463537153611   124.80425596   357.68491201
 H     11   7   5     1.094618198277   109.80072121    34.25472847
 H     11   7   5     1.094992694040   106.49543829   149.83762991
 C     11   7   5     1.529070959766   113.10151801   269.50969844
 H     14  11   7     1.091591956731   108.81368491   316.36521448
 H     14  11   7     1.097078392823   110.51379756    73.19566555
 C      8   7   5     1.525864345216   111.28750865   125.57876149
 N     17   8   7     1.364021260831   118.17144450   279.49716252
 O     17   8   7     1.242175913468   119.38966009    98.34435100
 C     18  17   8     1.456263025693   124.71154744    12.84717318
 H     20  18  17     1.097118954353   110.42562231   100.18553891
 H     20  18  17     1.093680483505   108.93327909   219.05800149
 H     20  18  17     1.087781687656   111.84089339   339.29968891
 C     18  17   8     1.456494764838   117.59122936   175.56868851
 H     24  18  17     1.096759317262   111.29063361   270.14968229
 H     24  18  17     1.088519636938   108.76257298    30.16834564
 H     24  18  17     1.093303708948   108.71742588   150.02543134
 C     14  11   7     1.534113750672   112.45274159   196.41452278
 H     28  14  11     1.097230149057   110.65529858   288.41455273
 H     28  14  11     1.097448859856   108.69365228    45.73640475
 C     28  14  11     1.505470026271   110.67215215   165.60949910
 C     31  28  14     1.403832967272   119.08203609   285.22109037
 C     31  28  14     1.398685454275   121.98210181   102.04497288
 C     32  31  28     1.394930105776   120.58056588   177.42834026
 H     32  31  28     1.090186222624   119.10056521   357.01021723
 C     33  31  28     1.397380764144   120.69147146   182.64855671
 H     33  31  28     1.089589372195   119.52138584     3.36772382
 C     36  33  31     1.396143617254   120.04259802     0.41164501
 H     34  32  31     1.087910382339   119.85155876   179.27283681
 H     36  33  31     1.087338493754   119.87946291   180.40123708
 H     38  36  33     1.087840061774   120.09350490   180.18873247

---------------------------
INTERNAL COORDINATES (A.U.)
---------------------------
 C      0   0   0     0.000000000000     0.00000000     0.00000000
 H      1   0   0     2.065246755136     0.00000000     0.00000000
 H      1   2   0     2.067849174133   108.08521166     0.00000000
 H      1   2   3     2.057089937962   109.53158262   118.49642396
 C      1   2   3     2.863924065854   112.26715846   237.39034462
 O      5   1   2     2.342374810582   121.02089056   232.15898185
 N      5   1   2     2.592892257391   116.94382541    52.78161388
 C      7   5   1     2.760423554617   119.25390073   175.23997517
 H      8   7   5     2.070295673531   109.53015465   241.75999047
 H      8   7   5     2.060431587259   107.81453232     0.27520697
 C      7   5   1     2.765684407144   124.80425596   357.68491201
 H     11   7   5     2.068528615951   109.80072121    34.25472847
 H     11   7   5     2.069236310379   106.49543829   149.83762991
 C     11   7   5     2.889525353290   113.10151801   269.50969844
 H     14  11   7     2.062809848213   108.81368491   316.36521448
 H     14  11   7     2.073177709879   110.51379756    73.19566555
 C      8   7   5     2.883465729972   111.28750865   125.57876149
 N     17   8   7     2.577626623817   118.17144450   279.49716252
 O     17   8   7     2.347372286608   119.38966009    98.34435100
 C     18  17   8     2.751938297515   124.71154744    12.84717318
 H     20  18  17     2.073254360061   110.42562231   100.18553891
 H     20  18  17     2.066756591839   108.93327909   219.05800149
 H     20  18  17     2.055609483165   111.84089339   339.29968891
 C     18  17   8     2.752376221034   117.59122936   175.56868851
 H     24  18  17     2.072574744451   111.29063361   270.14968229
 H     24  18  17     2.057004005209   108.76257298    30.16834564
 H     24  18  17     2.066044591113   108.71742588   150.02543134
 C     14  11   7     2.899054847052   112.45274159   196.41452278
 H     28  14  11     2.073464487600   110.65529858   288.41455273
 H     28  14  11     2.073877791113   108.69365228    45.73640475
 C     28  14  11     2.844926052479   110.67215215   165.60949910
 C     31  28  14     2.652859845914   119.08203609   285.22109037
 C     31  28  14     2.643132456079   121.98210181   102.04497288
 C     32  31  28     2.636035875878   120.58056588   177.42834026
 H     32  31  28     2.060153395734   119.10056521   357.01021723
 C     33  31  28     2.640666949042   120.69147146   182.64855671
 H     33  31  28     2.059025511879   119.52138584     3.36772382
 C     36  33  31     2.638329080233   120.04259802     0.41164501
 H     34  32  31     2.055852680869   119.85155876   179.27283681
 H     36  33  31     2.054771968066   119.87946291   180.40123708
 H     38  36  33     2.055719794260   120.09350490   180.18873247

---------------------
BASIS SET INFORMATION
---------------------
There are 4 groups of distinct atoms

 Group   1 Type C   : 10s4p1d contracted to 3s2p1d pattern {631/31/1}
 Group   2 Type H   : 4s contracted to 2s pattern {31}
 Group   3 Type O   : 10s4p1d contracted to 3s2p1d pattern {631/31/1}
 Group   4 Type N   : 10s4p1d contracted to 3s2p1d pattern {631/31/1}

Atom   0C    basis set group =>   1
Atom   1H    basis set group =>   2
Atom   2H    basis set group =>   2
Atom   3H    basis set group =>   2
Atom   4C    basis set group =>   1
Atom   5O    basis set group =>   3
Atom   6N    basis set group =>   4
Atom   7C    basis set group =>   1
Atom   8H    basis set group =>   2
Atom   9H    basis set group =>   2
Atom  10C    basis set group =>   1
Atom  11H    basis set group =>   2
Atom  12H    basis set group =>   2
Atom  13C    basis set group =>   1
Atom  14H    basis set group =>   2
Atom  15H    basis set group =>   2
Atom  16C    basis set group =>   1
Atom  17N    basis set group =>   4
Atom  18O    basis set group =>   3
Atom  19C    basis set group =>   1
Atom  20H    basis set group =>   2
Atom  21H    basis set group =>   2
Atom  22H    basis set group =>   2
Atom  23C    basis set group =>   1
Atom  24H    basis set group =>   2
Atom  25H    basis set group =>   2
Atom  26H    basis set group =>   2
Atom  27C    basis set group =>   1
Atom  28H    basis set group =>   2
Atom  29H    basis set group =>   2
Atom  30C    basis set group =>   1
Atom  31C    basis set group =>   1
Atom  32C    basis set group =>   1
Atom  33C    basis set group =>   1
Atom  34H    basis set group =>   2
Atom  35C    basis set group =>   1
Atom  36H    basis set group =>   2
Atom  37C    basis set group =>   1
Atom  38H    basis set group =>   2
Atom  39H    basis set group =>   2
Atom  40H    basis set group =>   2
---------------------------------
AUXILIARY/J BASIS SET INFORMATION
---------------------------------
There are 4 groups of distinct atoms

 Group   1 Type C   : 13s11p10d2f contracted to 13s11p10d2f pattern {1111111111111/11111111111/1111111111/11}
 Group   2 Type H   : 9s2p contracted to 9s2p pattern {111111111/11}
 Group   3 Type O   : 14s11p10d2f contracted to 14s11p10d2f pattern {11111111111111/11111111111/1111111111/11}
 Group   4 Type N   : 14s11p10d2f contracted to 14s11p10d2f pattern {11111111111111/11111111111/1111111111/11}

Atom   0C    basis set group =>   1
Atom   1H    basis set group =>   2
Atom   2H    basis set group =>   2
Atom   3H    basis set group =>   2
Atom   4C    basis set group =>   1
Atom   5O    basis set group =>   3
Atom   6N    basis set group =>   4
Atom   7C    basis set group =>   1
Atom   8H    basis set group =>   2
Atom   9H    basis set group =>   2
Atom  10C    basis set group =>   1
Atom  11H    basis set group =>   2
Atom  12H    basis set group =>   2
Atom  13C    basis set group =>   1
Atom  14H    basis set group =>   2
Atom  15H    basis set group =>   2
Atom  16C    basis set group =>   1
Atom  17N    basis set group =>   4
Atom  18O    basis set group =>   3
Atom  19C    basis set group =>   1
Atom  20H    basis set group =>   2
Atom  21H    basis set group =>   2
Atom  22H    basis set group =>   2
Atom  23C    basis set group =>   1
Atom  24H    basis set group =>   2
Atom  25H    basis set group =>   2
Atom  26H    basis set group =>   2
Atom  27C    basis set group =>   1
Atom  28H    basis set group =>   2
Atom  29H    basis set group =>   2
Atom  30C    basis set group =>   1
Atom  31C    basis set group =>   1
Atom  32C    basis set group =>   1
Atom  33C    basis set group =>   1
Atom  34H    basis set group =>   2
Atom  35C    basis set group =>   1
Atom  36H    basis set group =>   2
Atom  37C    basis set group =>   1
Atom  38H    basis set group =>   2
Atom  39H    basis set group =>   2
Atom  40H    basis set group =>   2
---------------------------------
AUXILIARY/C BASIS SET INFORMATION
---------------------------------
There are 4 groups of distinct atoms

 Group   1 Type C   : 13s11p10d2f contracted to 13s11p10d2f pattern {1111111111111/11111111111/1111111111/11}
 Group   2 Type H   : 9s2p contracted to 9s2p pattern {111111111/11}
 Group   3 Type O   : 14s11p10d2f contracted to 14s11p10d2f pattern {11111111111111/11111111111/1111111111/11}
 Group   4 Type N   : 14s11p10d2f contracted to 14s11p10d2f pattern {11111111111111/11111111111/1111111111/11}

Atom   0C    basis set group =>   1
Atom   1H    basis set group =>   2
Atom   2H    basis set group =>   2
Atom   3H    basis set group =>   2
Atom   4C    basis set group =>   1
Atom   5O    basis set group =>   3
Atom   6N    basis set group =>   4
Atom   7C    basis set group =>   1
Atom   8H    basis set group =>   2
Atom   9H    basis set group =>   2
Atom  10C    basis set group =>   1
Atom  11H    basis set group =>   2
Atom  12H    basis set group =>   2
Atom  13C    basis set group =>   1
Atom  14H    basis set group =>   2
Atom  15H    basis set group =>   2
Atom  16C    basis set group =>   1
Atom  17N    basis set group =>   4
Atom  18O    basis set group =>   3
Atom  19C    basis set group =>   1
Atom  20H    basis set group =>   2
Atom  21H    basis set group =>   2
Atom  22H    basis set group =>   2
Atom  23C    basis set group =>   1
Atom  24H    basis set group =>   2
Atom  25H    basis set group =>   2
Atom  26H    basis set group =>   2
Atom  27C    basis set group =>   1
Atom  28H    basis set group =>   2
Atom  29H    basis set group =>   2
Atom  30C    basis set group =>   1
Atom  31C    basis set group =>   1
Atom  32C    basis set group =>   1
Atom  33C    basis set group =>   1
Atom  34H    basis set group =>   2
Atom  35C    basis set group =>   1
Atom  36H    basis set group =>   2
Atom  37C    basis set group =>   1
Atom  38H    basis set group =>   2
Atom  39H    basis set group =>   2
Atom  40H    basis set group =>   2
----------------------------------
AUXILIARY/JK BASIS SET INFORMATION
----------------------------------
There are 4 groups of distinct atoms

 Group   1 Type C   : 13s11p10d2f contracted to 13s11p10d2f pattern {1111111111111/11111111111/1111111111/11}
 Group   2 Type H   : 9s2p contracted to 9s2p pattern {111111111/11}
 Group   3 Type O   : 14s11p10d2f contracted to 14s11p10d2f pattern {11111111111111/11111111111/1111111111/11}
 Group   4 Type N   : 14s11p10d2f contracted to 14s11p10d2f pattern {11111111111111/11111111111/1111111111/11}

Atom   0C    basis set group =>   1
Atom   1H    basis set group =>   2
Atom   2H    basis set group =>   2
Atom   3H    basis set group =>   2
Atom   4C    basis set group =>   1
Atom   5O    basis set group =>   3
Atom   6N    basis set group =>   4
Atom   7C    basis set group =>   1
Atom   8H    basis set group =>   2
Atom   9H    basis set group =>   2
Atom  10C    basis set group =>   1
Atom  11H    basis set group =>   2
Atom  12H    basis set group =>   2
Atom  13C    basis set group =>   1
Atom  14H    basis set group =>   2
Atom  15H    basis set group =>   2
Atom  16C    basis set group =>   1
Atom  17N    basis set group =>   4
Atom  18O    basis set group =>   3
Atom  19C    basis set group =>   1
Atom  20H    basis set group =>   2
Atom  21H    basis set group =>   2
Atom  22H    basis set group =>   2
Atom  23C    basis set group =>   1
Atom  24H    basis set group =>   2
Atom  25H    basis set group =>   2
Atom  26H    basis set group =>   2
Atom  27C    basis set group =>   1
Atom  28H    basis set group =>   2
Atom  29H    basis set group =>   2
Atom  30C    basis set group =>   1
Atom  31C    basis set group =>   1
Atom  32C    basis set group =>   1
Atom  33C    basis set group =>   1
Atom  34H    basis set group =>   2
Atom  35C    basis set group =>   1
Atom  36H    basis set group =>   2
Atom  37C    basis set group =>   1
Atom  38H    basis set group =>   2
Atom  39H    basis set group =>   2
Atom  40H    basis set group =>   2


           ************************************************************
           *        Program running with 4 parallel MPI-processes     *
           *              working on a common directory               *
           ************************************************************
------------------------------------------------------------------------------
                           ORCA GTO INTEGRAL CALCULATION
                           -- RI-GTO INTEGRALS CHOSEN --
------------------------------------------------------------------------------
------------------------------------------------------------------------------
                   ___                                                        
                  /   \      - P O W E R E D   B Y -                         
                 /     \                                                     
                 |  |  |   _    _      __       _____    __    __             
                 |  |  |  | |  | |    /  \     |  _  \  |  |  /  |          
                  \  \/   | |  | |   /    \    | | | |  |  | /  /          
                 / \  \   | |__| |  /  /\  \   | |_| |  |  |/  /          
                |  |  |   |  __  | /  /__\  \  |    /   |      \           
                |  |  |   | |  | | |   __   |  |    \   |  |\   \          
                \     /   | |  | | |  |  |  |  | |\  \  |  | \   \       
                 \___/    |_|  |_| |__|  |__|  |_| \__\ |__|  \__/        
                                                                              
                      - O R C A' S   B I G   F R I E N D -                    
                                      &                                       
                       - I N T E G R A L  F E E D E R -                       
                                                                              
 v1 FN, 2020, v2 2021                                                         
------------------------------------------------------------------------------


Reading SHARK input file Nfp_water.SHARKINP.tmp ... ok
----------------------
SHARK INTEGRAL PACKAGE
----------------------

Number of atoms                             ...     41
Number of basis functions                   ...    310
Number of shells                            ...    158
Maximum angular momentum                    ...      2
Integral batch strategy                     ... SHARK/LIBINT Hybrid
RI-J (if used) integral strategy            ... SPLIT-RIJ (Revised 2003 algorithm where possible)
Printlevel                                  ...      1
Contraction scheme used                     ... SEGMENTED contraction
Coulomb Range Separation                    ... NOT USED
Exchange Range Separation                   ... NOT USED
Finite Nucleus Model                        ... NOT USED
Auxiliary Coulomb fitting basis             ... AVAILABLE
   # of basis functions in Aux-J            ...   2424
   # of shells in Aux-J                     ...    930
   Maximum angular momentum in Aux-J        ...      3
Auxiliary J/K fitting basis                 ... AVAILABLE
   # of basis functions in Aux-JK           ...   2424
   # of shells in Aux-JK                    ...    930
   Maximum angular momentum in Aux-JK       ...      3
Auxiliary Correlation fitting basis         ... AVAILABLE
   # of basis functions in Aux-C            ...   2424
   # of shells in Aux-C                     ...    930
   Maximum angular momentum in Aux-C        ...      3
Auxiliary 'external' fitting basis          ... NOT available
Integral threshold                          ...     2.500000e-11
Primitive cut-off                           ...     2.500000e-12
Primitive pair pre-selection threshold      ...     2.500000e-12

Calculating pre-screening integrals         ... done (  0.1 sec) Dimension = 158
Organizing shell pair data                  ... done (  0.8 sec)
Shell pair information
Total number of shell pairs                 ...     12561
Shell pairs after pre-screening             ...      9842
Total number of primitive shell pairs       ...     70216
Primitive shell pairs kept                  ...     30690
          la=0 lb=0:   3892 shell pairs
          la=1 lb=0:   3228 shell pairs
          la=1 lb=1:    674 shell pairs
          la=2 lb=0:   1342 shell pairs
          la=2 lb=1:    584 shell pairs
          la=2 lb=2:    122 shell pairs

Calculating one electron integrals          ... done (  0.0 sec)
Calculating RI/J V-Matrix + Cholesky decomp.... done (  0.4 sec)
Calculating RI/JK V-Matrix + Cholesky decomp... done (  0.4 sec)
Calculating RI/C V-Matrix + Cholesky decomp.... done (  0.4 sec)
Calculating Nuclear repulsion               ... done (  0.0 sec) ENN=   1484.343940768778 Eh

SHARK setup successfully completed in   2.6 seconds

Maximum memory used throughout the entire GTOINT-calculation: 49.3 MB


           ************************************************************
           *        Program running with 4 parallel MPI-processes     *
           *              working on a common directory               *
           ************************************************************
-------------------------------------------------------------------------------
                                 ORCA SCF
-------------------------------------------------------------------------------

------------
SCF SETTINGS
------------
Hamiltonian:
 Density Functional     Method          .... DFT(GTOs)
 Exchange Functional    Exchange        .... B88
   X-Alpha parameter    XAlpha          ....  0.666667
   Becke's b parameter  XBeta           ....  0.004200
 Correlation Functional Correlation     .... LYP
 LDA part of GGA corr.  LDAOpt          .... VWN-5
 Gradients option       PostSCFGGA      .... off
 Hybrid DFT is turned on
   Fraction HF Exchange ScalHFX         ....  0.200000
   Scaling of DF-GGA-X  ScalDFX         ....  0.720000
   Scaling of DF-GGA-C  ScalDFC         ....  0.810000
   Scaling of DF-LDA-C  ScalLDAC        ....  1.000000
   Perturbative correction              ....  0.000000
   Density functional embedding theory  .... OFF
   NL short-range parameter             ....  4.800000
 RI-approximation to the Coulomb term is turned on
   Number of AuxJ basis functions       .... 2424
   RIJ-COSX (HFX calculated with COS-X)).... on


General Settings:
 Integral files         IntName         .... Nfp_water
 Hartree-Fock type      HFTyp           .... RHF
 Total Charge           Charge          ....    0
 Multiplicity           Mult            ....    1
 Number of Electrons    NEL             ....  142
 Basis Dimension        Dim             ....  310
 Nuclear Repulsion      ENuc            ....   1484.3439407688 Eh

Convergence Acceleration:
 DIIS                   CNVDIIS         .... on
   Start iteration      DIISMaxIt       ....    12
   Startup error        DIISStart       ....  0.200000
   # of expansion vecs  DIISMaxEq       ....     5
   Bias factor          DIISBfac        ....   1.050
   Max. coefficient     DIISMaxC        ....  10.000
 Trust-Rad. Augm. Hess. CNVTRAH         .... auto
   Auto Start mean grad. ratio tolernc. ....  1.125000
   Auto Start start iteration           ....    20
   Auto Start num. interpolation iter.  ....    10
   Max. Number of Micro iterations      ....    16
   Max. Number of Macro iterations      .... Maxiter - #DIIS iter
   Number of Davidson start vectors     ....     2
   Converg. threshold I  (grad. norm)   ....   1.000e-05
   Converg. threshold II (energy diff.) ....   1.000e-08
   Grad. Scal. Fac. for Micro threshold ....   0.100
   Minimum threshold for Micro iter.    ....   0.010
   NR start threshold (gradient norm)   ....   0.001
   Initial trust radius                 ....   0.400
   Minimum AH scaling param. (alpha)    ....   1.000
   Maximum AH scaling param. (alpha)    .... 1000.000
   Orbital update algorithm             .... Taylor
   White noise on init. David. guess    .... on
   Maximum white noise                  ....   0.010
   Quad. conv. algorithm                .... NR
 SOSCF                  CNVSOSCF        .... on
   Start iteration      SOSCFMaxIt      ....   150
   Startup grad/error   SOSCFStart      ....  0.003300
 Level Shifting         CNVShift        .... on
   Level shift para.    LevelShift      ....    0.2500
   Turn off err/grad.   ShiftErr        ....    0.0010
 Zerner damping         CNVZerner       .... off
 Static damping         CNVDamp         .... on
   Fraction old density DampFac         ....    0.7000
   Max. Damping (<1)    DampMax         ....    0.9800
   Min. Damping (>=0)   DampMin         ....    0.0000
   Turn off err/grad.   DampErr         ....    0.1000
 Fernandez-Rico         CNVRico         .... off

SCF Procedure:
 Maximum # iterations   MaxIter         ....   125
 SCF integral mode      SCFMode         .... Direct
   Integral package                     .... SHARK and LIBINT hybrid scheme
 Reset frequency        DirectResetFreq ....    20
 Integral Threshold     Thresh          ....  2.500e-11 Eh
 Primitive CutOff       TCut            ....  2.500e-12 Eh

Convergence Tolerance:
 Convergence Check Mode ConvCheckMode   .... Total+1el-Energy
 Convergence forced     ConvForced      .... 0
 Energy Change          TolE            ....  1.000e-08 Eh
 1-El. energy change                    ....  1.000e-05 Eh
 Orbital Gradient       TolG            ....  1.000e-05
 Orbital Rotation angle TolX            ....  1.000e-05
 DIIS Error             TolErr          ....  5.000e-07


Diagonalization of the overlap matrix:
Smallest eigenvalue                        ... 4.776e-04
Time for diagonalization                   ...    0.016 sec
Threshold for overlap eigenvalues          ... 1.000e-08
Number of eigenvalues below threshold      ... 0
Time for construction of square roots      ...    0.008 sec
Total time needed                          ...    0.025 sec

Time for model grid setup =    0.428 sec

------------------------------
INITIAL GUESS: MODEL POTENTIAL
------------------------------
Loading Hartree-Fock densities                     ... done
Calculating cut-offs                               ... done
Initializing the effective Hamiltonian             ... done
Setting up the integral package (SHARK)            ... done
Starting the Coulomb interaction                   ... done (   0.3 sec)
Reading the grid                                   ... done
Mapping shells                                     ... done
Starting the XC term evaluation                    ... done (   0.2 sec)
  promolecular density results
     # of electrons  =    141.985489876
     EX              =   -113.225750626
     EC              =     -4.768849756
     EX+EC           =   -117.994600382
Transforming the Hamiltonian                       ... done (   0.0 sec)
Diagonalizing the Hamiltonian                      ... done (   0.0 sec)
Back transforming the eigenvectors                 ... done (   0.0 sec)
Now organizing SCF variables                       ... done
                      ------------------
                      INITIAL GUESS DONE (   1.0 sec)
                      ------------------
-------------------
DFT GRID GENERATION
-------------------

General Integration Accuracy     IntAcc      ... 4.388
Radial Grid Type                 RadialGrid  ... OptM3 with GC (2021)
Angular Grid (max. ang.)         AngularGrid ... 4 (Lebedev-302)
Angular grid pruning method      GridPruning ... 4 (adaptive)
Weight generation scheme         WeightScheme... Becke
Basis function cutoff            BFCut       ... 1.0000e-11
Integration weight cutoff        WCut        ... 1.0000e-14
Angular grids for H and He will be reduced by one unit
Partially contracted basis set               ... off
Rotationally invariant grid construction     ... off

Total number of grid points                  ...   182996
Total number of batches                      ...     2880
Average number of points per batch           ...       63
Average number of grid points per atom       ...     4463
Time for grid setup =    1.764 sec

--------------------
COSX GRID GENERATION
--------------------

GRIDX 1
-------
General Integration Accuracy     IntAcc      ... 3.816
Radial Grid Type                 RadialGrid  ... OptM3 with GC (2021)
Angular Grid (max. ang.)         AngularGrid ... 1 (Lebedev-50)
Angular grid pruning method      GridPruning ... 4 (adaptive)
Weight generation scheme         WeightScheme... Becke
Basis function cutoff            BFCut       ... 1.0000e-11
Integration weight cutoff        WCut        ... 1.0000e-14
Angular grids for H and He will be reduced by one unit
Partially contracted basis set               ... on
Rotationally invariant grid construction     ... off

Total number of grid points                  ...    23264
Total number of batches                      ...      384
Average number of points per batch           ...       60
Average number of grid points per atom       ...      567
UseSFitting                                  ... on

GRIDX 2
-------
General Integration Accuracy     IntAcc      ... 4.020
Radial Grid Type                 RadialGrid  ... OptM3 with GC (2021)
Angular Grid (max. ang.)         AngularGrid ... 2 (Lebedev-110)
Angular grid pruning method      GridPruning ... 4 (adaptive)
Weight generation scheme         WeightScheme... Becke
Basis function cutoff            BFCut       ... 1.0000e-11
Integration weight cutoff        WCut        ... 1.0000e-14
Angular grids for H and He will be reduced by one unit
Partially contracted basis set               ... on
Rotationally invariant grid construction     ... off

Total number of grid points                  ...    49302
Total number of batches                      ...      788
Average number of points per batch           ...       62
Average number of grid points per atom       ...     1202
UseSFitting                                  ... on

GRIDX 3
-------
General Integration Accuracy     IntAcc      ... 4.338
Radial Grid Type                 RadialGrid  ... OptM3 with GC (2021)
Angular Grid (max. ang.)         AngularGrid ... 3 (Lebedev-194)
Angular grid pruning method      GridPruning ... 4 (adaptive)
Weight generation scheme         WeightScheme... Becke
Basis function cutoff            BFCut       ... 1.0000e-11
Integration weight cutoff        WCut        ... 1.0000e-14
Angular grids for H and He will be reduced by one unit
Partially contracted basis set               ... on
Rotationally invariant grid construction     ... off

Total number of grid points                  ...   107267
Total number of batches                      ...     1700
Average number of points per batch           ...       63
Average number of grid points per atom       ...     2616
UseSFitting                                  ... on

Time for X-Grid setup             =    2.400 sec


--------------------
CPCM SOLVATION MODEL
--------------------
CPCM parameters:
  Epsilon                                         ...      80.4000
  Refrac                                          ...       1.3300
  Rsolv                                           ...       1.3000
  Surface type                                    ... GAUSSIAN VDW
  Epsilon function type                           ...         CPCM
Radii:
 Radius for C  used is    3.8550 Bohr (=   2.0400 Ang.)
 Radius for H  used is    2.4944 Bohr (=   1.3200 Ang.)
 Radius for O  used is    3.4469 Bohr (=   1.8240 Ang.)
 Radius for N  used is    3.5149 Bohr (=   1.8600 Ang.)
Calculating surface                               ...        done! (  0.0s)
GEPOL surface points                              ...         2132
GEPOL Volume                                      ...    2276.7350
GEPOL Surface-area                                ...    1165.8870
Calculating surface distance matrix               ...        done! (  0.0s)
Performing Cholesky decomposition & store         ...        done! (  0.2s)
Overall time for CPCM initialization              ...                 0.2s
--------------
SCF ITERATIONS
--------------
ITER       Energy         Delta-E        Max-DP      RMS-DP      [F,P]     Damp
               ***  Starting incremental Fock matrix formation  ***
  0   -843.7840045012   0.000000000000 0.09493643  0.00176802  0.2723059 0.7000
  1   -844.0210761548  -0.237071653529 0.05377115  0.00121209  0.1095672 0.7000
                               ***Turning on DIIS***
  2   -844.1168234168  -0.095747262053 0.06330289  0.00196138  0.0376817 0.0000
  3   -844.2664958002  -0.149672383374 0.03709679  0.00083022  0.0531931 0.0000
  4   -844.2979015289  -0.031405728674 0.00904872  0.00027459  0.0106914 0.0000
  5   -844.2999798651  -0.002078336185 0.00427164  0.00008638  0.0066267 0.0000
                      *** Initiating the SOSCF procedure ***
                           *** Shutting down DIIS ***
                      *** Re-Reading the Fockian *** 
                      *** Removing any level shift *** 
ITER      Energy       Delta-E        Grad      Rot      Max-DP    RMS-DP
  6   -844.30014609  -0.0001662270  0.000288  0.000288  0.001413  0.000038
               *** Restarting incremental Fock matrix formation ***
  7   -844.30022470  -0.0000786043  0.000275  0.001099  0.001940  0.000024
  8   -844.30021716   0.0000075359  0.000527  0.000771  0.001262  0.000015
  9   -844.30022891  -0.0000117521  0.000062  0.000166  0.000391  0.000005
 10   -844.30022849   0.0000004269  0.000120  0.000109  0.000266  0.000003
 11   -844.30022906  -0.0000005784  0.000004  0.000007  0.000025  0.000001
 12   -844.30022907  -0.0000000018  0.000004  0.000004  0.000014  0.000000
                  ***Gradient check signals convergence***
              ***Rediagonalizing the Fockian in SOSCF/NRSCF***

               *****************************************************
               *                     SUCCESS                       *
               *           SCF CONVERGED AFTER  13 CYCLES          *
               *****************************************************

Old exchange energy                            =    -23.085094090 Eh
New exchange energy                            =    -23.085103469 Eh
Exchange energy change after final integration =     -0.000009379 Eh
Total energy after final integration           =   -844.300238435 Eh
Final COS-X integration done in                =    16.595 sec

----------------
TOTAL SCF ENERGY
----------------

Total Energy       :         -844.30023844 Eh          -22974.57749 eV

Components:
Nuclear Repulsion  :         1484.34394077 Eh           40391.05207 eV
Electronic Energy  :        -2328.64417920 Eh          -63365.62956 eV
One Electron Energy:        -4095.00517321 Eh         -111430.75579 eV
Two Electron Energy:         1766.36099401 Eh           48065.12623 eV
Max COSX asymmetry :            0.00000308 Eh               0.00008 eV
CPCM Dielectric    :           -0.02073132 Eh              -0.56413 eV

Virial components:
Potential Energy   :        -1683.65767655 Eh          -45814.65455 eV
Kinetic Energy     :          839.35743812 Eh           22840.07706 eV
Virial Ratio       :            2.00588879


DFT components:
N(Alpha)           :       71.000070446976 electrons
N(Beta)            :       71.000070446976 electrons
N(Total)           :      142.000140893952 electrons
E(X)               :      -91.628165962099 Eh       
E(C)               :       -5.621026649117 Eh       
E(XC)              :      -97.249192611215 Eh       
DFET-embed. en.    :        0.000000000000 Eh       
CPCM Solvation Model Properties:
Surface-charge          :           -0.02382138
Charge-correction       :           -0.00020966 Eh              -0.00571 eV
Free-energy (cav+disp)  :  This term is not implemented in the current solvation scheme

---------------
SCF CONVERGENCE
---------------

  Last Energy change         ...    9.4493e-09  Tolerance :   1.0000e-08
  Last MAX-Density change    ...    3.1086e-15  Tolerance :   1.0000e-07
  Last RMS-Density change    ...    4.1464e-17  Tolerance :   5.0000e-09
  Last Orbital Gradient      ...    3.4879e-07  Tolerance :   1.0000e-05
  Last Orbital Rotation      ...    1.2566e-06  Tolerance :   1.0000e-05

             **** THE GBW FILE WAS UPDATED (Nfp_water.gbw) ****
             **** DENSITY Nfp_water.scfp WAS UPDATED ****
             **** ENERGY FILE WAS UPDATED (Nfp_water.en.tmp) ****
             **** THE GBW FILE WAS UPDATED (Nfp_water.gbw) ****
             **** DENSITY Nfp_water.scfp WAS UPDATED ****
----------------
ORBITAL ENERGIES
----------------

  NO   OCC          E(Eh)            E(eV) 
   0   2.0000     -19.110218      -520.0155 
   1   2.0000     -19.110197      -520.0149 
   2   2.0000     -14.360064      -390.7572 
   3   2.0000     -14.359304      -390.7365 
   4   2.0000     -10.283922      -279.8397 
   5   2.0000     -10.280059      -279.7346 
   6   2.0000     -10.210721      -277.8479 
   7   2.0000     -10.207515      -277.7606 
   8   2.0000     -10.197714      -277.4939 
   9   2.0000     -10.194496      -277.4063 
  10   2.0000     -10.182878      -277.0902 
  11   2.0000     -10.176545      -276.9179 
  12   2.0000     -10.176259      -276.9101 
  13   2.0000     -10.174683      -276.8672 
  14   2.0000     -10.173935      -276.8469 
  15   2.0000     -10.173221      -276.8274 
  16   2.0000     -10.171794      -276.7886 
  17   2.0000     -10.171657      -276.7849 
  18   2.0000     -10.170273      -276.7472 
  19   2.0000      -1.032442       -28.0942 
  20   2.0000      -1.025367       -27.9017 
  21   2.0000      -0.934020       -25.4160 
  22   2.0000      -0.927260       -25.2320 
  23   2.0000      -0.848669       -23.0935 
  24   2.0000      -0.791780       -21.5454 
  25   2.0000      -0.759743       -20.6737 
  26   2.0000      -0.740644       -20.1539 
  27   2.0000      -0.735227       -20.0065 
  28   2.0000      -0.718045       -19.5390 
  29   2.0000      -0.706418       -19.2226 
  30   2.0000      -0.678497       -18.4628 
  31   2.0000      -0.666953       -18.1487 
  32   2.0000      -0.610641       -16.6164 
  33   2.0000      -0.595951       -16.2166 
  34   2.0000      -0.568366       -15.4660 
  35   2.0000      -0.550666       -14.9844 
  36   2.0000      -0.536522       -14.5995 
  37   2.0000      -0.512022       -13.9328 
  38   2.0000      -0.500146       -13.6097 
  39   2.0000      -0.485572       -13.2131 
  40   2.0000      -0.479012       -13.0346 
  41   2.0000      -0.464184       -12.6311 
  42   2.0000      -0.459166       -12.4945 
  43   2.0000      -0.456013       -12.4088 
  44   2.0000      -0.448112       -12.1938 
  45   2.0000      -0.444034       -12.0828 
  46   2.0000      -0.428466       -11.6592 
  47   2.0000      -0.416656       -11.3378 
  48   2.0000      -0.409947       -11.1552 
  49   2.0000      -0.406033       -11.0487 
  50   2.0000      -0.402923       -10.9641 
  51   2.0000      -0.400257       -10.8916 
  52   2.0000      -0.395181       -10.7534 
  53   2.0000      -0.394289       -10.7291 
  54   2.0000      -0.389710       -10.6046 
  55   2.0000      -0.379055       -10.3146 
  56   2.0000      -0.373381       -10.1602 
  57   2.0000      -0.369845       -10.0640 
  58   2.0000      -0.364500        -9.9185 
  59   2.0000      -0.359138        -9.7726 
  60   2.0000      -0.346697        -9.4341 
  61   2.0000      -0.340859        -9.2752 
  62   2.0000      -0.334160        -9.0930 
  63   2.0000      -0.325486        -8.8569 
  64   2.0000      -0.322063        -8.7638 
  65   2.0000      -0.260549        -7.0899 
  66   2.0000      -0.253012        -6.8848 
  67   2.0000      -0.245042        -6.6679 
  68   2.0000      -0.241566        -6.5734 
  69   2.0000      -0.236828        -6.4444 
  70   2.0000      -0.229290        -6.2393 
  71   0.0000       0.002745         0.0747 
  72   0.0000       0.006766         0.1841 
  73   0.0000       0.012946         0.3523 
  74   0.0000       0.028095         0.7645 
  75   0.0000       0.090526         2.4634 
  76   0.0000       0.101938         2.7739 
  77   0.0000       0.104982         2.8567 
  78   0.0000       0.119224         3.2443 
  79   0.0000       0.128825         3.5055 
  80   0.0000       0.136368         3.7108 
  81   0.0000       0.145972         3.9721 
  82   0.0000       0.148942         4.0529 
  83   0.0000       0.153095         4.1659 
  84   0.0000       0.154944         4.2163 
  85   0.0000       0.160541         4.3685 
  86   0.0000       0.168310         4.5800 
  87   0.0000       0.172431         4.6921 
  88   0.0000       0.176059         4.7908 
  89   0.0000       0.179197         4.8762 
  90   0.0000       0.184170         5.0115 
  91   0.0000       0.189416         5.1543 
  92   0.0000       0.193520         5.2659 
  93   0.0000       0.194215         5.2849 
  94   0.0000       0.198641         5.4053 
  95   0.0000       0.203487         5.5372 
  96   0.0000       0.208508         5.6738 
  97   0.0000       0.223720         6.0877 
  98   0.0000       0.227710         6.1963 
  99   0.0000       0.234039         6.3685 
 100   0.0000       0.238739         6.4964 
 101   0.0000       0.245551         6.6818 
 102   0.0000       0.254818         6.9339 
 103   0.0000       0.266388         7.2488 
 104   0.0000       0.275556         7.4983 
 105   0.0000       0.285621         7.7722 
 106   0.0000       0.296086         8.0569 
 107   0.0000       0.315861         8.5950 
 108   0.0000       0.332527         9.0485 
 109   0.0000       0.340919         9.2769 
 110   0.0000       0.346557         9.4303 
 111   0.0000       0.358244         9.7483 
 112   0.0000       0.372577        10.1383 
 113   0.0000       0.381799        10.3893 
 114   0.0000       0.421075        11.4580 
 115   0.0000       0.470391        12.8000 
 116   0.0000       0.478227        13.0132 
 117   0.0000       0.497535        13.5386 
 118   0.0000       0.512217        13.9381 
 119   0.0000       0.518732        14.1154 
 120   0.0000       0.522759        14.2250 
 121   0.0000       0.530127        14.4255 
 122   0.0000       0.536393        14.5960 
 123   0.0000       0.543680        14.7943 
 124   0.0000       0.547368        14.8946 
 125   0.0000       0.562286        15.3006 
 126   0.0000       0.572032        15.5658 
 127   0.0000       0.577516        15.7150 
 128   0.0000       0.578103        15.7310 
 129   0.0000       0.598259        16.2795 
 130   0.0000       0.602526        16.3956 
 131   0.0000       0.604520        16.4498 
 132   0.0000       0.606794        16.5117 
 133   0.0000       0.614518        16.7219 
 134   0.0000       0.618429        16.8283 
 135   0.0000       0.621745        16.9186 
 136   0.0000       0.627465        17.0742 
 137   0.0000       0.638871        17.3846 
 138   0.0000       0.642830        17.4923 
 139   0.0000       0.646817        17.6008 
 140   0.0000       0.655785        17.8448 
 141   0.0000       0.667550        18.1650 
 142   0.0000       0.668447        18.1894 
 143   0.0000       0.682594        18.5743 
 144   0.0000       0.688270        18.7288 
 145   0.0000       0.703993        19.1566 
 146   0.0000       0.721836        19.6422 
 147   0.0000       0.728532        19.8244 
 148   0.0000       0.739449        20.1214 
 149   0.0000       0.753035        20.4911 
 150   0.0000       0.769032        20.9264 
 151   0.0000       0.776123        21.1194 
 152   0.0000       0.790442        21.5090 
 153   0.0000       0.805980        21.9318 
 154   0.0000       0.813241        22.1294 
 155   0.0000       0.823335        22.4041 
 156   0.0000       0.830289        22.5933 
 157   0.0000       0.832093        22.6424 
 158   0.0000       0.844464        22.9790 
 159   0.0000       0.847468        23.0608 
 160   0.0000       0.852766        23.2049 
 161   0.0000       0.857092        23.3226 
 162   0.0000       0.867091        23.5947 
 163   0.0000       0.872809        23.7503 
 164   0.0000       0.878954        23.9175 
 165   0.0000       0.883454        24.0400 
 166   0.0000       0.894483        24.3401 
 167   0.0000       0.903840        24.5947 
 168   0.0000       0.915746        24.9187 
 169   0.0000       0.920329        25.0434 
 170   0.0000       0.930393        25.3173 
 171   0.0000       0.936180        25.4748 
 172   0.0000       0.940422        25.5902 
 173   0.0000       0.947094        25.7717 
 174   0.0000       0.954015        25.9601 
 175   0.0000       0.955061        25.9885 
 176   0.0000       0.960238        26.1294 
 177   0.0000       0.965841        26.2819 
 178   0.0000       0.985081        26.8054 
 179   0.0000       0.996050        27.1039 
 180   0.0000       1.003253        27.2999 
 181   0.0000       1.017173        27.6787 
 182   0.0000       1.023408        27.8483 
 183   0.0000       1.025538        27.9063 
 184   0.0000       1.039441        28.2846 
 185   0.0000       1.051565        28.6145 
 186   0.0000       1.055387        28.7185 
 187   0.0000       1.075851        29.2754 
 188   0.0000       1.093668        29.7602 
 189   0.0000       1.110682        30.2232 
 190   0.0000       1.127954        30.6932 
 191   0.0000       1.136045        30.9134 
 192   0.0000       1.145511        31.1709 
 193   0.0000       1.157174        31.4883 
 194   0.0000       1.183426        32.2027 
 195   0.0000       1.197238        32.5785 
 196   0.0000       1.233831        33.5743 
 197   0.0000       1.236975        33.6598 
 198   0.0000       1.269087        34.5336 
 199   0.0000       1.272431        34.6246 
 200   0.0000       1.287104        35.0239 
 201   0.0000       1.297007        35.2934 
 202   0.0000       1.337460        36.3941 
 203   0.0000       1.358513        36.9670 
 204   0.0000       1.379953        37.5504 
 205   0.0000       1.384071        37.6625 
 206   0.0000       1.411670        38.4135 
 207   0.0000       1.424388        38.7596 
 208   0.0000       1.432702        38.9858 
 209   0.0000       1.442306        39.2471 
 210   0.0000       1.443701        39.2851 
 211   0.0000       1.458303        39.6824 
 212   0.0000       1.476092        40.1665 
 213   0.0000       1.484630        40.3988 
 214   0.0000       1.489743        40.5380 
 215   0.0000       1.497230        40.7417 
 216   0.0000       1.508966        41.0611 
 217   0.0000       1.521620        41.4054 
 218   0.0000       1.526826        41.5470 
 219   0.0000       1.566111        42.6161 
 220   0.0000       1.575053        42.8594 
 221   0.0000       1.638043        44.5734 
 222   0.0000       1.661693        45.2170 
 223   0.0000       1.714643        46.6578 
 224   0.0000       1.718718        46.7687 
 225   0.0000       1.746345        47.5205 
 226   0.0000       1.760837        47.9148 
 227   0.0000       1.782564        48.5060 
 228   0.0000       1.802567        49.0503 
 229   0.0000       1.811853        49.3030 
 230   0.0000       1.813997        49.3614 
 231   0.0000       1.827872        49.7389 
 232   0.0000       1.834691        49.9245 
 233   0.0000       1.849096        50.3165 
 234   0.0000       1.860869        50.6368 
 235   0.0000       1.871808        50.9345 
 236   0.0000       1.881644        51.2021 
 237   0.0000       1.900597        51.7179 
 238   0.0000       1.905916        51.8626 
 239   0.0000       1.922003        52.3004 
 240   0.0000       1.936993        52.7082 
 241   0.0000       1.946694        52.9722 
 242   0.0000       1.956207        53.2311 
 243   0.0000       1.957708        53.2720 
 244   0.0000       1.970358        53.6162 
 245   0.0000       1.977934        53.8223 
 246   0.0000       1.985699        54.0336 
 247   0.0000       1.994322        54.2683 
 248   0.0000       2.005248        54.5656 
 249   0.0000       2.025470        55.1158 
 250   0.0000       2.032869        55.3172 
 251   0.0000       2.057058        55.9754 
 252   0.0000       2.067500        56.2595 
 253   0.0000       2.068428        56.2848 
 254   0.0000       2.076154        56.4950 
 255   0.0000       2.092102        56.9290 
 256   0.0000       2.097539        57.0769 
 257   0.0000       2.104572        57.2683 
 258   0.0000       2.117292        57.6145 
 259   0.0000       2.144223        58.3473 
 260   0.0000       2.148961        58.4762 
 261   0.0000       2.161494        58.8172 
 262   0.0000       2.181083        59.3503 
 263   0.0000       2.195645        59.7465 
 264   0.0000       2.204871        59.9976 
 265   0.0000       2.233748        60.7834 
 266   0.0000       2.244063        61.0640 
 267   0.0000       2.263032        61.5802 
 268   0.0000       2.271834        61.8198 
 269   0.0000       2.286407        62.2163 
 270   0.0000       2.292074        62.3705 
 271   0.0000       2.313762        62.9607 
 272   0.0000       2.316339        63.0308 
 273   0.0000       2.336497        63.5793 
 274   0.0000       2.358604        64.1809 
 275   0.0000       2.367845        64.4323 
 276   0.0000       2.379536        64.7505 
 277   0.0000       2.402454        65.3741 
 278   0.0000       2.411378        65.6169 
 279   0.0000       2.420430        65.8632 
 280   0.0000       2.427465        66.0547 
 281   0.0000       2.466397        67.1141 
 282   0.0000       2.503165        68.1146 
 283   0.0000       2.537592        69.0514 
 284   0.0000       2.555738        69.5452 
 285   0.0000       2.568363        69.8887 
 286   0.0000       2.588654        70.4409 
 287   0.0000       2.606440        70.9248 
 288   0.0000       2.615496        71.1713 
 289   0.0000       2.628823        71.5339 
 290   0.0000       2.645187        71.9792 
 291   0.0000       2.667446        72.5849 
 292   0.0000       2.681445        72.9658 
 293   0.0000       2.699881        73.4675 
 294   0.0000       2.716080        73.9083 
 295   0.0000       2.732613        74.3582 
 296   0.0000       2.748750        74.7973 
 297   0.0000       2.752671        74.9040 
 298   0.0000       2.755810        74.9894 
 299   0.0000       2.774863        75.5079 
[...]
 10:     62.91   0.000781    3.94  0.003872  (-0.039606 -0.028907 -0.038309)
 11:     74.86   0.000392    1.98  0.001632  (-0.011225  0.038611  0.003926)
 12:     83.48   0.000251    1.27  0.000939  (-0.002578 -0.027851 -0.012514)
 13:     99.22   0.000476    2.41  0.001498  (-0.001180 -0.036920 -0.011563)
 14:    113.87   0.003035   15.34  0.008318  (-0.044880  0.062467 -0.049002)
 15:    137.42   0.000922    4.66  0.002094  (-0.003244  0.045482  0.003817)
 16:    150.67   0.000207    1.05  0.000429  (-0.017060  0.002151 -0.011526)
 17:    166.23   0.000202    1.02  0.000379  (-0.007953  0.016128  0.007427)
 18:    170.88   0.000116    0.58  0.000211  (-0.002701 -0.010348 -0.009837)
 19:    212.24   0.000043    0.22  0.000063  (-0.004424 -0.005013 -0.004235)
 20:    217.07   0.000511    2.58  0.000735  ( 0.020353  0.017689 -0.002736)
 21:    266.08   0.002540   12.83  0.002979  ( 0.022032  0.049882 -0.002230)
 22:    275.47   0.001290    6.52  0.001461  (-0.003690 -0.031718  0.021015)
 23:    291.53   0.000384    1.94  0.000412  (-0.014241  0.012653  0.006975)
 24:    341.28   0.000218    1.10  0.000199  ( 0.002438 -0.011511 -0.007803)
 25:    352.03   0.002874   14.52  0.002548  ( 0.011910 -0.013406  0.047183)
 26:    386.52   0.001773    8.96  0.001432  ( 0.026032 -0.014162  0.023523)
 27:    416.99   0.000041    0.21  0.000031  (-0.001736  0.005040 -0.001531)
 28:    420.15   0.001995   10.08  0.001482  (-0.026890  0.025934 -0.009273)
 29:    431.91   0.000089    0.45  0.000064  (-0.002977  0.007405 -0.000703)
 30:    460.23   0.002801   14.15  0.001899  (-0.039862 -0.002512  0.017430)
 31:    493.14   0.004814   24.33  0.003046  (-0.024109 -0.046157 -0.018289)
 32:    519.69   0.003471   17.54  0.002084  ( 0.036627 -0.004004 -0.026960)
 33:    579.56   0.003412   17.24  0.001837  (-0.025472  0.032058 -0.012669)
 34:    586.90   0.000546    2.76  0.000291  (-0.015596 -0.000345  0.006872)
 35:    601.91   0.002358   11.91  0.001222  ( 0.032485 -0.012921 -0.000202)
 36:    633.68   0.000905    4.58  0.000446  (-0.003650  0.004530 -0.020299)
 37:    636.15   0.004075   20.59  0.001999  (-0.010468 -0.001551 -0.043441)
 38:    701.42   0.000980    4.95  0.000436  (-0.011336 -0.010589  0.013974)
 39:    716.05   0.008039   40.63  0.003504  ( 0.034283  0.009692 -0.047268)
 40:    744.61   0.002203   11.13  0.000923  (-0.001771  0.030324 -0.000736)
 41:    763.36   0.002172   10.97  0.000888  (-0.001593 -0.017070  0.024369)
 42:    770.08   0.006060   30.63  0.002456  (-0.031615 -0.000823  0.038153)
 43:    810.85   0.006063   30.64  0.002333  ( 0.004917  0.025818 -0.040529)
 44:    841.20   0.001288    6.51  0.000478  ( 0.004270  0.016868 -0.013227)
 45:    863.71   0.000224    1.13  0.000081  (-0.001778 -0.006597 -0.005848)
 46:    871.64   0.001322    6.68  0.000473  ( 0.006781 -0.011031 -0.017485)
 47:    927.17   0.000912    4.61  0.000307  (-0.007863 -0.005969  0.014473)
 48:    957.96   0.000480    2.43  0.000156  ( 0.006267  0.006495 -0.008662)
 49:    975.76   0.000033    0.17  0.000011  ( 0.002620  0.000274 -0.001938)
 50:   1000.03   0.000216    1.09  0.000068  (-0.002420 -0.002694  0.007378)
 51:   1002.21   0.004947   25.00  0.001540  ( 0.009763 -0.013339  0.035599)
 52:   1011.94   0.007519   38.00  0.002319  ( 0.045671 -0.014643 -0.004302)
 53:   1014.98   0.000043    0.22  0.000013  ( 0.003127 -0.001522  0.001109)
 54:   1046.64   0.000307    1.55  0.000092  ( 0.008451 -0.004348  0.001103)
 55:   1053.64   0.004156   21.00  0.001231  ( 0.003733  0.004205  0.034630)
 56:   1055.66   0.002069   10.45  0.000611  ( 0.020423 -0.008453  0.011087)
 57:   1060.65   0.003962   20.02  0.001166  ( 0.026902 -0.020839  0.002767)
 58:   1062.30   0.001907    9.64  0.000560  ( 0.009506 -0.008212  0.020063)
 59:   1087.39   0.004809   24.30  0.001380  (-0.018935  0.018640  0.025962)
 60:   1090.39   0.002690   13.60  0.000770  ( 0.011782  0.005371  0.024541)
 61:   1126.88   0.003055   15.44  0.000846  (-0.003770 -0.027716  0.007978)
 62:   1135.14   0.000670    3.39  0.000184  ( 0.006331 -0.011655 -0.002895)
 63:   1165.79   0.010510   53.11  0.002813  ( 0.001033 -0.025838  0.046311)
 64:   1181.49   0.000035    0.18  0.000009  (-0.000315 -0.002932  0.000676)
 65:   1183.93   0.001842    9.31  0.000486  ( 0.000015 -0.010458  0.019394)
 66:   1204.32   0.000225    1.14  0.000058  (-0.002019  0.000290 -0.007351)
 67:   1212.36   0.009532   48.17  0.002454  ( 0.004630  0.012439  0.047723)
 68:   1234.53   0.000141    0.71  0.000036  ( 0.005817 -0.001167  0.000683)
 69:   1243.61   0.008477   42.84  0.002127  ( 0.039532 -0.018302 -0.015143)
 70:   1283.30   0.023104  116.76  0.005618  (-0.008047  0.050635  0.054678)
 71:   1288.56   0.024249  122.55  0.005873  ( 0.049061 -0.057570 -0.012302)
 72:   1297.89   0.000483    2.44  0.000116  ( 0.006934 -0.003663  0.007393)
 73:   1315.93   0.001136    5.74  0.000269  ( 0.014682  0.006069 -0.004114)
 74:   1350.59   0.002750   13.90  0.000635  ( 0.012980 -0.016821 -0.013562)
 75:   1359.82   0.000156    0.79  0.000036  (-0.004118 -0.003870  0.001978)
 76:   1367.56   0.000061    0.31  0.000014  (-0.003173  0.000623 -0.001836)
 77:   1370.06   0.000271    1.37  0.000062  ( 0.001406  0.005736 -0.005187)
 78:   1388.84   0.002235   11.30  0.000502  (-0.018171 -0.003379  0.012675)
 79:   1410.81   0.005366   27.12  0.001187  ( 0.029947  0.016937  0.001822)
 80:   1422.47   0.008192   41.40  0.001797  ( 0.035204 -0.010006 -0.021396)
 81:   1442.53   0.019124   96.64  0.004137  (-0.024096  0.031077 -0.050898)
 82:   1457.85   0.013022   65.81  0.002787  (-0.024715  0.040213 -0.023653)
 83:   1476.00   0.048158  243.37  0.010182  (-0.064905  0.049100  0.059652)
 84:   1484.45   0.003828   19.35  0.000805  ( 0.014558  0.023626 -0.005887)
 85:   1489.43   0.000813    4.11  0.000170  (-0.007323 -0.005707 -0.009169)
 86:   1497.24   0.002597   13.12  0.000541  (-0.001439  0.019974  0.011842)
 87:   1499.31   0.001281    6.47  0.000267  (-0.003198  0.000396  0.016009)
 88:   1502.77   0.005029   25.42  0.001044  ( 0.005030  0.025352  0.019400)
 89:   1504.25   0.001552    7.84  0.000322  ( 0.014509 -0.010187  0.002755)
 90:   1511.09   0.001003    5.07  0.000207  ( 0.006437 -0.009805 -0.008340)
 91:   1516.35   0.003400   17.18  0.000700  (-0.010636 -0.022950  0.007741)
 92:   1520.77   0.002241   11.32  0.000460  (-0.008149  0.016165  0.011493)
 93:   1528.91   0.006251   31.59  0.001276  ( 0.027472  0.020500 -0.010048)
 94:   1536.52   0.005818   29.40  0.001182  (-0.000033  0.012645  0.031965)
 95:   1542.69   0.005369   27.13  0.001086  ( 0.026882 -0.008878  0.016870)
 96:   1553.38   0.017218   87.01  0.003459  ( 0.036941 -0.032244  0.032476)
 97:   1639.28   0.000271    1.37  0.000052  (-0.001248 -0.005848 -0.003989)
 98:   1660.38   0.002662   13.45  0.000500  (-0.021413  0.003618 -0.005352)
 99:   1700.45   0.170644  862.36  0.031316  (-0.121974 -0.023848  0.125976)
100:   1708.46   0.069379  350.62  0.012673  ( 0.014184  0.019005  0.110047)
101:   3033.51   0.005292   26.75  0.000544  ( 0.019581 -0.009158 -0.008784)
102:   3035.84   0.008770   44.32  0.000901  (-0.007140  0.010086 -0.027363)
103:   3038.25   0.016941   85.62  0.001740  (-0.022374 -0.001254 -0.035184)
104:   3061.48   0.003975   20.09  0.000405  (-0.002770 -0.001912  0.019847)
105:   3066.40   0.000926    4.68  0.000094  ( 0.001572  0.006838  0.006705)
106:   3077.48   0.009084   45.91  0.000921  (-0.004529 -0.020453  0.021961)
107:   3080.95   0.007155   36.16  0.000725  ( 0.001049 -0.017158 -0.020717)
108:   3084.64   0.011429   57.76  0.001156  ( 0.007167  0.007299  0.032429)
109:   3099.80   0.010572   53.42  0.001064  (-0.013787 -0.027141  0.011728)
110:   3109.77   0.006275   31.71  0.000630  (-0.008197 -0.021857  0.009209)
111:   3119.57   0.000568    2.87  0.000057  ( 0.000083 -0.007396  0.001441)
112:   3132.66   0.002129   10.76  0.000212  (-0.008442  0.006138 -0.010157)
113:   3137.36   0.013813   69.80  0.001374  (-0.004614  0.035798  0.008435)
114:   3166.71   0.001570    7.94  0.000155  (-0.005789  0.010689 -0.002642)
115:   3171.01   0.002885   14.58  0.000284  ( 0.012664 -0.002343 -0.010866)
116:   3176.12   0.002515   12.71  0.000247  ( 0.012675  0.001225  0.009214)
117:   3178.67   0.001789    9.04  0.000176  (-0.003889  0.012669 -0.000161)
118:   3189.31   0.001841    9.30  0.000180  (-0.006827  0.000482 -0.011543)
119:   3189.33   0.001852    9.36  0.000181  ( 0.010218 -0.008589 -0.001732)
120:   3194.48   0.000450    2.28  0.000044  (-0.002129 -0.006262  0.000507)
121:   3196.94   0.012535   63.35  0.001224  (-0.005578 -0.032701 -0.011096)
122:   3208.83   0.005548   28.04  0.000540  (-0.019707  0.006472 -0.010454)

* The epsilon (eps) is given for a Dirac delta lineshape.
** The dipole moment derivative (T) already includes vibrational overlap.

The first frequency considered to be a vibration is 6
The total number of vibrations considered is 117


--------------------------
THERMOCHEMISTRY AT 298.15K
--------------------------

Temperature         ... 298.15 K
Pressure            ... 1.00 atm
Total Mass          ... 262.35 AMU

Throughout the following assumptions are being made:
  (1) The electronic state is orbitally nondegenerate
  (2) There are no thermally accessible electronically excited states
  (3) Hindered rotations indicated by low frequency modes are not
      treated as such but are treated as vibrations and this may
      cause some error
  (4) All equations used are the standard statistical mechanics
      equations for an ideal gas
  (5) All vibrations are strictly harmonic

freq.      11.43  E(vib)   ...       0.58 
freq.      26.66  E(vib)   ...       0.56 
freq.      31.82  E(vib)   ...       0.55 
freq.      49.60  E(vib)   ...       0.52 
freq.      62.91  E(vib)   ...       0.51 
freq.      74.86  E(vib)   ...       0.49 
freq.      83.48  E(vib)   ...       0.48 
freq.      99.22  E(vib)   ...       0.46 
freq.     113.87  E(vib)   ...       0.44 
freq.     137.42  E(vib)   ...       0.42 
freq.     150.67  E(vib)   ...       0.40 
freq.     166.23  E(vib)   ...       0.39 
freq.     170.88  E(vib)   ...       0.38 
freq.     212.24  E(vib)   ...       0.34 
freq.     217.07  E(vib)   ...       0.34 
freq.     266.08  E(vib)   ...       0.29 
freq.     275.47  E(vib)   ...       0.28 
freq.     291.53  E(vib)   ...       0.27 
freq.     341.28  E(vib)   ...       0.23 
freq.     352.03  E(vib)   ...       0.23 
freq.     386.52  E(vib)   ...       0.20 
freq.     416.99  E(vib)   ...       0.18 
freq.     420.15  E(vib)   ...       0.18 
freq.     431.91  E(vib)   ...       0.18 
freq.     460.23  E(vib)   ...       0.16 
freq.     493.14  E(vib)   ...       0.14 
freq.     519.69  E(vib)   ...       0.13 
freq.     579.56  E(vib)   ...       0.11 
freq.     586.90  E(vib)   ...       0.10 
freq.     601.91  E(vib)   ...       0.10 
freq.     633.68  E(vib)   ...       0.09 
freq.     636.15  E(vib)   ...       0.09 
freq.     701.42  E(vib)   ...       0.07 
freq.     716.05  E(vib)   ...       0.07 
freq.     744.61  E(vib)   ...       0.06 
freq.     763.36  E(vib)   ...       0.06 
freq.     770.08  E(vib)   ...       0.05 
freq.     810.85  E(vib)   ...       0.05 
freq.     841.20  E(vib)   ...       0.04 
freq.     863.71  E(vib)   ...       0.04 
freq.     871.64  E(vib)   ...       0.04 
freq.     927.17  E(vib)   ...       0.03 
freq.     957.96  E(vib)   ...       0.03 
freq.     975.76  E(vib)   ...       0.03 
freq.    1000.03  E(vib)   ...       0.02 
freq.    1002.21  E(vib)   ...       0.02 
freq.    1011.94  E(vib)   ...       0.02 
freq.    1014.98  E(vib)   ...       0.02 
freq.    1046.64  E(vib)   ...       0.02 
freq.    1053.64  E(vib)   ...       0.02 
freq.    1055.66  E(vib)   ...       0.02 
freq.    1060.65  E(vib)   ...       0.02 
freq.    1062.30  E(vib)   ...       0.02 
freq.    1087.39  E(vib)   ...       0.02 
freq.    1090.39  E(vib)   ...       0.02 
freq.    1126.88  E(vib)   ...       0.01 
freq.    1135.14  E(vib)   ...       0.01 
freq.    1165.79  E(vib)   ...       0.01 
freq.    1181.49  E(vib)   ...       0.01 
freq.    1183.93  E(vib)   ...       0.01 
freq.    1204.32  E(vib)   ...       0.01 
freq.    1212.36  E(vib)   ...       0.01 
freq.    1234.53  E(vib)   ...       0.01 
freq.    1243.61  E(vib)   ...       0.01 
freq.    1283.30  E(vib)   ...       0.01 
freq.    1288.56  E(vib)   ...       0.01 
freq.    1297.89  E(vib)   ...       0.01 
freq.    1315.93  E(vib)   ...       0.01 
freq.    1350.59  E(vib)   ...       0.01 
freq.    1359.82  E(vib)   ...       0.01 
freq.    1367.56  E(vib)   ...       0.01 
freq.    1370.06  E(vib)   ...       0.01 
freq.    1388.84  E(vib)   ...       0.00 
freq.    1410.81  E(vib)   ...       0.00 
freq.    1422.47  E(vib)   ...       0.00 
freq.    1442.53  E(vib)   ...       0.00 
freq.    1457.85  E(vib)   ...       0.00 
freq.    1476.00  E(vib)   ...       0.00 
freq.    1484.45  E(vib)   ...       0.00 
freq.    1489.43  E(vib)   ...       0.00 
freq.    1497.24  E(vib)   ...       0.00 
freq.    1499.31  E(vib)   ...       0.00 
freq.    1502.77  E(vib)   ...       0.00 
freq.    1504.25  E(vib)   ...       0.00 
freq.    1511.09  E(vib)   ...       0.00 
freq.    1516.35  E(vib)   ...       0.00 
freq.    1520.77  E(vib)   ...       0.00 
freq.    1528.91  E(vib)   ...       0.00 
freq.    1536.52  E(vib)   ...       0.00 
freq.    1542.69  E(vib)   ...       0.00 
freq.    1553.38  E(vib)   ...       0.00 
freq.    1639.28  E(vib)   ...       0.00 
freq.    1660.38  E(vib)   ...       0.00 
freq.    1700.45  E(vib)   ...       0.00 
freq.    1708.46  E(vib)   ...       0.00 
freq.    3033.51  E(vib)   ...       0.00 
freq.    3035.84  E(vib)   ...       0.00 
freq.    3038.25  E(vib)   ...       0.00 
freq.    3061.48  E(vib)   ...       0.00 
freq.    3066.40  E(vib)   ...       0.00 
freq.    3077.48  E(vib)   ...       0.00 
freq.    3080.95  E(vib)   ...       0.00 
freq.    3084.64  E(vib)   ...       0.00 
freq.    3099.80  E(vib)   ...       0.00 
freq.    3109.77  E(vib)   ...       0.00 
freq.    3119.57  E(vib)   ...       0.00 
freq.    3132.66  E(vib)   ...       0.00 
freq.    3137.36  E(vib)   ...       0.00 
freq.    3166.71  E(vib)   ...       0.00 
freq.    3171.01  E(vib)   ...       0.00 
freq.    3176.12  E(vib)   ...       0.00 
freq.    3178.67  E(vib)   ...       0.00 
freq.    3189.31  E(vib)   ...       0.00 
freq.    3189.33  E(vib)   ...       0.00 
freq.    3194.48  E(vib)   ...       0.00 
freq.    3196.94  E(vib)   ...       0.00 
freq.    3208.83  E(vib)   ...       0.00 

------------
INNER ENERGY
------------

The inner energy is: U= E(el) + E(ZPE) + E(vib) + E(rot) + E(trans)
    E(el)   - is the total energy from the electronic structure calculation
              = E(kin-el) + E(nuc-el) + E(el-el) + E(nuc-nuc)
    E(ZPE)  - the the zero temperature vibrational energy from the frequency calculation
    E(vib)  - the the finite temperature correction to E(ZPE) due to population
              of excited vibrational states
    E(rot)  - is the rotational thermal energy
    E(trans)- is the translational thermal energy

Summary of contributions to the inner energy U:
Electronic energy                ...   -844.37855956 Eh
Zero point energy                ...      0.35493010 Eh     222.72 kcal/mol
Thermal vibrational correction   ...      0.01724414 Eh      10.82 kcal/mol
Thermal rotational correction    ...      0.00141627 Eh       0.89 kcal/mol
Thermal translational correction ...      0.00141627 Eh       0.89 kcal/mol
-----------------------------------------------------------------------
Total thermal energy                   -844.00355277 Eh


Summary of corrections to the electronic energy:
(perhaps to be used in another calculation)
Total thermal correction                  0.02007668 Eh      12.60 kcal/mol
Non-thermal (ZPE) correction              0.35493010 Eh     222.72 kcal/mol
-----------------------------------------------------------------------
Total correction                          0.37500678 Eh     235.32 kcal/mol


--------
ENTHALPY
--------

The enthalpy is H = U + kB*T
                kB is Boltzmann's constant
Total free energy                 ...   -844.00355277 Eh 
Thermal Enthalpy correction       ...      0.00094421 Eh       0.59 kcal/mol
-----------------------------------------------------------------------
Total Enthalpy                    ...   -844.00260856 Eh


Note: Only C1 symmetry has been detected, increase convergence thresholds 
      if your molecule has a higher symmetry. Symmetry factor of 1.0 is   
      used for the rotational entropy correction. 
 

Note: Rotational entropy computed according to Herzberg 
Infrared and Raman Spectra, Chapter V,1, Van Nostrand Reinhold, 1945 
Point Group:  C1, Symmetry Number:   1  
Rotational constants in cm-1:     0.018305     0.007371     0.006192 

Vibrational entropy computed according to the QRRHO of S. Grimme
Chem.Eur.J. 2012 18 9955


-------
ENTROPY
-------

The entropy contributions are T*S = T*(S(el)+S(vib)+S(rot)+S(trans))
     S(el)   - electronic entropy
     S(vib)  - vibrational entropy
     S(rot)  - rotational entropy
     S(trans)- translational entropy
The entropies will be listed as multiplied by the temperature to get
units of energy

Electronic entropy                ...      0.00000000 Eh      0.00 kcal/mol
Vibrational entropy               ...      0.03156289 Eh     19.81 kcal/mol
Rotational entropy                ...      0.01611783 Eh     10.11 kcal/mol
Translational entropy             ...      0.02023727 Eh     12.70 kcal/mol
-----------------------------------------------------------------------
Final entropy term                ...      0.06791799 Eh     42.62 kcal/mol

In case the symmetry of your molecule has not been determined correctly
or in case you have a reason to use a different symmetry number we print 
out the resulting rotational entropy values for sn=1,12 :
 --------------------------------------------------------
|  sn= 1 | S(rot)=       0.01611783 Eh     10.11 kcal/mol|
|  sn= 2 | S(rot)=       0.01546338 Eh      9.70 kcal/mol|
|  sn= 3 | S(rot)=       0.01508054 Eh      9.46 kcal/mol|
|  sn= 4 | S(rot)=       0.01480892 Eh      9.29 kcal/mol|
|  sn= 5 | S(rot)=       0.01459823 Eh      9.16 kcal/mol|
|  sn= 6 | S(rot)=       0.01442609 Eh      9.05 kcal/mol|
|  sn= 7 | S(rot)=       0.01428054 Eh      8.96 kcal/mol|
|  sn= 8 | S(rot)=       0.01415446 Eh      8.88 kcal/mol|
|  sn= 9 | S(rot)=       0.01404326 Eh      8.81 kcal/mol|
|  sn=10 | S(rot)=       0.01394378 Eh      8.75 kcal/mol|
|  sn=11 | S(rot)=       0.01385379 Eh      8.69 kcal/mol|
|  sn=12 | S(rot)=       0.01377163 Eh      8.64 kcal/mol|
 --------------------------------------------------------


-------------------
GIBBS FREE ENERGY
-------------------

The Gibbs free energy is G = H - T*S

Total enthalpy                    ...   -844.00260856 Eh 
Total entropy correction          ...     -0.06791799 Eh    -42.62 kcal/mol
-----------------------------------------------------------------------
Final Gibbs free energy         ...   -844.07052655 Eh

For completeness - the Gibbs free energy minus the electronic energy
G-E(el)                           ...      0.30803300 Eh    193.29 kcal/mol


Timings for individual modules:

Sum of individual times         ...     2924.471 sec (=  48.741 min)
GTO integral calculation        ...       31.016 sec (=   0.517 min)   1.1 %
SCF iterations                  ...     1442.263 sec (=  24.038 min)  49.3 %
SCF Gradient evaluation         ...      473.950 sec (=   7.899 min)  16.2 %
Geometry relaxation             ...        1.748 sec (=   0.029 min)   0.1 %
Analytical frequency calculation...      975.496 sec (=  16.258 min)  33.4 %
                             ****ORCA TERMINATED NORMALLY****
TOTAL RUN TIME: 0 days 0 hours 48 minutes 52 seconds 150 msec
