
                                 *****************
                                 * O   R   C   A *
                                 *****************

                                            #,                                       
                                            ###                                      
                                            ####                                     
                                            #####                                    
                                            ######                                   
                                           ########,                                 
                                     ,,################,,,,,                         
                               ,,#################################,,                 
                          ,,##########################################,,             
                       ,#########################################, ''#####,          
                    ,#############################################,,   '####,        
                  ,##################################################,,,,####,       
                ,###########''''           ''''###############################       
              ,#####''   ,,,,##########,,,,          '''####'''          '####       
            ,##' ,,,,###########################,,,                        '##       
           ' ,,###''''                  '''############,,,                           
         ,,##''                                '''############,,,,        ,,,,,,###''
      ,#''                                            '''#######################'''  
     '                                                          ''''####''''         
             ,#######,   #######,   ,#######,      ##                                
            ,#'     '#,  ##    ##  ,#'     '#,    #''#        ######   ,####,        
            ##       ##  ##   ,#'  ##            #'  '#       #        #'  '#        
            ##       ##  #######   ##           ,######,      #####,   #    #        
            '#,     ,#'  ##    ##  '#,     ,#' ,#      #,         ##   #,  ,#        
             '#######'   ##     ##  '#######'  #'      '#     #####' # '####'        



                  #######################################################
                  #                        -***-                        #
                  #          Department of theory and spectroscopy      #
                  #    Directorship and core code : Frank Neese         #
                  #        Max Planck Institute fuer Kohlenforschung    #
                  #                Kaiser Wilhelm Platz 1               #
                  #                 D-45470 Muelheim/Ruhr               #
                  #                      Germany                        #
                  #                                                     #
                  #                  All rights reserved                #
                  #                        -***-                        #
                  #######################################################


                         Program Version 5.0.4 -  RELEASE  -


 With contributions from (in alphabetic order):
   Daniel Aravena         : Magnetic Suceptibility
   Michael Atanasov       : Ab Initio Ligand Field Theory (pilot matlab implementation)
   Alexander A. Auer      : GIAO ZORA, VPT2 properties, NMR spectrum
   Ute Becker             : Parallelization
   Giovanni Bistoni       : ED, misc. LED, open-shell LED, HFLD
   Martin Brehm           : Molecular dynamics
   Dmytro Bykov           : SCF Hessian
   Vijay G. Chilkuri      : MRCI spin determinant printing, contributions to CSF-ICE
   Dipayan Datta          : RHF DLPNO-CCSD density
   Achintya Kumar Dutta   : EOM-CC, STEOM-CC
   Dmitry Ganyushin       : Spin-Orbit,Spin-Spin,Magnetic field MRCI
   Miquel Garcia          : C-PCM and meta-GGA Hessian, CC/C-PCM, Gaussian charge scheme
   Yang Guo               : DLPNO-NEVPT2, F12-NEVPT2, CIM, IAO-localization
   Andreas Hansen         : Spin unrestricted coupled pair/coupled cluster methods
   Benjamin Helmich-Paris : MC-RPA, TRAH-SCF, COSX integrals
   Lee Huntington         : MR-EOM, pCC
   Robert Izsak           : Overlap fitted RIJCOSX, COSX-SCS-MP3, EOM
   Marcus Kettner         : VPT2
   Christian Kollmar      : KDIIS, OOCD, Brueckner-CCSD(T), CCSD density, CASPT2, CASPT2-K
   Simone Kossmann        : Meta GGA functionals, TD-DFT gradient, OOMP2, MP2 Hessian
   Martin Krupicka        : Initial AUTO-CI
   Lucas Lang             : DCDCAS
   Marvin Lechner         : AUTO-CI (C++ implementation), FIC-MRCC
   Dagmar Lenk            : GEPOL surface, SMD
   Dimitrios Liakos       : Extrapolation schemes; Compound Job, initial MDCI parallelization
   Dimitrios Manganas     : Further ROCIS development; embedding schemes
   Dimitrios Pantazis     : SARC Basis sets
   Anastasios Papadopoulos: AUTO-CI, single reference methods and gradients
   Taras Petrenko         : DFT Hessian,TD-DFT gradient, ASA, ECA, R-Raman, ABS, FL, XAS/XES, NRVS
   Peter Pinski           : DLPNO-MP2, DLPNO-MP2 Gradient
   Christoph Reimann      : Effective Core Potentials
   Marius Retegan         : Local ZFS, SOC
   Christoph Riplinger    : Optimizer, TS searches, QM/MM, DLPNO-CCSD(T), (RO)-DLPNO pert. Triples
   Tobias Risthaus        : Range-separated hybrids, TD-DFT gradient, RPA, STAB
   Michael Roemelt        : Original ROCIS implementation
   Masaaki Saitow         : Open-shell DLPNO-CCSD energy and density
   Barbara Sandhoefer     : DKH picture change effects
   Avijit Sen             : IP-ROCIS
   Kantharuban Sivalingam : CASSCF convergence, NEVPT2, FIC-MRCI
   Bernardo de Souza      : ESD, SOC TD-DFT
   Georgi Stoychev        : AutoAux, RI-MP2 NMR, DLPNO-MP2 response
   Willem Van den Heuvel  : Paramagnetic NMR
   Boris Wezisla          : Elementary symmetry handling
   Frank Wennmohs         : Technical directorship


 We gratefully acknowledge several colleagues who have allowed us to
 interface, adapt or use parts of their codes:
   Stefan Grimme, W. Hujo, H. Kruse, P. Pracht,  : VdW corrections, initial TS optimization,
                  C. Bannwarth, S. Ehlert          DFT functionals, gCP, sTDA/sTD-DF
   Ed Valeev, F. Pavosevic, A. Kumar             : LibInt (2-el integral package), F12 methods
   Garnet Chan, S. Sharma, J. Yang, R. Olivares  : DMRG
   Ulf Ekstrom                                   : XCFun DFT Library
   Mihaly Kallay                                 : mrcc  (arbitrary order and MRCC methods)
   Jiri Pittner, Ondrej Demel                    : Mk-CCSD
   Frank Weinhold                                : gennbo (NPA and NBO analysis)
   Christopher J. Cramer and Donald G. Truhlar   : smd solvation model
   Lars Goerigk                                  : TD-DFT with DH, B97 family of functionals
   V. Asgeirsson, H. Jonsson                     : NEB implementation
   FAccTs GmbH                                   : IRC, NEB, NEB-TS, DLPNO-Multilevel, CI-OPT
                                                   MM, QMMM, 2- and 3-layer-ONIOM, Crystal-QMMM,
                                                   LR-CPCM, SF, NACMEs, symmetry and pop. for TD-DFT,
                                                   nearIR, NL-DFT gradient (VV10), updates on ESD,
                                                   ML-optimized integration grids
   S Lehtola, MJT Oliveira, MAL Marques          : LibXC Library
   Liviu Ungur et al                             : ANISO software


 Your calculation uses the libint2 library for the computation of 2-el integrals
 For citations please refer to: http://libint.valeyev.net

 Your ORCA version has been built with support for libXC version: 5.1.0
 For citations please refer to: https://tddft.org/programs/libxc/

 This ORCA versions uses:
   CBLAS   interface :  Fast vector & matrix operations
   LAPACKE interface :  Fast linear algebra routines
   SCALAPACK package :  Parallel linear algebra routines
   Shared memory     :  Shared parallel matrices
   BLAS/LAPACK       :  OpenBLAS 0.3.15  USE64BITINT DYNAMIC_ARCH NO_AFFINITY SkylakeX SINGLE_THREADED
        Core in use  :  SkylakeX
   Copyright (c) 2011-2014, The OpenBLAS Project




***************************************
The coordinates will be read from file: /users/fjb15167/WWenergy/structures/Nfn.xyz
***************************************


Your calculation utilizes the atom-pairwise dispersion correction
based on tight binding partial charges (D4)
Cite in your paper:
E.Caldeweyher, C.Bannwarth, S.Grimme, J.Chem.Phys., (2017), 147, 034112.
E.Caldeweyher, S.Ehlert, A.Hansen, H.Neugebauer, S.Grimme, J.Chem.Phys., (2018), in progress.
   

================================================================================

----- Orbital basis set information -----
Your calculation utilizes the basis: 6-31G(d)
   H-He, Li-Ne : W. J. Hehre, R. Ditchfield and J.A. Pople, J. Chem. Phys. 56, 2257 (1972).
                 Note: He and Ne are unpublished basis sets taken from the Gaussian program.
                 Note: Li and B from J. D. Dill and J. A. Pople, J. Chem. Phys. 62, 2921 (1975).
   Na - Ar     : M. M. Francl, W. J. Pietro, W. J. Hehre, J. S. Binkley, M. S. Gordon, 
                 D. J. DeFrees and J. A. Pople, J. Chem. Phys. 77, 3654 (1982).
   K - Zn      : V. A. Rassolov, J. A. Pople, M. A. Ratner, and T. L. Windus, J. Chem. Phys. 109, 1223 (1998).

----- AuxJ basis set information -----
Your calculation utilizes the AutoAux generation procedure.
  G. L. Stoychev, A. A. Auer, F. Neese, J. Chem. Theory Comput. 13, 554 (2017)

----- AuxC basis set information -----
Your calculation utilizes the AutoAux generation procedure.
  G. L. Stoychev, A. A. Auer, F. Neese, J. Chem. Theory Comput. 13, 554 (2017)

----- AuxJK basis set information -----
Your calculation utilizes the AutoAux generation procedure.
  G. L. Stoychev, A. A. Auer, F. Neese, J. Chem. Theory Comput. 13, 554 (2017)

================================================================================
                                        WARNINGS
                       Please study these warnings very carefully!
================================================================================


WARNING: Geometry Optimization
  ===> : Switching off AutoStart
         For restart on a previous wavefunction, please use MOREAD

INFO   : the flag for use of the SHARK integral package has been found!

================================================================================
                                       INPUT FILE
================================================================================
NAME = Nfn_octanol.inp
|  1> ! OPT FREQ B3LYP 6-31G(d) D4 AUTOAUX
|  2> ! CPCM
|  3> 
|  4> %cpcm
|  5> epsilon 9.8629 
|  6> refrac  1.4295 
|  7> end
|  8> 
|  9> %PAL NPROCS 4 END
| 10> 
| 11> %maxcore 3375
| 12> 
| 13> *xyzfile 0 1 /users/fjb15167/WWenergy/structures/Nfn.xyz
| 14> 
| 15>                          ****END OF INPUT****
================================================================================

                       *****************************
                       * Geometry Optimization Run *
                       *****************************

Geometry optimization settings:
Update method            Update   .... BFGS
Choice of coordinates    CoordSys .... Z-matrix Internals
Initial Hessian          InHess   .... Almoef's Model

Convergence Tolerances:
Energy Change            TolE     ....  5.0000e-06 Eh
Max. Gradient            TolMAXG  ....  3.0000e-04 Eh/bohr
RMS Gradient             TolRMSG  ....  1.0000e-04 Eh/bohr
Max. Displacement        TolMAXD  ....  4.0000e-03 bohr
RMS Displacement         TolRMSD  ....  2.0000e-03 bohr
Strict Convergence                ....  False
------------------------------------------------------------------------------
                        ORCA OPTIMIZATION COORDINATE SETUP
------------------------------------------------------------------------------

The optimization will be done in new redundant internal coordinates
Making redundant internal coordinates   ...  (new redundants) done
Evaluating the initial hessian          ...  (Almloef) done
Evaluating the coordinates              ...  done
Calculating the B-matrix                .... done
Calculating the G-matrix                .... done
Diagonalizing the G-matrix              .... done
Small eigenvalue found = 6.153e-03
Small eigenvalue found = 8.165e-03
Small eigenvalue found = 1.112e-02
Small eigenvalue found = 1.965e-02
Small eigenvalue found = 2.415e-02
The first mode is                       ....   62
The number of degrees of freedom        ....   90

    -----------------------------------------------------------------
                    Redundant Internal Coordinates


    -----------------------------------------------------------------
         Definition                    Initial Value    Approx d2E/dq
    -----------------------------------------------------------------
      1. B(H   1,C   0)                  1.0920         0.357454   
      2. B(H   2,C   0)                  1.0902         0.359851   
      3. B(H   3,C   0)                  1.0925         0.356760   
      4. B(C   4,C   0)                  1.5105         0.401320   
      5. B(N   5,C   4)                  1.3741         0.593165   
      6. B(C   6,N   5)                  1.4287         0.485437   
      7. B(C   7,C   6)                  1.3990         0.604474   
      8. B(C   8,C   6)                  1.3993         0.603822   
      9. B(C   9,C   7)                  1.3951         0.613140   
     10. B(H  10,C   7)                  1.0876         0.363332   
     11. B(C  11,C   8)                  1.3966         0.609767   
     12. B(H  12,C   8)                  1.0868         0.364317   
     13. B(C  13,C  11)                  1.3976         0.607485   
     14. B(C  13,C   9)                  1.3975         0.607772   
     15. B(H  14,C   9)                  1.0879         0.362882   
     16. B(H  15,C  11)                  1.0874         0.363497   
     17. B(H  16,C  13)                  1.0873         0.363717   
     18. B(C  17,N   5)                  1.4574         0.436789   
     19. B(H  18,C  17)                  1.0949         0.353645   
     20. B(H  19,C  17)                  1.0910         0.358743   
     21. B(C  20,C  17)                  1.5319         0.370923   
     22. B(N  21,C  20)                  1.3635         0.616853   
     23. B(O  22,C  20)                  1.2386         0.975848   
     24. B(O  23,C   4)                  1.2388         0.975077   
     25. B(C  24,N  21)                  1.4634         0.427271   
     26. B(H  25,C  24)                  1.0926         0.356647   
     27. B(H  26,C  24)                  1.0912         0.358548   
     28. B(H  27,C  24)                  1.0933         0.355794   
     29. B(C  28,N  21)                  1.4588         0.434598   
     30. B(H  29,C  28)                  1.0924         0.356943   
     31. B(H  30,C  28)                  1.0965         0.351617   
     32. B(H  31,C  28)                  1.0884         0.362251   
     33. A(H   2,C   0,C   4)          107.4238         0.328128   
     34. A(H   2,C   0,H   3)          109.9256         0.290383   
     35. A(H   1,C   0,C   4)          111.4727         0.327767   
     36. A(H   3,C   0,C   4)          110.9598         0.327662   
     37. A(H   1,C   0,H   3)          107.7604         0.290078   
     38. A(H   1,C   0,H   2)          109.2937         0.290471   
     39. A(C   0,C   4,N   5)          117.3589         0.396050   
     40. A(C   0,C   4,O  23)          122.5524         0.432611   
     41. A(N   5,C   4,O  23)          120.0881         0.461293   
     42. A(C   4,N   5,C   6)          123.7540         0.406926   
     43. A(C   4,N   5,C  17)          115.1920         0.399417   
     44. A(C   6,N   5,C  17)          120.0815         0.385650   
     45. A(C   7,C   6,C   8)          120.6596         0.430044   
     46. A(N   5,C   6,C   8)          119.9052         0.410858   
     47. A(N   5,C   6,C   7)          119.4157         0.410937   
     48. A(C   9,C   7,H  10)          120.9614         0.352778   
     49. A(C   6,C   7,H  10)          119.3946         0.351930   
     50. A(C   6,C   7,C   9)          119.6405         0.431228   
     51. A(C   6,C   8,C  11)          119.1763         0.430718   
     52. A(C  11,C   8,H  12)          122.2862         0.352610   
     53. A(C   6,C   8,H  12)          118.5366         0.352027   
     54. A(C  13,C   9,H  14)          120.0716         0.352180   
     55. A(C   7,C   9,H  14)          119.7883         0.352704   
     56. A(C   7,C   9,C  13)          120.1339         0.431650   
     57. A(C  13,C  11,H  15)          119.9806         0.352253   
     58. A(C   8,C  11,H  15)          119.4941         0.352476   
     59. A(C   8,C  11,C  13)          120.5237         0.431186   
     60. A(C  11,C  13,H  16)          120.0817         0.352289   
     61. A(C   9,C  13,H  16)          120.0652         0.352317   
     62. A(C   9,C  13,C  11)          119.8527         0.430932   
     63. A(H  18,C  17,H  19)          108.5118         0.289843   
     64. A(N   5,C  17,H  19)          109.0213         0.330582   
     65. A(N   5,C  17,H  18)          107.7206         0.329800   
     66. A(H  19,C  17,C  20)          113.0870         0.323739   
     67. A(H  18,C  17,C  20)          107.9717         0.322980   
     68. A(N   5,C  17,C  20)          110.3692         0.370440   
     69. A(N  21,C  20,O  22)          122.8766         0.464674   
     70. A(C  17,C  20,O  22)          119.2314         0.426600   
     71. A(C  17,C  20,N  21)          117.7426         0.393310   
     72. A(C  24,N  21,C  28)          116.6560         0.376875   
     73. A(C  20,N  21,C  28)          116.9008         0.401824   
     74. A(C  20,N  21,C  24)          122.4252         0.400623   
     75. A(H  26,C  24,H  27)          107.4741         0.290094   
     76. A(H  25,C  24,H  27)          109.9353         0.289852   
     77. A(N  21,C  24,H  27)          111.3721         0.328931   
     78. A(H  25,C  24,H  26)          109.2935         0.290203   
     79. A(N  21,C  24,H  26)          107.7388         0.329350   
     80. A(N  21,C  24,H  25)          110.9200         0.329061   
     81. A(H  30,C  28,H  31)          108.7283         0.290024   
     82. A(H  29,C  28,H  31)          109.9441         0.290709   
     83. A(N  21,C  28,H  31)          108.5096         0.330839   
     84. A(H  29,C  28,H  30)          109.3792         0.289354   
     85. A(N  21,C  28,H  30)          111.1901         0.329214   
     86. A(N  21,C  28,H  29)          109.0760         0.330032   
     87. D(O  23,C   4,C   0,H   2)     -7.1613         0.011949   
     88. D(N   5,C   4,C   0,H   1)    -67.7155         0.011949   
     89. D(O  23,C   4,C   0,H   3)   -127.3411         0.011949   
     90. D(O  23,C   4,C   0,H   1)    112.5466         0.011949   
     91. D(N   5,C   4,C   0,H   3)     52.3968         0.011949   
     92. D(N   5,C   4,C   0,H   2)    172.5766         0.011949   
     93. D(C   6,N   5,C   4,O  23)    174.8681         0.028305   
     94. D(C  17,N   5,C   4,O  23)      6.1791         0.028305   
     95. D(C   6,N   5,C   4,C   0)     -4.8765         0.028305   
     96. D(C  17,N   5,C   4,C   0)   -173.5656         0.028305   
     97. D(C   8,C   6,N   5,C  17)     63.7793         0.018599   
     98. D(C   7,C   6,N   5,C  17)   -114.6264         0.018599   
     99. D(C   7,C   6,N   5,C   4)     77.2092         0.018599   
    100. D(C   8,C   6,N   5,C   4)   -104.3851         0.018599   
    101. D(C   9,C   7,C   6,N   5)    179.7118         0.025209   
    102. D(H  10,C   7,C   6,C   8)   -178.0045         0.025209   
    103. D(H  10,C   7,C   6,N   5)      0.3889         0.025209   
    104. D(C   9,C   7,C   6,C   8)      1.3184         0.025209   
    105. D(H  12,C   8,C   6,C   7)    179.7729         0.025152   
    106. D(H  12,C   8,C   6,N   5)      1.3874         0.025152   
    107. D(C  11,C   8,C   6,C   7)     -0.5693         0.025152   
    108. D(C  11,C   8,C   6,N   5)   -178.9549         0.025152   
    109. D(H  14,C   9,C   7,H  10)     -0.9071         0.025980   
    110. D(H  14,C   9,C   7,C   6)    179.7808         0.025980   
    111. D(C  13,C   9,C   7,H  10)    178.1884         0.025980   
    112. D(C  13,C   9,C   7,C   6)     -1.1236         0.025980   
    113. D(H  15,C  11,C   8,H  12)     -0.2650         0.025678   
    114. D(H  15,C  11,C   8,C   6)   -179.9094         0.025678   
    115. D(C  13,C  11,C   8,H  12)    179.2694         0.025678   
    116. D(C  13,C  11,C   8,C   6)     -0.3749         0.025678   
    117. D(C  11,C  13,C   9,C   7)      0.1924         0.025501   
    118. D(H  16,C  13,C  11,H  15)     -0.1180         0.025475   
    119. D(H  16,C  13,C  11,C   8)   -179.6502         0.025475   
    120. D(C   9,C  13,C  11,H  15)   -179.9040         0.025475   
    121. D(C   9,C  13,C  11,C   8)      0.5638         0.025475   
    122. D(H  16,C  13,C   9,H  14)     -0.5006         0.025501   
    123. D(H  16,C  13,C   9,C   7)   -179.5936         0.025501   
    124. D(C  11,C  13,C   9,H  14)    179.2854         0.025501   
    125. D(C  20,C  17,N   5,C   6)   -107.0034         0.016267   
    126. D(C  20,C  17,N   5,C   4)     62.1340         0.016267   
    127. D(H  19,C  17,N   5,C   6)    128.2156         0.016267   
    128. D(H  19,C  17,N   5,C   4)    -62.6470         0.016267   
    129. D(H  18,C  17,N   5,C   6)     10.6525         0.016267   
    130. D(H  18,C  17,N   5,C   4)    179.7899         0.016267   
    131. D(O  22,C  20,C  17,H  19)    168.2872         0.010299   
    132. D(O  22,C  20,C  17,H  18)    -71.6390         0.010299   
    133. D(O  22,C  20,C  17,N   5)     45.8622         0.010299   
    134. D(N  21,C  20,C  17,H  19)    -16.0276         0.010299   
    135. D(N  21,C  20,C  17,H  18)    104.0463         0.010299   
    136. D(N  21,C  20,C  17,N   5)   -138.4526         0.010299   
    137. D(C  28,N  21,C  20,O  22)     -6.1834         0.030787   
    138. D(C  28,N  21,C  20,C  17)    178.3002         0.030787   
    139. D(C  24,N  21,C  20,O  22)   -162.8582         0.030787   
    140. D(C  24,N  21,C  20,C  17)     21.6254         0.030787   
    141. D(H  27,C  24,N  21,C  28)    133.7089         0.015565   
    142. D(H  27,C  24,N  21,C  20)    -69.5631         0.015565   
    143. D(H  26,C  24,N  21,C  28)     16.0810         0.015565   
    144. D(H  26,C  24,N  21,C  20)    172.8090         0.015565   
    145. D(H  25,C  24,N  21,C  28)   -103.5006         0.015565   
    146. D(H  25,C  24,N  21,C  20)     53.2274         0.015565   
    147. D(H  30,C  28,N  21,C  20)    -90.1369         0.016104   
    148. D(H  29,C  28,N  21,C  24)    -52.8025         0.016104   
    149. D(H  29,C  28,N  21,C  20)    149.1578         0.016104   
    150. D(H  31,C  28,N  21,C  24)   -172.5634         0.016104   
    151. D(H  31,C  28,N  21,C  20)     29.3969         0.016104   
    152. D(H  30,C  28,N  21,C  24)     67.9028         0.016104   
    -----------------------------------------------------------------

Number of atoms                         .... 32
Number of degrees of freedom            .... 152

         *************************************************************
         *                GEOMETRY OPTIMIZATION CYCLE   1            *
         *************************************************************
---------------------------------
CARTESIAN COORDINATES (ANGSTROEM)
---------------------------------
  C      0.884000    2.330000   -1.316000
  H      1.640000    2.842000   -0.717000
  H      0.355000    3.060000   -1.929000
  H      1.398000    1.609000   -1.956000
  C     -0.141000    1.644000   -0.444000
  N      0.282000    0.571000    0.303000
  C      1.596000    0.016000    0.222000
  C      2.659000    0.672000    0.852000
  C      1.803000   -1.191000   -0.455000
  C      3.943000    0.131000    0.781000
  H      2.469000    1.592000    1.400000
  C      3.090000   -1.731000   -0.506000
  H      0.952000   -1.673000   -0.929000
  C      4.161000   -1.072000    0.104000
  H      4.772000    0.641000    1.267000
  H      3.257000   -2.668000   -1.032000
  H      5.161000   -1.496000    0.055000
  C     -0.771000   -0.145000    1.012000
  H     -0.303000   -0.970000    1.559000
  H     -1.236000    0.529000    1.733000
  C     -1.771000   -0.744000    0.018000
  N     -3.097000   -0.663000    0.325000
  O     -1.347000   -1.346000   -0.978000
  O     -1.323000    2.011000   -0.390000
  C     -3.626000    0.327000    1.264000
  H     -3.314000    1.336000    0.984000
  H     -4.715000    0.265000    1.234000
  H     -3.313000    0.111000    2.289000
  C     -4.035000   -1.205000   -0.652000
  H     -4.916000   -1.584000   -0.129000
  H     -4.342000   -0.439000   -1.374000
  H     -3.545000   -2.015000   -1.189000

----------------------------
CARTESIAN COORDINATES (A.U.)
----------------------------
  NO LB      ZA    FRAG     MASS         X           Y           Z
   0 C     6.0000    0    12.011    1.670518    4.403062   -2.486880
   1 H     1.0000    0     1.008    3.099151    5.370602   -1.354934
   2 H     1.0000    0     1.008    0.670853    5.782562   -3.645282
   3 H     1.0000    0     1.008    2.641837    3.040569   -3.696304
   4 C     6.0000    0    12.011   -0.266451    3.106710   -0.839038
   5 N     7.0000    0    14.007    0.532903    1.079034    0.572587
   6 C     6.0000    0    12.011    3.016003    0.030236    0.419519
   7 C     6.0000    0    12.011    5.024782    1.269896    1.610047
   8 C     6.0000    0    12.011    3.407176   -2.250664   -0.859825
   9 C     6.0000    0    12.011    7.451190    0.247554    1.475876
  10 H     1.0000    0     1.008    4.665734    3.008444    2.645617
  11 C     6.0000    0    12.011    5.839254   -3.271116   -0.956201
  12 H     1.0000    0     1.008    1.799019   -3.161512   -1.755556
  13 C     6.0000    0    12.011    7.863150   -2.025786    0.196532
  14 H     1.0000    0     1.008    9.017773    1.211314    2.394283
  15 H     1.0000    0     1.008    6.154838   -5.041789   -1.950197
  16 H     1.0000    0     1.008    9.752877   -2.827030    0.103935
  17 C     6.0000    0    12.011   -1.456979   -0.274010    1.912403
  18 H     1.0000    0     1.008   -0.572587   -1.833034    2.946083
  19 H     1.0000    0     1.008   -2.335702    0.999665    3.274895
  20 C     6.0000    0    12.011   -3.346705   -1.405956    0.034015
  21 N     7.0000    0    14.007   -5.852482   -1.252888    0.614161
  22 O     8.0000    0    15.999   -2.545461   -2.543571   -1.848152
  23 O     8.0000    0    15.999   -2.500108    3.800239   -0.736993
  24 C     6.0000    0    12.011   -6.852147    0.617940    2.388614
  25 H     1.0000    0     1.008   -6.262552    2.524674    1.859491
  26 H     1.0000    0     1.008   -8.910059    0.500777    2.331922
  27 H     1.0000    0     1.008   -6.260663    0.209760    4.325583
  28 C     6.0000    0    12.011   -7.625045   -2.277120   -1.232101
  29 H     1.0000    0     1.008   -9.289894   -2.993326   -0.243775
  30 H     1.0000    0     1.008   -8.205191   -0.829590   -2.596484
  31 H     1.0000    0     1.008   -6.699079   -3.807798   -2.246884

--------------------------------
INTERNAL COORDINATES (ANGSTROEM)
--------------------------------
 C      0   0   0     0.000000000000     0.00000000     0.00000000
 H      1   0   0     1.092007783855     0.00000000     0.00000000
 H      1   2   0     1.090188057172   109.29365908     0.00000000
 H      1   2   3     1.092536955897   107.76043554   119.42456556
 C      1   2   3     1.510498262164   111.47271453   241.40461264
 N      5   1   2     1.374142277932   117.35890837   292.28454173
 C      6   5   1     1.428699408553   123.75401458   355.12346433
 C      7   6   5     1.399001429592   119.41569237    77.20916896
 C      7   6   5     1.399295179724   119.90519623   255.61487315
 C      8   7   6     1.395126517560   119.64046038   179.71177910
 H      8   7   6     1.087567928913   119.39461782     0.38885654
 C      9   7   6     1.396628082204   119.17630234   181.04514991
 H      9   7   6     1.086830713589   118.53659151     1.38736873
 C     10   8   7     1.397519946190   120.13390237   358.87637801
 H     10   8   7     1.087904867164   119.78827026   179.78082205
 H     12   9   7     1.087443791651   119.49412623   180.09058451
 H     14  10   8     1.087279632845   120.06522381   180.40637917
 C      6   5   1     1.457445024692   115.19203675   186.43444148
 H     18   6   5     1.094923741637   107.72056885   179.78992373
 H     18   6   5     1.091027955646   109.02133306   297.35296511
 C     18   6   5     1.531938967453   110.36921051    62.13400373
 N     21  18   6     1.363483039865   117.74256310   221.54741880
 O     21  18   6     1.238626658844   119.23141636    45.86217448
 O      5   1   2     1.238841797810   122.55244701   112.54664408
 C     22  21  18     1.463441833487   122.42516760    21.62544138
 H     25  22  21     1.092622990789   110.92000167    53.22737547
 H     25  22  21     1.091175971143   107.73875730   172.80897196
 H     25  22  21     1.093274896812   111.37213621   290.43687949
 C     22  21  18     1.458813559027   116.90076885   178.30023748
 H     29  22  21     1.092396905891   109.07600998   149.15779960
 H     29  22  21     1.096489398034   111.19012207   269.86312359
 H     29  22  21     1.088379069994   108.50955243    29.39686649

---------------------------
INTERNAL COORDINATES (A.U.)
---------------------------
 C      0   0   0     0.000000000000     0.00000000     0.00000000
 H      1   0   0     2.063595647596     0.00000000     0.00000000
 H      1   2   0     2.060156862526   109.29365908     0.00000000
 H      1   2   3     2.064595637833   107.76043554   119.42456556
 C      1   2   3     2.854428041254   111.47271453   241.40461264
 N      5   1   2     2.596752574334   117.35890837   292.28454173
 C      6   5   1     2.699850609861   123.75401458   355.12346433
 C      7   6   5     2.643729562893   119.41569237    77.20916896
 C      7   6   5     2.644284670195   119.90519623   255.61487315
 C      8   7   6     2.636407040360   119.64046038   179.71177910
 H      8   7   6     2.055205537681   119.39461782     0.38885654
 C      9   7   6     2.639244586309   119.17630234   181.04514991
 H      9   7   6     2.053812402617   118.53659151     1.38736873
 C     10   8   7     2.640929964992   120.13390237   358.87637801
 H     10   8   7     2.055842258701   119.78827026   179.78082205
 H     12   9   7     2.054970952253   119.49412623   180.09058451
 H     14  10   8     2.054660737068   120.06522381   180.40637917
 C      6   5   1     2.754171951914   115.19203675   186.43444148
 H     18   6   5     2.069106009222   107.72056885   179.78992373
 H     18   6   5     2.061744040622   109.02133306   297.35296511
 C     18   6   5     2.894945102368   110.36921051    62.13400373
 N     21  18   6     2.576609533592   117.74256310   221.54741880
 O     21  18   6     2.340665167390   119.23141636    45.86217448
 O      5   1   2     2.341071721115   122.55244701   112.54664408
 C     22  21  18     2.765504278214   122.42516760    21.62544138
 H     25  22  21     2.064758220217   110.92000167    53.22737547
 H     25  22  21     2.062023749376   107.73875730   172.80897196
 H     25  22  21     2.065990144066   111.37213621   290.43687949
 C     22  21  18     2.756758107011   116.90076885   178.30023748
 H     29  22  21     2.064330981677   109.07600998   149.15779960
 H     29  22  21     2.072064671032   111.19012207   269.86312359
 H     29  22  21     2.056738372180   108.50955243    29.39686649

---------------------
BASIS SET INFORMATION
---------------------
There are 4 groups of distinct atoms

 Group   1 Type C   : 10s4p1d contracted to 3s2p1d pattern {631/31/1}
 Group   2 Type H   : 4s contracted to 2s pattern {31}
 Group   3 Type N   : 10s4p1d contracted to 3s2p1d pattern {631/31/1}
 Group   4 Type O   : 10s4p1d contracted to 3s2p1d pattern {631/31/1}

Atom   0C    basis set group =>   1
Atom   1H    basis set group =>   2
Atom   2H    basis set group =>   2
Atom   3H    basis set group =>   2
Atom   4C    basis set group =>   1
Atom   5N    basis set group =>   3
Atom   6C    basis set group =>   1
Atom   7C    basis set group =>   1
Atom   8C    basis set group =>   1
Atom   9C    basis set group =>   1
Atom  10H    basis set group =>   2
Atom  11C    basis set group =>   1
Atom  12H    basis set group =>   2
Atom  13C    basis set group =>   1
Atom  14H    basis set group =>   2
Atom  15H    basis set group =>   2
Atom  16H    basis set group =>   2
Atom  17C    basis set group =>   1
Atom  18H    basis set group =>   2
Atom  19H    basis set group =>   2
Atom  20C    basis set group =>   1
Atom  21N    basis set group =>   3
Atom  22O    basis set group =>   4
Atom  23O    basis set group =>   4
Atom  24C    basis set group =>   1
Atom  25H    basis set group =>   2
Atom  26H    basis set group =>   2
Atom  27H    basis set group =>   2
Atom  28C    basis set group =>   1
Atom  29H    basis set group =>   2
Atom  30H    basis set group =>   2
Atom  31H    basis set group =>   2
---------------------------------
AUXILIARY/J BASIS SET INFORMATION
---------------------------------
There are 4 groups of distinct atoms

 Group   1 Type C   : 13s11p10d2f contracted to 13s11p10d2f pattern {1111111111111/11111111111/1111111111/11}
 Group   2 Type H   : 9s2p contracted to 9s2p pattern {111111111/11}
 Group   3 Type N   : 14s11p10d2f contracted to 14s11p10d2f pattern {11111111111111/11111111111/1111111111/11}
 Group   4 Type O   : 14s11p10d2f contracted to 14s11p10d2f pattern {11111111111111/11111111111/1111111111/11}

Atom   0C    basis set group =>   1
Atom   1H    basis set group =>   2
Atom   2H    basis set group =>   2
Atom   3H    basis set group =>   2
Atom   4C    basis set group =>   1
Atom   5N    basis set group =>   3
Atom   6C    basis set group =>   1
Atom   7C    basis set group =>   1
Atom   8C    basis set group =>   1
Atom   9C    basis set group =>   1
Atom  10H    basis set group =>   2
Atom  11C    basis set group =>   1
Atom  12H    basis set group =>   2
Atom  13C    basis set group =>   1
Atom  14H    basis set group =>   2
Atom  15H    basis set group =>   2
Atom  16H    basis set group =>   2
Atom  17C    basis set group =>   1
Atom  18H    basis set group =>   2
Atom  19H    basis set group =>   2
Atom  20C    basis set group =>   1
Atom  21N    basis set group =>   3
Atom  22O    basis set group =>   4
Atom  23O    basis set group =>   4
Atom  24C    basis set group =>   1
Atom  25H    basis set group =>   2
Atom  26H    basis set group =>   2
Atom  27H    basis set group =>   2
Atom  28C    basis set group =>   1
Atom  29H    basis set group =>   2
Atom  30H    basis set group =>   2
Atom  31H    basis set group =>   2
---------------------------------
AUXILIARY/C BASIS SET INFORMATION
---------------------------------
There are 4 groups of distinct atoms

 Group   1 Type C   : 13s11p10d2f contracted to 13s11p10d2f pattern {1111111111111/11111111111/1111111111/11}
 Group   2 Type H   : 9s2p contracted to 9s2p pattern {111111111/11}
 Group   3 Type N   : 14s11p10d2f contracted to 14s11p10d2f pattern {11111111111111/11111111111/1111111111/11}
 Group   4 Type O   : 14s11p10d2f contracted to 14s11p10d2f pattern {11111111111111/11111111111/1111111111/11}

Atom   0C    basis set group =>   1
Atom   1H    basis set group =>   2
Atom   2H    basis set group =>   2
Atom   3H    basis set group =>   2
Atom   4C    basis set group =>   1
Atom   5N    basis set group =>   3
Atom   6C    basis set group =>   1
Atom   7C    basis set group =>   1
Atom   8C    basis set group =>   1
Atom   9C    basis set group =>   1
Atom  10H    basis set group =>   2
Atom  11C    basis set group =>   1
Atom  12H    basis set group =>   2
Atom  13C    basis set group =>   1
Atom  14H    basis set group =>   2
Atom  15H    basis set group =>   2
Atom  16H    basis set group =>   2
Atom  17C    basis set group =>   1
Atom  18H    basis set group =>   2
Atom  19H    basis set group =>   2
Atom  20C    basis set group =>   1
Atom  21N    basis set group =>   3
Atom  22O    basis set group =>   4
Atom  23O    basis set group =>   4
Atom  24C    basis set group =>   1
Atom  25H    basis set group =>   2
Atom  26H    basis set group =>   2
Atom  27H    basis set group =>   2
Atom  28C    basis set group =>   1
Atom  29H    basis set group =>   2
Atom  30H    basis set group =>   2
Atom  31H    basis set group =>   2
----------------------------------
AUXILIARY/JK BASIS SET INFORMATION
----------------------------------
There are 4 groups of distinct atoms

 Group   1 Type C   : 13s11p10d2f contracted to 13s11p10d2f pattern {1111111111111/11111111111/1111111111/11}
 Group   2 Type H   : 9s2p contracted to 9s2p pattern {111111111/11}
 Group   3 Type N   : 14s11p10d2f contracted to 14s11p10d2f pattern {11111111111111/11111111111/1111111111/11}
 Group   4 Type O   : 14s11p10d2f contracted to 14s11p10d2f pattern {11111111111111/11111111111/1111111111/11}

Atom   0C    basis set group =>   1
Atom   1H    basis set group =>   2
Atom   2H    basis set group =>   2
Atom   3H    basis set group =>   2
Atom   4C    basis set group =>   1
Atom   5N    basis set group =>   3
Atom   6C    basis set group =>   1
Atom   7C    basis set group =>   1
Atom   8C    basis set group =>   1
Atom   9C    basis set group =>   1
Atom  10H    basis set group =>   2
Atom  11C    basis set group =>   1
Atom  12H    basis set group =>   2
Atom  13C    basis set group =>   1
Atom  14H    basis set group =>   2
Atom  15H    basis set group =>   2
Atom  16H    basis set group =>   2
Atom  17C    basis set group =>   1
Atom  18H    basis set group =>   2
Atom  19H    basis set group =>   2
Atom  20C    basis set group =>   1
Atom  21N    basis set group =>   3
Atom  22O    basis set group =>   4
Atom  23O    basis set group =>   4
Atom  24C    basis set group =>   1
Atom  25H    basis set group =>   2
Atom  26H    basis set group =>   2
Atom  27H    basis set group =>   2
Atom  28C    basis set group =>   1
Atom  29H    basis set group =>   2
Atom  30H    basis set group =>   2
Atom  31H    basis set group =>   2


           ************************************************************
           *        Program running with 4 parallel MPI-processes     *
           *              working on a common directory               *
           ************************************************************
------------------------------------------------------------------------------
                           ORCA GTO INTEGRAL CALCULATION
                           -- RI-GTO INTEGRALS CHOSEN --
------------------------------------------------------------------------------
------------------------------------------------------------------------------
                   ___                                                        
                  /   \      - P O W E R E D   B Y -                         
                 /     \                                                     
                 |  |  |   _    _      __       _____    __    __             
                 |  |  |  | |  | |    /  \     |  _  \  |  |  /  |          
                  \  \/   | |  | |   /    \    | | | |  |  | /  /          
                 / \  \   | |__| |  /  /\  \   | |_| |  |  |/  /          
                |  |  |   |  __  | /  /__\  \  |    /   |      \           
                |  |  |   | |  | | |   __   |  |    \   |  |\   \          
                \     /   | |  | | |  |  |  |  | |\  \  |  | \   \       
                 \___/    |_|  |_| |__|  |__|  |_| \__\ |__|  \__/        
                                                                              
                      - O R C A' S   B I G   F R I E N D -                    
                                      &                                       
                       - I N T E G R A L  F E E D E R -                       
                                                                              
 v1 FN, 2020, v2 2021                                                         
------------------------------------------------------------------------------


Reading SHARK input file Nfn_octanol.SHARKINP.tmp ... ok
----------------------
SHARK INTEGRAL PACKAGE
----------------------

Number of atoms                             ...     32
Number of basis functions                   ...    256
Number of shells                            ...    128
Maximum angular momentum                    ...      2
Integral batch strategy                     ... SHARK/LIBINT Hybrid
RI-J (if used) integral strategy            ... SPLIT-RIJ (Revised 2003 algorithm where possible)
Printlevel                                  ...      1
Contraction scheme used                     ... SEGMENTED contraction
Coulomb Range Separation                    ... NOT USED
Exchange Range Separation                   ... NOT USED
Finite Nucleus Model                        ... NOT USED
Auxiliary Coulomb fitting basis             ... AVAILABLE
   # of basis functions in Aux-J            ...   2004
   # of shells in Aux-J                     ...    756
   Maximum angular momentum in Aux-J        ...      3
Auxiliary J/K fitting basis                 ... AVAILABLE
   # of basis functions in Aux-JK           ...   2004
   # of shells in Aux-JK                    ...    756
   Maximum angular momentum in Aux-JK       ...      3
Auxiliary Correlation fitting basis         ... AVAILABLE
   # of basis functions in Aux-C            ...   2004
   # of shells in Aux-C                     ...    756
   Maximum angular momentum in Aux-C        ...      3
Auxiliary 'external' fitting basis          ... NOT available
Integral threshold                          ...     2.500000e-11
Primitive cut-off                           ...     2.500000e-12
Primitive pair pre-selection threshold      ...     2.500000e-12

Calculating pre-screening integrals         ... done (  0.0 sec) Dimension = 128
Organizing shell pair data                  ... done (  0.2 sec)
Shell pair information
Total number of shell pairs                 ...      8256
Shell pairs after pre-screening             ...      6727
Total number of primitive shell pairs       ...     46744
Primitive shell pairs kept                  ...     22049
          la=0 lb=0:   2500 shell pairs
          la=1 lb=0:   2215 shell pairs
          la=1 lb=1:    498 shell pairs
          la=2 lb=0:    962 shell pairs
          la=2 lb=1:    448 shell pairs
          la=2 lb=2:    104 shell pairs

Calculating one electron integrals          ... done (  0.0 sec)
Calculating RI/J V-Matrix + Cholesky decomp.... done (  0.3 sec)
Calculating RI/JK V-Matrix + Cholesky decomp... done (  0.3 sec)
Calculating RI/C V-Matrix + Cholesky decomp.... done (  0.3 sec)
Calculating Nuclear repulsion               ... done (  0.0 sec) ENN=   1118.783182039903 Eh

SHARK setup successfully completed in   1.6 seconds

Maximum memory used throughout the entire GTOINT-calculation: 34.9 MB


           ************************************************************
           *        Program running with 4 parallel MPI-processes     *
           *              working on a common directory               *
           ************************************************************
-------------------------------------------------------------------------------
                                 ORCA SCF
-------------------------------------------------------------------------------

------------
SCF SETTINGS
------------
Hamiltonian:
 Density Functional     Method          .... DFT(GTOs)
 Exchange Functional    Exchange        .... B88
   X-Alpha parameter    XAlpha          ....  0.666667
   Becke's b parameter  XBeta           ....  0.004200
 Correlation Functional Correlation     .... LYP
 LDA part of GGA corr.  LDAOpt          .... VWN-5
 Gradients option       PostSCFGGA      .... off
 Hybrid DFT is turned on
   Fraction HF Exchange ScalHFX         ....  0.200000
   Scaling of DF-GGA-X  ScalDFX         ....  0.720000
   Scaling of DF-GGA-C  ScalDFC         ....  0.810000
   Scaling of DF-LDA-C  ScalLDAC        ....  1.000000
   Perturbative correction              ....  0.000000
   Density functional embedding theory  .... OFF
   NL short-range parameter             ....  4.800000
 RI-approximation to the Coulomb term is turned on
   Number of AuxJ basis functions       .... 2004
   RIJ-COSX (HFX calculated with COS-X)).... on


General Settings:
 Integral files         IntName         .... Nfn_octanol
 Hartree-Fock type      HFTyp           .... RHF
 Total Charge           Charge          ....    0
 Multiplicity           Mult            ....    1
 Number of Electrons    NEL             ....  118
 Basis Dimension        Dim             ....  256
 Nuclear Repulsion      ENuc            ....   1118.7831820399 Eh

Convergence Acceleration:
 DIIS                   CNVDIIS         .... on
   Start iteration      DIISMaxIt       ....    12
   Startup error        DIISStart       ....  0.200000
   # of expansion vecs  DIISMaxEq       ....     5
   Bias factor          DIISBfac        ....   1.050
   Max. coefficient     DIISMaxC        ....  10.000
 Trust-Rad. Augm. Hess. CNVTRAH         .... auto
   Auto Start mean grad. ratio tolernc. ....  1.125000
   Auto Start start iteration           ....    20
   Auto Start num. interpolation iter.  ....    10
   Max. Number of Micro iterations      ....    16
   Max. Number of Macro iterations      .... Maxiter - #DIIS iter
   Number of Davidson start vectors     ....     2
   Converg. threshold I  (grad. norm)   ....   1.000e-05
   Converg. threshold II (energy diff.) ....   1.000e-08
   Grad. Scal. Fac. for Micro threshold ....   0.100
   Minimum threshold for Micro iter.    ....   0.010
   NR start threshold (gradient norm)   ....   0.001
   Initial trust radius                 ....   0.400
   Minimum AH scaling param. (alpha)    ....   1.000
   Maximum AH scaling param. (alpha)    .... 1000.000
   Orbital update algorithm             .... Taylor
   White noise on init. David. guess    .... on
   Maximum white noise                  ....   0.010
   Quad. conv. algorithm                .... NR
 SOSCF                  CNVSOSCF        .... on
   Start iteration      SOSCFMaxIt      ....   150
   Startup grad/error   SOSCFStart      ....  0.003300
 Level Shifting         CNVShift        .... on
   Level shift para.    LevelShift      ....    0.2500
   Turn off err/grad.   ShiftErr        ....    0.0010
 Zerner damping         CNVZerner       .... off
 Static damping         CNVDamp         .... on
   Fraction old density DampFac         ....    0.7000
   Max. Damping (<1)    DampMax         ....    0.9800
   Min. Damping (>=0)   DampMin         ....    0.0000
   Turn off err/grad.   DampErr         ....    0.1000
 Fernandez-Rico         CNVRico         .... off

SCF Procedure:
 Maximum # iterations   MaxIter         ....   125
 SCF integral mode      SCFMode         .... Direct
   Integral package                     .... SHARK and LIBINT hybrid scheme
 Reset frequency        DirectResetFreq ....    20
 Integral Threshold     Thresh          ....  2.500e-11 Eh
 Primitive CutOff       TCut            ....  2.500e-12 Eh

Convergence Tolerance:
 Convergence Check Mode ConvCheckMode   .... Total+1el-Energy
 Convergence forced     ConvForced      .... 0
 Energy Change          TolE            ....  1.000e-08 Eh
 1-El. energy change                    ....  1.000e-05 Eh
 Orbital Gradient       TolG            ....  1.000e-05
 Orbital Rotation angle TolX            ....  1.000e-05
 DIIS Error             TolErr          ....  5.000e-07


Diagonalization of the overlap matrix:
Smallest eigenvalue                        ... 4.660e-04
Time for diagonalization                   ...    0.030 sec
Threshold for overlap eigenvalues          ... 1.000e-08
Number of eigenvalues below threshold      ... 0
Time for construction of square roots      ...    0.009 sec
Total time needed                          ...    0.040 sec

Time for model grid setup =    0.274 sec

------------------------------
INITIAL GUESS: MODEL POTENTIAL
------------------------------
Loading Hartree-Fock densities                     ... done
Calculating cut-offs                               ... done
Initializing the effective Hamiltonian             ... done
Setting up the integral package (SHARK)            ... done
Starting the Coulomb interaction                   ... done (   0.4 sec)
Reading the grid                                   ... done
Mapping shells                                     ... done
Starting the XC term evaluation                    ... done (   0.2 sec)
  promolecular density results
     # of electrons  =    117.988605665
     EX              =    -96.002995384
     EC              =     -3.990397160
     EX+EC           =    -99.993392544
Transforming the Hamiltonian                       ... done (   0.0 sec)
Diagonalizing the Hamiltonian                      ... done (   0.0 sec)
Back transforming the eigenvectors                 ... done (   0.0 sec)
Now organizing SCF variables                       ... done
                      ------------------
                      INITIAL GUESS DONE (   0.9 sec)
                      ------------------
-------------------
DFT GRID GENERATION
-------------------

General Integration Accuracy     IntAcc      ... 4.388
Radial Grid Type                 RadialGrid  ... OptM3 with GC (2021)
Angular Grid (max. ang.)         AngularGrid ... 4 (Lebedev-302)
Angular grid pruning method      GridPruning ... 4 (adaptive)
Weight generation scheme         WeightScheme... Becke
Basis function cutoff            BFCut       ... 1.0000e-11
Integration weight cutoff        WCut        ... 1.0000e-14
Angular grids for H and He will be reduced by one unit
Partially contracted basis set               ... off
Rotationally invariant grid construction     ... off

Total number of grid points                  ...   146918
Total number of batches                      ...     2313
Average number of points per batch           ...       63
Average number of grid points per atom       ...     4591
Time for grid setup =    1.137 sec

--------------------
COSX GRID GENERATION
--------------------

GRIDX 1
-------
General Integration Accuracy     IntAcc      ... 3.816
Radial Grid Type                 RadialGrid  ... OptM3 with GC (2021)
Angular Grid (max. ang.)         AngularGrid ... 1 (Lebedev-50)
Angular grid pruning method      GridPruning ... 4 (adaptive)
Weight generation scheme         WeightScheme... Becke
Basis function cutoff            BFCut       ... 1.0000e-11
Integration weight cutoff        WCut        ... 1.0000e-14
Angular grids for H and He will be reduced by one unit
Partially contracted basis set               ... on
Rotationally invariant grid construction     ... off

Total number of grid points                  ...    18724
Total number of batches                      ...      307
Average number of points per batch           ...       60
Average number of grid points per atom       ...      585
UseSFitting                                  ... on

GRIDX 2
-------
General Integration Accuracy     IntAcc      ... 4.020
Radial Grid Type                 RadialGrid  ... OptM3 with GC (2021)
Angular Grid (max. ang.)         AngularGrid ... 2 (Lebedev-110)
Angular grid pruning method      GridPruning ... 4 (adaptive)
Weight generation scheme         WeightScheme... Becke
Basis function cutoff            BFCut       ... 1.0000e-11
Integration weight cutoff        WCut        ... 1.0000e-14
Angular grids for H and He will be reduced by one unit
Partially contracted basis set               ... on
Rotationally invariant grid construction     ... off

Total number of grid points                  ...    40145
Total number of batches                      ...      643
Average number of points per batch           ...       62
Average number of grid points per atom       ...     1255
UseSFitting                                  ... on

GRIDX 3
-------
General Integration Accuracy     IntAcc      ... 4.338
Radial Grid Type                 RadialGrid  ... OptM3 with GC (2021)
Angular Grid (max. ang.)         AngularGrid ... 3 (Lebedev-194)
Angular grid pruning method      GridPruning ... 4 (adaptive)
Weight generation scheme         WeightScheme... Becke
Basis function cutoff            BFCut       ... 1.0000e-11
Integration weight cutoff        WCut        ... 1.0000e-14
Angular grids for H and He will be reduced by one unit
Partially contracted basis set               ... on
Rotationally invariant grid construction     ... off

Total number of grid points                  ...    87627
Total number of batches                      ...     1385
Average number of points per batch           ...       63
Average number of grid points per atom       ...     2738
UseSFitting                                  ... on

Time for X-Grid setup             =    2.347 sec


--------------------
CPCM SOLVATION MODEL
--------------------
CPCM parameters:
  Epsilon                                         ...       9.8629
  Refrac                                          ...       1.4295
  Rsolv                                           ...       1.3000
  Surface type                                    ... GAUSSIAN VDW
  Epsilon function type                           ...         CPCM
Radii:
 Radius for C  used is    3.8550 Bohr (=   2.0400 Ang.)
 Radius for H  used is    2.4944 Bohr (=   1.3200 Ang.)
 Radius for N  used is    3.5149 Bohr (=   1.8600 Ang.)
 Radius for O  used is    3.4469 Bohr (=   1.8240 Ang.)
Calculating surface                               ...        done! (  0.0s)
GEPOL surface points                              ...         1686
GEPOL Volume                                      ...    1857.3414
GEPOL Surface-area                                ...     966.5322
Calculating surface distance matrix               ...        done! (  0.0s)
Performing Cholesky decomposition & store         ...        done! (  0.1s)
Overall time for CPCM initialization              ...                 0.1s
--------------
SCF ITERATIONS
--------------
ITER       Energy         Delta-E        Max-DP      RMS-DP      [F,P]     Damp
               ***  Starting incremental Fock matrix formation  ***
  0   -726.0190174899   0.000000000000 0.09328705  0.00201637  0.2690791 0.7000
  1   -726.2177802630  -0.198762773140 0.05212566  0.00134900  0.1073305 0.7000
                               ***Turning on DIIS***
  2   -726.2957833314  -0.078003068426 0.06228421  0.00210749  0.0368571 0.0000
  3   -726.4215720231  -0.125788691682 0.03580675  0.00092517  0.0549945 0.0000
  4   -726.4460995966  -0.024527573523 0.00897671  0.00029810  0.0139913 0.0000
  5   -726.4480084719  -0.001908875295 0.00352405  0.00009034  0.0052579 0.0000
                      *** Initiating the SOSCF procedure ***
                           *** Shutting down DIIS ***
                      *** Re-Reading the Fockian *** 
                      *** Removing any level shift *** 
ITER      Energy       Delta-E        Grad      Rot      Max-DP    RMS-DP
  6   -726.44810699  -0.0000985229  0.000223  0.000223  0.001314  0.000040
               *** Restarting incremental Fock matrix formation ***
  7   -726.44805730   0.0000496904  0.000211  0.000788  0.001642  0.000024
  8   -726.44805228   0.0000050204  0.000402  0.000583  0.001105  0.000015
  9   -726.44806034  -0.0000080515  0.000043  0.000121  0.000276  0.000004
 10   -726.44806015   0.0000001862  0.000082  0.000078  0.000196  0.000003
 11   -726.44806040  -0.0000002460  0.000004  0.000016  0.000024  0.000001
 12   -726.44806040  -0.0000000060  0.000007  0.000011  0.000015  0.000000
                  ***Gradient check signals convergence***
              ***Rediagonalizing the Fockian in SOSCF/NRSCF***

               *****************************************************
               *                     SUCCESS                       *
               *           SCF CONVERGED AFTER  13 CYCLES          *
               *****************************************************

Old exchange energy                            =    -19.537477393 Eh
New exchange energy                            =    -19.537543135 Eh
Exchange energy change after final integration =     -0.000065742 Eh
Total energy after final integration           =   -726.448126135 Eh
Final COS-X integration done in                =    10.614 sec

----------------
TOTAL SCF ENERGY
----------------

Total Energy       :         -726.44812614 Eh          -19767.65848 eV

Components:
Nuclear Repulsion  :         1118.78318204 Eh           30443.63811 eV
Electronic Energy  :        -1845.23130818 Eh          -50211.29659 eV
One Electron Energy:        -3209.18438705 Eh          -87326.34676 eV
Two Electron Energy:         1363.95307887 Eh           37115.05017 eV
Max COSX asymmetry :            0.00000188 Eh               0.00005 eV
CPCM Dielectric    :           -0.01605047 Eh              -0.43676 eV

Virial components:
Potential Energy   :        -1448.58949586 Eh          -39418.12416 eV
Kinetic Energy     :          722.14136972 Eh           19650.46568 eV
Virial Ratio       :            2.00596387


DFT components:
N(Alpha)           :       58.999978728695 electrons
N(Beta)            :       58.999978728695 electrons
N(Total)           :      117.999957457391 electrons
E(X)               :      -77.590244872166 Eh       
E(C)               :       -4.705349098438 Eh       
E(XC)              :      -82.295593970604 Eh       
DFET-embed. en.    :        0.000000000000 Eh       
CPCM Solvation Model Properties:
Surface-charge          :           -0.02151480
Charge-correction       :           -0.00023642 Eh              -0.00643 eV
Free-energy (cav+disp)  :  This term is not implemented in the current solvation scheme

---------------
SCF CONVERGENCE
---------------

  Last Energy change         ...    8.2192e-09  Tolerance :   1.0000e-08
  Last MAX-Density change    ...    7.9936e-15  Tolerance :   1.0000e-07
  Last RMS-Density change    ...    5.9198e-17  Tolerance :   5.0000e-09
  Last Orbital Gradient      ...    8.5317e-07  Tolerance :   1.0000e-05
  Last Orbital Rotation      ...    2.5537e-06  Tolerance :   1.0000e-05

             **** THE GBW FILE WAS UPDATED (Nfn_octanol.gbw) ****
             **** DENSITY Nfn_octanol.scfp WAS UPDATED ****
             **** ENERGY FILE WAS UPDATED (Nfn_octanol.en.tmp) ****
             **** THE GBW FILE WAS UPDATED (Nfn_octanol.gbw) ****
             **** DENSITY Nfn_octanol.scfp WAS UPDATED ****
----------------
ORBITAL ENERGIES
----------------

  NO   OCC          E(Eh)            E(eV) 
   0   2.0000     -19.112901      -520.0885 
   1   2.0000     -19.106874      -519.9245 
   2   2.0000     -14.359518      -390.7424 
   3   2.0000     -14.354734      -390.6122 
   4   2.0000     -10.283445      -279.8268 
   5   2.0000     -10.277344      -279.6607 
   6   2.0000     -10.221062      -278.1292 
   7   2.0000     -10.214034      -277.9380 
   8   2.0000     -10.198208      -277.5073 
   9   2.0000     -10.193851      -277.3888 
  10   2.0000     -10.184125      -277.1241 
  11   2.0000     -10.183652      -277.1113 
  12   2.0000     -10.182998      -277.0935 
  13   2.0000     -10.182406      -277.0774 
  14   2.0000     -10.179106      -276.9876 
  15   2.0000     -10.171041      -276.7681 
  16   2.0000      -1.036983       -28.2178 
  17   2.0000      -1.022373       -27.8202 
  18   2.0000      -0.939099       -25.5542 
  19   2.0000      -0.924996       -25.1704 
  20   2.0000      -0.845383       -23.0040 
  21   2.0000      -0.761750       -20.7283 
  22   2.0000      -0.744471       -20.2581 
  23   2.0000      -0.740612       -20.1531 
  24   2.0000      -0.717172       -19.5152 
  25   2.0000      -0.702320       -19.1111 
  26   2.0000      -0.667774       -18.1711 
  27   2.0000      -0.619202       -16.8494 
  28   2.0000      -0.605974       -16.4894 
  29   2.0000      -0.557644       -15.1743 
  30   2.0000      -0.533313       -14.5122 
  31   2.0000      -0.512505       -13.9460 
  32   2.0000      -0.501276       -13.6404 
  33   2.0000      -0.489495       -13.3198 
  34   2.0000      -0.473706       -12.8902 
  35   2.0000      -0.461618       -12.5613 
  36   2.0000      -0.457192       -12.4408 
  37   2.0000      -0.450967       -12.2714 
  38   2.0000      -0.438757       -11.9392 
  39   2.0000      -0.431116       -11.7313 
  40   2.0000      -0.418557       -11.3895 
  41   2.0000      -0.409548       -11.1444 
  42   2.0000      -0.402462       -10.9515 
  43   2.0000      -0.397936       -10.8284 
  44   2.0000      -0.396488       -10.7890 
  45   2.0000      -0.391453       -10.6520 
  46   2.0000      -0.388602       -10.5744 
  47   2.0000      -0.370133       -10.0718 
  48   2.0000      -0.365118        -9.9354 
  49   2.0000      -0.362008        -9.8507 
  50   2.0000      -0.352514        -9.5924 
  51   2.0000      -0.345597        -9.4042 
  52   2.0000      -0.338120        -9.2007 
  53   2.0000      -0.270264        -7.3543 
  54   2.0000      -0.258752        -7.0410 
  55   2.0000      -0.251562        -6.8453 
  56   2.0000      -0.247410        -6.7324 
  57   2.0000      -0.236300        -6.4301 
  58   2.0000      -0.230587        -6.2746 
  59   0.0000      -0.008226        -0.2238 
  60   0.0000      -0.002852        -0.0776 
  61   0.0000       0.020949         0.5701 
  62   0.0000       0.029024         0.7898 
  63   0.0000       0.099077         2.6960 
  64   0.0000       0.109363         2.9759 
  65   0.0000       0.126728         3.4484 
  66   0.0000       0.138656         3.7730 
  67   0.0000       0.145413         3.9569 
  68   0.0000       0.147378         4.0104 
  69   0.0000       0.152454         4.1485 
  70   0.0000       0.157948         4.2980 
  71   0.0000       0.165081         4.4921 
  72   0.0000       0.168374         4.5817 
  73   0.0000       0.171385         4.6636 
  74   0.0000       0.178050         4.8450 
  75   0.0000       0.183144         4.9836 
  76   0.0000       0.184920         5.0319 
  77   0.0000       0.192608         5.2411 
  78   0.0000       0.202703         5.5158 
  79   0.0000       0.209817         5.7094 
  80   0.0000       0.213909         5.8208 
  81   0.0000       0.227834         6.1997 
  82   0.0000       0.228535         6.2187 
  83   0.0000       0.243040         6.6135 
  84   0.0000       0.269636         7.3372 
  85   0.0000       0.282325         7.6825 
  86   0.0000       0.289288         7.8719 
  87   0.0000       0.308052         8.3825 
  88   0.0000       0.330660         8.9977 
  89   0.0000       0.339614         9.2414 
  90   0.0000       0.359380         9.7792 
  91   0.0000       0.372939        10.1482 
  92   0.0000       0.402724        10.9587 
  93   0.0000       0.407289        11.0829 
  94   0.0000       0.468210        12.7406 
  95   0.0000       0.494817        13.4647 
  96   0.0000       0.509128        13.8541 
  97   0.0000       0.517220        14.0743 
  98   0.0000       0.522870        14.2280 
  99   0.0000       0.528867        14.3912 
 100   0.0000       0.538872        14.6635 
 101   0.0000       0.540466        14.7068 
 102   0.0000       0.555771        15.1233 
 103   0.0000       0.558345        15.1933 
 104   0.0000       0.566452        15.4140 
 105   0.0000       0.576420        15.6852 
 106   0.0000       0.581934        15.8352 
 107   0.0000       0.589781        16.0487 
 108   0.0000       0.592534        16.1237 
 109   0.0000       0.600121        16.3301 
 110   0.0000       0.616690        16.7810 
 111   0.0000       0.622365        16.9354 
 112   0.0000       0.623717        16.9722 
 113   0.0000       0.634264        17.2592 
 114   0.0000       0.639699        17.4071 
 115   0.0000       0.650374        17.6976 
 116   0.0000       0.656989        17.8776 
 117   0.0000       0.675647        18.3853 
 118   0.0000       0.693133        18.8611 
 119   0.0000       0.699511        19.0347 
 120   0.0000       0.719683        19.5836 
 121   0.0000       0.733003        19.9460 
 122   0.0000       0.754732        20.5373 
 123   0.0000       0.763196        20.7676 
 124   0.0000       0.785083        21.3632 
 125   0.0000       0.796155        21.6645 
 126   0.0000       0.817586        22.2476 
 127   0.0000       0.826032        22.4775 
 128   0.0000       0.833597        22.6833 
 129   0.0000       0.835644        22.7390 
 130   0.0000       0.842177        22.9168 
 131   0.0000       0.847329        23.0570 
 132   0.0000       0.853590        23.2274 
 133   0.0000       0.862096        23.4588 
 134   0.0000       0.872699        23.7473 
 135   0.0000       0.892869        24.2962 
 136   0.0000       0.897539        24.4233 
 137   0.0000       0.905976        24.6529 
 138   0.0000       0.911460        24.8021 
 139   0.0000       0.917288        24.9607 
 140   0.0000       0.932198        25.3664 
 141   0.0000       0.933812        25.4103 
 142   0.0000       0.941906        25.6306 
 143   0.0000       0.947902        25.7937 
 144   0.0000       0.954948        25.9854 
 145   0.0000       0.958176        26.0733 
 146   0.0000       0.971977        26.4488 
 147   0.0000       0.976439        26.5702 
 148   0.0000       0.992677        27.0121 
 149   0.0000       1.023275        27.8447 
 150   0.0000       1.028911        27.9981 
 151   0.0000       1.044005        28.4088 
 152   0.0000       1.055913        28.7329 
 153   0.0000       1.071813        29.1655 
 154   0.0000       1.092613        29.7315 
 155   0.0000       1.109915        30.2023 
 156   0.0000       1.123780        30.5796 
 157   0.0000       1.145937        31.1825 
 158   0.0000       1.154151        31.4061 
 159   0.0000       1.187322        32.3087 
 160   0.0000       1.203479        32.7483 
 161   0.0000       1.225205        33.3395 
 162   0.0000       1.239920        33.7399 
 163   0.0000       1.259778        34.2803 
 164   0.0000       1.303381        35.4668 
 165   0.0000       1.328348        36.1462 
 166   0.0000       1.337738        36.4017 
 167   0.0000       1.342513        36.5316 
 168   0.0000       1.385834        37.7105 
 169   0.0000       1.392021        37.8788 
 170   0.0000       1.426466        38.8161 
 171   0.0000       1.434394        39.0318 
 172   0.0000       1.440047        39.1857 
 173   0.0000       1.450272        39.4639 
 174   0.0000       1.458272        39.6816 
 175   0.0000       1.488844        40.5135 
 176   0.0000       1.493476        40.6396 
 177   0.0000       1.504710        40.9452 
 178   0.0000       1.515435        41.2371 
 179   0.0000       1.553289        42.2671 
 180   0.0000       1.567041        42.6413 
 181   0.0000       1.610726        43.8301 
 182   0.0000       1.643989        44.7352 
 183   0.0000       1.703145        46.3449 
 184   0.0000       1.720673        46.8219 
 185   0.0000       1.763901        47.9982 
 186   0.0000       1.778523        48.3961 
 187   0.0000       1.801436        49.0196 
 188   0.0000       1.809583        49.2413 
 189   0.0000       1.821620        49.5688 
 190   0.0000       1.837623        50.0043 
 191   0.0000       1.852543        50.4102 
 192   0.0000       1.865683        50.7678 
 193   0.0000       1.871458        50.9250 
 194   0.0000       1.878633        51.1202 
 195   0.0000       1.898335        51.6563 
 196   0.0000       1.916094        52.1396 
 197   0.0000       1.932071        52.5743 
 198   0.0000       1.944542        52.9137 
 199   0.0000       1.946441        52.9653 
 200   0.0000       1.968650        53.5697 
 201   0.0000       1.976776        53.7908 
 202   0.0000       1.984242        53.9940 
 203   0.0000       1.986657        54.0597 
 204   0.0000       2.002848        54.5003 
 205   0.0000       2.033234        55.3271 
 206   0.0000       2.036627        55.4194 
 207   0.0000       2.068535        56.2877 
 208   0.0000       2.073574        56.4248 
 209   0.0000       2.081461        56.6394 
 210   0.0000       2.094124        56.9840 
 211   0.0000       2.126480        57.8645 
 212   0.0000       2.132328        58.0236 
 213   0.0000       2.147406        58.4339 
 214   0.0000       2.159600        58.7657 
 215   0.0000       2.174272        59.1649 
 216   0.0000       2.202620        59.9363 
 217   0.0000       2.212404        60.2026 
 218   0.0000       2.230671        60.6997 
 219   0.0000       2.251302        61.2610 
 220   0.0000       2.276454        61.9455 
 221   0.0000       2.285806        62.1999 
 222   0.0000       2.293588        62.4117 
 223   0.0000       2.305666        62.7404 
 224   0.0000       2.326677        63.3121 
 225   0.0000       2.327855        63.3441 
 226   0.0000       2.360628        64.2360 
 227   0.0000       2.366512        64.3961 
 228   0.0000       2.419058        65.8259 
 229   0.0000       2.438979        66.3680 
 230   0.0000       2.457357        66.8681 
 231   0.0000       2.466190        67.1085 
 232   0.0000       2.497023        67.9475 
 233   0.0000       2.572423        69.9992 
 234   0.0000       2.585212        70.3472 
 235   0.0000       2.595581        70.6294 
 236   0.0000       2.614436        71.1424 
 237   0.0000       2.625954        71.4558 
 238   0.0000       2.633066        71.6494 
 239   0.0000       2.656566        72.2888 
 240   0.0000       2.677677        72.8633 
 241   0.0000       2.697964        73.4153 
 242   0.0000       2.723923        74.1217 
 243   0.0000       2.735533        74.4376 
 244   0.0000       2.743425        74.6524 
 245   0.0000       2.753424        74.9245 
 246   0.0000       2.820087        76.7385 
 247   0.0000       2.860201        77.8300 
 248   0.0000       2.936596        79.9088 
 249   0.0000       2.956028        80.4376 
 250   0.0000       3.027099        82.3715 
 251   0.0000       3.039534        82.7099 
 252   0.0000       3.120589        84.9156 
 253   0.0000       3.167345        86.1878 
 254   0.0000       3.198242        87.0286 
 255   0.0000       3.423382        93.1550 

                    ********************************
                    * MULLIKEN POPULATION ANALYSIS *
                    ********************************

-----------------------
MULLIKEN ATOMIC CHARGES
-----------------------
   0 C :   -0.555127
   1 H :    0.194980
   2 H :    0.179508
   3 H :    0.191095
   4 C :    0.526761
   5 N :   -0.430661
   6 C :    0.200992
   7 C :   -0.149631
   8 C :   -0.149796
   9 C :   -0.162435
  10 H :    0.158697
  11 C :   -0.164294
  12 H :    0.171965
  13 C :   -0.133902
  14 H :    0.155252
  15 H :    0.154716
  16 H :    0.152969
  17 C :   -0.249342
  18 H :    0.197498
  19 H :    0.188522
  20 C :    0.558556
  21 N :   -0.377302
  22 O :   -0.534151
  23 O :   -0.521755
  24 C :   -0.344366
  25 H :    0.189224
  26 H :    0.178315
  27 H :    0.180484
  28 C :   -0.329547
  29 H :    0.169927
  30 H :    0.169576
  31 H :    0.183270
Sum of atomic charges:    0.0000000

--------------------------------
MULLIKEN REDUCED ORBITAL CHARGES
--------------------------------
  0 C s       :     3.315569  s :     3.315569
      pz      :     1.062964  p :     3.207482
      px      :     1.064626
      py      :     1.079892
      dz2     :     0.001253  d :     0.032076
      dxz     :     0.009946
      dyz     :     0.009545
      dx2y2   :     0.002208
      dxy     :     0.009124
  1 H s       :     0.805020  s :     0.805020
  2 H s       :     0.820492  s :     0.820492
  3 H s       :     0.808905  s :     0.808905
  4 C s       :     2.986033  s :     2.986033
      pz      :     0.808017  p :     2.379399
      px      :     0.786254
      py      :     0.785128
      dz2     :     0.012135  d :     0.107806
      dxz     :     0.027828
      dyz     :     0.011416
      dx2y2   :     0.027657
      dxy     :     0.028771
  5 N s       :     3.548689  s :     3.548689
      pz      :     1.430681  p :     3.843933
      px      :     1.141369
      py      :     1.271883
      dz2     :     0.005070  d :     0.038039
      dxz     :     0.007986
      dyz     :     0.005945
      dx2y2   :     0.009181
      dxy     :     0.009858
  6 C s       :     3.093306  s :     3.093306
      pz      :     0.965031  p :     2.649470
      px      :     0.776378
      py      :     0.908061
      dz2     :     0.007330  d :     0.056231
      dxz     :     0.011511
      dyz     :     0.006534
      dx2y2   :     0.015336
      dxy     :     0.015521
  7 C s       :     3.199706  s :     3.199706
      pz      :     0.978853  p :     2.914441
      px      :     0.945611
      py      :     0.989977
      dz2     :     0.003406  d :     0.035483
      dxz     :     0.007582
      dyz     :     0.005583
      dx2y2   :     0.009659
      dxy     :     0.009252
  8 C s       :     3.201939  s :     3.201939
      pz      :     0.976494  p :     2.912647
      px      :     0.959426
      py      :     0.976727
      dz2     :     0.003801  d :     0.035210
      dxz     :     0.006820
      dyz     :     0.005417
      dx2y2   :     0.009756
      dxy     :     0.009417
  9 C s       :     3.207353  s :     3.207353
      pz      :     0.985418  p :     2.918919
      px      :     0.979800
      py      :     0.953701
      dz2     :     0.003695  d :     0.036163
      dxz     :     0.007218
      dyz     :     0.005266
      dx2y2   :     0.009251
      dxy     :     0.010732
 10 H s       :     0.841303  s :     0.841303
 11 C s       :     3.211124  s :     3.211124
      pz      :     0.986424  p :     2.917000
      px      :     0.928366
      py      :     1.002210
      dz2     :     0.003335  d :     0.036170
      dxz     :     0.006956
      dyz     :     0.005768
      dx2y2   :     0.010898
      dxy     :     0.009212
 12 H s       :     0.828035  s :     0.828035
 13 C s       :     3.195772  s :     3.195772
      pz      :     0.971537  p :     2.902050
      px      :     0.979049
      py      :     0.951465
      dz2     :     0.005821  d :     0.036079
      dxz     :     0.004655
      dyz     :     0.005184
      dx2y2   :     0.010163
      dxy     :     0.010258
 14 H s       :     0.844748  s :     0.844748
 15 H s       :     0.845284  s :     0.845284
 16 H s       :     0.847031  s :     0.847031
 17 C s       :     3.240109  s :     3.240109
      pz      :     0.996713  p :     2.956873
      px      :     0.928876
      py      :     1.031285
      dz2     :     0.005527  d :     0.052359
      dxz     :     0.014829
      dyz     :     0.012460
      dx2y2   :     0.005596
      dxy     :     0.013946
 18 H s       :     0.802502  s :     0.802502
 19 H s       :     0.811478  s :     0.811478
 20 C s       :     2.987520  s :     2.987520
      pz      :     0.780052  p :     2.346270
      px      :     0.767058
      py      :     0.799159
      dz2     :     0.023199  d :     0.107655
      dxz     :     0.031524
      dyz     :     0.015390
      dx2y2   :     0.018242
      dxy     :     0.019300
 21 N s       :     3.544731  s :     3.544731
      pz      :     1.304462  p :     3.795121
      px      :     1.087284
      py      :     1.403376
      dz2     :     0.006604  d :     0.037449
      dxz     :     0.009519
      dyz     :     0.005475
      dx2y2   :     0.008508
      dxy     :     0.007343
 22 O s       :     3.867939  s :     3.867939
      pz      :     1.431207  p :     4.641320
      px      :     1.733081
      py      :     1.477033
      dz2     :     0.007862  d :     0.024892
      dxz     :     0.005224
      dyz     :     0.006471
      dx2y2   :     0.002691
      dxy     :     0.002645
 23 O s       :     3.861654  s :     3.861654
      pz      :     1.615596  p :     4.635130
      px      :     1.366382
      py      :     1.653152
      dz2     :     0.002455  d :     0.024970
      dxz     :     0.006948
      dyz     :     0.000899
      dx2y2   :     0.007225
      dxy     :     0.007443
 24 C s       :     3.269116  s :     3.269116
      pz      :     0.974283  p :     3.027400
      px      :     1.071658
      py      :     0.981459
      dz2     :     0.014316  d :     0.047849
      dxz     :     0.005119
      dyz     :     0.009725
      dx2y2   :     0.013469
      dxy     :     0.005220
 25 H s       :     0.810776  s :     0.810776
 26 H s       :     0.821685  s :     0.821685
 27 H s       :     0.819516  s :     0.819516
 28 C s       :     3.258994  s :     3.258994
      pz      :     0.968904  p :     3.022335
      px      :     0.979033
      py      :     1.074398
      dz2     :     0.005039  d :     0.048218
      dxz     :     0.014172
      dyz     :     0.012995
      dx2y2   :     0.005884
      dxy     :     0.010129
 29 H s       :     0.830073  s :     0.830073
 30 H s       :     0.830424  s :     0.830424
 31 H s       :     0.816730  s :     0.816730


                     *******************************
                     * LOEWDIN POPULATION ANALYSIS *
                     *******************************

----------------------
LOEWDIN ATOMIC CHARGES
----------------------
   0 C :   -0.392239
   1 H :    0.158135
   2 H :    0.149424
   3 H :    0.156148
   4 C :    0.126489
   5 N :   -0.046655
   6 C :    0.011787
   7 C :   -0.136463
   8 C :   -0.141881
   9 C :   -0.132456
  10 H :    0.146177
  11 C :   -0.131365
  12 H :    0.152898
  13 C :   -0.134104
  14 H :    0.142940
  15 H :    0.142280
  16 H :    0.142198
  17 C :   -0.172480
  18 H :    0.160344
  19 H :    0.149390
  20 C :    0.110401
  21 N :   -0.080196
  22 O :   -0.331167
  23 O :   -0.321102
  24 C :   -0.282932
  25 H :    0.139643
  26 H :    0.144164
  27 H :    0.137625
  28 C :   -0.278760
  29 H :    0.135317
  30 H :    0.130577
  31 H :    0.145863

-------------------------------
LOEWDIN REDUCED ORBITAL CHARGES
-------------------------------
  0 C s       :     2.979933  s :     2.979933
      pz      :     1.112176  p :     3.349068
      px      :     1.110901
      py      :     1.125992
      dz2     :     0.002411  d :     0.063238
      dxz     :     0.020056
      dyz     :     0.018312
      dx2y2   :     0.004358
      dxy     :     0.018102
  1 H s       :     0.841865  s :     0.841865
  2 H s       :     0.850576  s :     0.850576
  3 H s       :     0.843852  s :     0.843852
  4 C s       :     2.849991  s :     2.849991
      pz      :     0.875413  p :     2.769704
      px      :     0.996569
      py      :     0.897721
      dz2     :     0.027001  d :     0.253817
      dxz     :     0.064602
      dyz     :     0.026600
      dx2y2   :     0.066610
      dxy     :     0.069005
  5 N s       :     3.079837  s :     3.079837
      pz      :     1.418429  p :     3.869338
      px      :     1.163776
      py      :     1.287133
      dz2     :     0.011508  d :     0.097481
      dxz     :     0.019498
      dyz     :     0.015748
      dx2y2   :     0.024200
      dxy     :     0.026527
  6 C s       :     2.854683  s :     2.854683
      pz      :     1.016846  p :     2.995964
      px      :     0.939535
      py      :     1.039583
[...]
     58      -0.000908   0.000469  -0.000789  -0.000697   0.001420   0.000186
     59      -0.000609   0.000189  -0.000479  -0.000449   0.000865   0.000065
     60      -0.000011   0.000158  -0.000021  -0.000013   0.000040  -0.000097
     61      -0.000018  -0.000336  -0.000008  -0.000011   0.000027   0.000081
     62      -0.000028  -0.001118   0.000000  -0.000008   0.000026   0.000245
     63       0.000006   0.000138   0.000003   0.000002  -0.000021   0.000080
     64       0.000007  -0.000093   0.000004   0.000004  -0.000014   0.000011
     65       0.000009  -0.000223   0.000001   0.000006  -0.000008  -0.000065
     66       0.000048   0.000675   0.000074   0.000075  -0.000096  -0.000271
     67       0.000006   0.000396  -0.000009  -0.000000   0.000002  -0.000030
     68       0.000021   0.000464   0.000012   0.000019  -0.000021  -0.000191
     69       0.000056   0.000009   0.000002   0.000046  -0.000075   0.000031
     70      -0.000037  -0.000007  -0.000014  -0.000009   0.000080  -0.000031
     71       0.000007   0.000003   0.000015  -0.000005  -0.000035   0.000028
     72      -0.000048  -0.000259  -0.000002  -0.000016   0.000037  -0.000023
     73      -0.000015   0.000788  -0.000005  -0.000013   0.000007   0.000037
     74      -0.000015  -0.000166   0.000001  -0.000002  -0.000001   0.000043
     75      -0.000003   0.001501  -0.000014  -0.000024  -0.000037   0.000242
     76      -0.000024  -0.003843   0.000032   0.000045   0.000101  -0.000554
     77      -0.000007   0.000542  -0.000002  -0.000004   0.000014  -0.000053
     78       0.000259  -0.003303   0.000039   0.000146  -0.000253   0.000208
     79       0.000227  -0.002608   0.000027   0.000122  -0.000208   0.000171
     80      -0.000100   0.002837  -0.000012  -0.000050   0.000096  -0.000162
     81       0.000314   0.005178  -0.000000   0.000067  -0.000153  -0.000166
     82      -0.000019  -0.000485  -0.000004  -0.000014   0.000020  -0.000015
     83       0.000307   0.005234   0.000017   0.000085  -0.000173  -0.000237
     84      -0.000049   0.050068  -0.000005  -0.000002   0.000003  -0.000058
     85       0.000009  -0.015203   0.000002  -0.000005   0.000008  -0.000026
     86       0.000063  -0.073553   0.000008  -0.000001   0.000019  -0.000003
     87       0.000116  -0.076189   0.000012   0.000030  -0.000070   0.000276
     88       0.000239  -0.180675   0.000021   0.000049  -0.000105   0.000495
     89      -0.000118   0.091177  -0.000014  -0.000031   0.000042  -0.000202
     90       0.000149  -0.114050   0.000025   0.000021  -0.000121   0.000359
     91      -0.000128   0.114424  -0.000015  -0.000008   0.000069  -0.000274
     92       0.000051  -0.037820   0.000007   0.000007  -0.000037   0.000113
     93       0.000350  -0.420577   0.000040  -0.000020   0.000120  -0.000022
     94      -0.000215   0.244303  -0.000034  -0.000003  -0.000044  -0.000011
     95      -0.000708   0.825158  -0.000100   0.000014  -0.000175   0.000006


-----------
IR SPECTRUM
-----------

 Mode   freq       eps      Int      T**2         TX        TY        TZ
       cm**-1   L/(mol*cm) km/mol    a.u.
----------------------------------------------------------------------------
  6:     24.23   0.000419    2.12  0.005399  ( 0.013217 -0.060043  0.040243)
  7:     32.31   0.000626    3.16  0.006048  ( 0.008607  0.074714 -0.019805)
  8:     60.56   0.000644    3.26  0.003320  (-0.040449  0.031179 -0.026669)
  9:     73.60   0.001165    5.89  0.004939  (-0.043805 -0.033728 -0.043388)
 10:     92.39   0.000094    0.48  0.000318  (-0.003982  0.007177  0.015834)
 11:     97.28   0.000974    4.92  0.003125  (-0.006735  0.052381  0.018328)
 12:    107.31   0.000509    2.57  0.001479  (-0.009755 -0.009504 -0.035969)
 13:    116.03   0.000631    3.19  0.001696  ( 0.033793  0.022485 -0.006988)
 14:    133.30   0.000226    1.14  0.000529  (-0.008698 -0.014907 -0.015194)
 15:    137.28   0.000761    3.85  0.001730  ( 0.034856 -0.015180  0.016884)
 16:    220.23   0.001031    5.21  0.001461  (-0.002160 -0.034265  0.016806)
 17:    229.31   0.000296    1.49  0.000402  (-0.003037 -0.018767  0.006409)
 18:    247.59   0.000147    0.74  0.000186  ( 0.001850 -0.012304  0.005562)
 19:    273.70   0.001843    9.31  0.002101  (-0.012024 -0.034533  0.027641)
 20:    332.23   0.000477    2.41  0.000448  (-0.014443  0.008416 -0.012978)
 21:    389.46   0.006326   31.97  0.005069  (-0.061119 -0.036517  0.000335)
 22:    403.73   0.002451   12.38  0.001894  (-0.015353  0.032967 -0.023909)
 23:    425.38   0.000048    0.24  0.000035  (-0.005677  0.001418  0.000849)
 24:    444.53   0.000047    0.24  0.000033  ( 0.002985 -0.002445 -0.004216)
 25:    449.91   0.001065    5.38  0.000739  (-0.018358 -0.018682 -0.007259)
 26:    503.18   0.002202   11.13  0.001366  (-0.019091 -0.015986  0.027304)
 27:    552.35   0.005269   26.63  0.002977  (-0.009066 -0.038879  0.037189)
 28:    588.05   0.007171   36.24  0.003805  ( 0.044349  0.014504 -0.040351)
 29:    595.96   0.000848    4.28  0.000444  ( 0.012292  0.015920  0.006271)
 30:    622.33   0.002835   14.33  0.001422  ( 0.032127  0.003556  0.019413)
 31:    635.56   0.000765    3.86  0.000376  (-0.014448  0.004217 -0.012206)
 32:    663.65   0.000841    4.25  0.000396  (-0.009014  0.014958  0.009517)
 33:    716.89   0.009449   47.75  0.004113  ( 0.027399  0.027764 -0.050906)
 34:    746.96   0.001835    9.27  0.000767  ( 0.008397  0.014548 -0.022011)
 35:    794.03   0.003685   18.62  0.001448  (-0.003972 -0.009769  0.036565)
 36:    823.78   0.003774   19.07  0.001430  ( 0.011739 -0.012956 -0.033525)
 37:    866.08   0.000048    0.24  0.000017  ( 0.000452 -0.003380  0.002370)
 38:    923.18   0.001484    7.50  0.000502  (-0.010551  0.014260 -0.013671)
 39:    946.03   0.000400    2.02  0.000132  (-0.003406 -0.002535  0.010681)
 40:    971.95   0.000408    2.06  0.000131  ( 0.008567  0.007565 -0.000622)
 41:    985.52   0.000039    0.20  0.000012  (-0.002318 -0.000649  0.002571)
 42:   1007.90   0.004097   20.70  0.001268  ( 0.025939 -0.022918  0.008387)
 43:   1009.10   0.003663   18.51  0.001133  ( 0.019569 -0.023461  0.014127)
 44:   1019.25   0.000167    0.84  0.000051  ( 0.006317 -0.002957 -0.001571)
 45:   1042.51   0.005321   26.89  0.001593  ( 0.018705 -0.028952  0.020119)
 46:   1061.52   0.002733   13.81  0.000803  (-0.015184 -0.022483 -0.008213)
 47:   1063.74   0.002641   13.34  0.000775  (-0.015664  0.002108  0.022910)
 48:   1089.24   0.003588   18.13  0.001028  ( 0.012655 -0.012351 -0.026743)
 49:   1101.62   0.002490   12.59  0.000705  ( 0.012377 -0.012635 -0.019816)
 50:   1131.75   0.001644    8.31  0.000453  (-0.014786  0.000133  0.015319)
 51:   1141.42   0.010408   52.60  0.002846  (-0.049228 -0.017953  0.009992)
 52:   1171.04   0.025215  127.43  0.006719  (-0.076215 -0.022290  0.020341)
 53:   1181.82   0.008664   43.78  0.002288  ( 0.046033  0.012388  0.003905)
 54:   1183.60   0.000012    0.06  0.000003  (-0.000575  0.001599 -0.000469)
 55:   1195.52   0.000244    1.23  0.000064  (-0.007410  0.002709 -0.001242)
 56:   1264.54   0.012612   63.73  0.003112  (-0.043592  0.032055 -0.013585)
 57:   1291.04   0.012693   64.15  0.003068  (-0.045821 -0.028591 -0.012291)
 58:   1330.46   0.010051   50.79  0.002357  ( 0.004905 -0.035618  0.032629)
 59:   1353.92   0.025838  130.58  0.005955  ( 0.022864  0.061141 -0.041164)
 60:   1358.47   0.005011   25.32  0.001151  ( 0.019559  0.014474 -0.023643)
 61:   1383.41   0.011589   58.57  0.002614  (-0.047386  0.009267  0.016819)
 62:   1408.74   0.003824   19.32  0.000847  ( 0.022311 -0.018369  0.003443)
 63:   1434.64   0.051448  260.00  0.011191  ( 0.005727  0.089592 -0.055960)
 64:   1442.66   0.011440   57.82  0.002475  (-0.048022  0.010602  0.007494)
 65:   1455.15   0.012400   62.67  0.002659  ( 0.044349  0.001443  0.026276)
 66:   1479.29   0.015105   76.33  0.003186  ( 0.022948  0.026487 -0.044252)
 67:   1484.84   0.005501   27.80  0.001156  ( 0.033418 -0.002730 -0.005645)
 68:   1490.06   0.003914   19.78  0.000820  (-0.005583 -0.015720 -0.023268)
 69:   1493.40   0.000654    3.30  0.000137  (-0.003226 -0.009813 -0.005469)
 70:   1497.62   0.003990   20.17  0.000831  ( 0.001850 -0.005589 -0.028228)
 71:   1511.19   0.002338   11.81  0.000483  ( 0.017639 -0.004300  0.012375)
 72:   1514.46   0.002663   13.46  0.000549  (-0.012885 -0.018946 -0.004885)
 73:   1522.77   0.002285   11.55  0.000468  ( 0.004133  0.017063 -0.012653)
 74:   1542.93   0.019942  100.78  0.004033  (-0.053415  0.033601 -0.007159)
 75:   1550.26   0.017573   88.81  0.003537  (-0.057774 -0.013222  0.004974)
 76:   1640.15   0.001635    8.26  0.000311  (-0.002384  0.014827  0.009254)
 77:   1653.99   0.014080   71.16  0.002657  ( 0.045953 -0.022980  0.004095)
 78:   1720.43   0.146852  742.13  0.026637  ( 0.134909 -0.058074 -0.071161)
 79:   1731.84   0.059563  301.01  0.010733  ( 0.037831 -0.057791  0.077212)
 80:   3038.15   0.008751   44.22  0.000899  (-0.001590  0.021041  0.021299)
 81:   3044.85   0.016255   82.15  0.001666  (-0.040571  0.004111  0.001744)
 82:   3068.58   0.000762    3.85  0.000077  (-0.007834 -0.000314  0.004002)
 83:   3090.91   0.003287   16.61  0.000332  ( 0.012550  0.002790 -0.012908)
 84:   3098.69   0.009216   46.57  0.000928  ( 0.000243  0.028194 -0.011537)
 85:   3116.78   0.005117   25.86  0.000512  (-0.005401 -0.018369  0.012074)
 86:   3133.01   0.001200    6.06  0.000120  ( 0.003408  0.006068  0.008432)
 87:   3142.62   0.001610    8.14  0.000160  (-0.010756  0.005722  0.003388)
 88:   3164.81   0.003520   17.79  0.000347  (-0.015449 -0.002622 -0.010079)
 89:   3168.61   0.004201   21.23  0.000414  (-0.008738  0.015423 -0.009976)
 90:   3190.04   0.000087    0.44  0.000009  (-0.000100 -0.002705 -0.001086)
 91:   3194.03   0.000710    3.59  0.000069  ( 0.000051 -0.003059 -0.007745)
 92:   3198.13   0.002760   13.95  0.000269  (-0.010825 -0.008404 -0.009027)
 93:   3207.25   0.006542   33.06  0.000637  ( 0.011790 -0.021245 -0.006797)
 94:   3215.56   0.002977   15.04  0.000289  (-0.015142 -0.001771 -0.007514)
 95:   3226.91   0.001265    6.39  0.000122  ( 0.009434 -0.005677 -0.001045)

* The epsilon (eps) is given for a Dirac delta lineshape.
** The dipole moment derivative (T) already includes vibrational overlap.

The first frequency considered to be a vibration is 6
The total number of vibrations considered is 90


--------------------------
THERMOCHEMISTRY AT 298.15K
--------------------------

Temperature         ... 298.15 K
Pressure            ... 1.00 atm
Total Mass          ... 220.27 AMU

Throughout the following assumptions are being made:
  (1) The electronic state is orbitally nondegenerate
  (2) There are no thermally accessible electronically excited states
  (3) Hindered rotations indicated by low frequency modes are not
      treated as such but are treated as vibrations and this may
      cause some error
  (4) All equations used are the standard statistical mechanics
      equations for an ideal gas
  (5) All vibrations are strictly harmonic

freq.      24.23  E(vib)   ...       0.56 
freq.      32.31  E(vib)   ...       0.55 
freq.      60.56  E(vib)   ...       0.51 
freq.      73.60  E(vib)   ...       0.49 
freq.      92.39  E(vib)   ...       0.47 
freq.      97.28  E(vib)   ...       0.46 
freq.     107.31  E(vib)   ...       0.45 
freq.     116.03  E(vib)   ...       0.44 
freq.     133.30  E(vib)   ...       0.42 
freq.     137.28  E(vib)   ...       0.42 
freq.     220.23  E(vib)   ...       0.33 
freq.     229.31  E(vib)   ...       0.32 
freq.     247.59  E(vib)   ...       0.31 
freq.     273.70  E(vib)   ...       0.28 
freq.     332.23  E(vib)   ...       0.24 
freq.     389.46  E(vib)   ...       0.20 
freq.     403.73  E(vib)   ...       0.19 
freq.     425.38  E(vib)   ...       0.18 
freq.     444.53  E(vib)   ...       0.17 
freq.     449.91  E(vib)   ...       0.17 
freq.     503.18  E(vib)   ...       0.14 
freq.     552.35  E(vib)   ...       0.12 
freq.     588.05  E(vib)   ...       0.10 
freq.     595.96  E(vib)   ...       0.10 
freq.     622.33  E(vib)   ...       0.09 
freq.     635.56  E(vib)   ...       0.09 
freq.     663.65  E(vib)   ...       0.08 
freq.     716.89  E(vib)   ...       0.07 
freq.     746.96  E(vib)   ...       0.06 
freq.     794.03  E(vib)   ...       0.05 
freq.     823.78  E(vib)   ...       0.05 
freq.     866.08  E(vib)   ...       0.04 
freq.     923.18  E(vib)   ...       0.03 
freq.     946.03  E(vib)   ...       0.03 
freq.     971.95  E(vib)   ...       0.03 
freq.     985.52  E(vib)   ...       0.02 
freq.    1007.90  E(vib)   ...       0.02 
freq.    1009.10  E(vib)   ...       0.02 
freq.    1019.25  E(vib)   ...       0.02 
freq.    1042.51  E(vib)   ...       0.02 
freq.    1061.52  E(vib)   ...       0.02 
freq.    1063.74  E(vib)   ...       0.02 
freq.    1089.24  E(vib)   ...       0.02 
freq.    1101.62  E(vib)   ...       0.02 
freq.    1131.75  E(vib)   ...       0.01 
freq.    1141.42  E(vib)   ...       0.01 
freq.    1171.04  E(vib)   ...       0.01 
freq.    1181.82  E(vib)   ...       0.01 
freq.    1183.60  E(vib)   ...       0.01 
freq.    1195.52  E(vib)   ...       0.01 
freq.    1264.54  E(vib)   ...       0.01 
freq.    1291.04  E(vib)   ...       0.01 
freq.    1330.46  E(vib)   ...       0.01 
freq.    1353.92  E(vib)   ...       0.01 
freq.    1358.47  E(vib)   ...       0.01 
freq.    1383.41  E(vib)   ...       0.00 
freq.    1408.74  E(vib)   ...       0.00 
freq.    1434.64  E(vib)   ...       0.00 
freq.    1442.66  E(vib)   ...       0.00 
freq.    1455.15  E(vib)   ...       0.00 
freq.    1479.29  E(vib)   ...       0.00 
freq.    1484.84  E(vib)   ...       0.00 
freq.    1490.06  E(vib)   ...       0.00 
freq.    1493.40  E(vib)   ...       0.00 
freq.    1497.62  E(vib)   ...       0.00 
freq.    1511.19  E(vib)   ...       0.00 
freq.    1514.46  E(vib)   ...       0.00 
freq.    1522.77  E(vib)   ...       0.00 
freq.    1542.93  E(vib)   ...       0.00 
freq.    1550.26  E(vib)   ...       0.00 
freq.    1640.15  E(vib)   ...       0.00 
freq.    1653.99  E(vib)   ...       0.00 
freq.    1720.43  E(vib)   ...       0.00 
freq.    1731.84  E(vib)   ...       0.00 
freq.    3038.15  E(vib)   ...       0.00 
freq.    3044.85  E(vib)   ...       0.00 
freq.    3068.58  E(vib)   ...       0.00 
freq.    3090.91  E(vib)   ...       0.00 
freq.    3098.69  E(vib)   ...       0.00 
freq.    3116.78  E(vib)   ...       0.00 
freq.    3133.01  E(vib)   ...       0.00 
freq.    3142.62  E(vib)   ...       0.00 
freq.    3164.81  E(vib)   ...       0.00 
freq.    3168.61  E(vib)   ...       0.00 
freq.    3190.04  E(vib)   ...       0.00 
freq.    3194.03  E(vib)   ...       0.00 
freq.    3198.13  E(vib)   ...       0.00 
freq.    3207.25  E(vib)   ...       0.00 
freq.    3215.56  E(vib)   ...       0.00 
freq.    3226.91  E(vib)   ...       0.00 

------------
INNER ENERGY
------------

The inner energy is: U= E(el) + E(ZPE) + E(vib) + E(rot) + E(trans)
    E(el)   - is the total energy from the electronic structure calculation
              = E(kin-el) + E(nuc-el) + E(el-el) + E(nuc-nuc)
    E(ZPE)  - the the zero temperature vibrational energy from the frequency calculation
    E(vib)  - the the finite temperature correction to E(ZPE) due to population
              of excited vibrational states
    E(rot)  - is the rotational thermal energy
    E(trans)- is the translational thermal energy

Summary of contributions to the inner energy U:
Electronic energy                ...   -726.51056523 Eh
Zero point energy                ...      0.26764154 Eh     167.95 kcal/mol
Thermal vibrational correction   ...      0.01367863 Eh       8.58 kcal/mol
Thermal rotational correction    ...      0.00141627 Eh       0.89 kcal/mol
Thermal translational correction ...      0.00141627 Eh       0.89 kcal/mol
-----------------------------------------------------------------------
Total thermal energy                   -726.22641251 Eh


Summary of corrections to the electronic energy:
(perhaps to be used in another calculation)
Total thermal correction                  0.01651118 Eh      10.36 kcal/mol
Non-thermal (ZPE) correction              0.26764154 Eh     167.95 kcal/mol
-----------------------------------------------------------------------
Total correction                          0.28415271 Eh     178.31 kcal/mol


--------
ENTHALPY
--------

The enthalpy is H = U + kB*T
                kB is Boltzmann's constant
Total free energy                 ...   -726.22641251 Eh 
Thermal Enthalpy correction       ...      0.00094421 Eh       0.59 kcal/mol
-----------------------------------------------------------------------
Total Enthalpy                    ...   -726.22546831 Eh


Note: Rotational entropy computed according to Herzberg 
Infrared and Raman Spectra, Chapter V,1, Van Nostrand Reinhold, 1945 
Point Group:  C2v, Symmetry Number:   2  
Rotational constants in cm-1:     0.030067     0.010912     0.009492 

Vibrational entropy computed according to the QRRHO of S. Grimme
Chem.Eur.J. 2012 18 9955


-------
ENTROPY
-------

The entropy contributions are T*S = T*(S(el)+S(vib)+S(rot)+S(trans))
     S(el)   - electronic entropy
     S(vib)  - vibrational entropy
     S(rot)  - rotational entropy
     S(trans)- translational entropy
The entropies will be listed as multiplied by the temperature to get
units of energy

Electronic entropy                ...      0.00000000 Eh      0.00 kcal/mol
Vibrational entropy               ...      0.02477715 Eh     15.55 kcal/mol
Rotational entropy                ...      0.01484221 Eh      9.31 kcal/mol
Translational entropy             ...      0.01998966 Eh     12.54 kcal/mol
-----------------------------------------------------------------------
Final entropy term                ...      0.05960902 Eh     37.41 kcal/mol

In case the symmetry of your molecule has not been determined correctly
or in case you have a reason to use a different symmetry number we print 
out the resulting rotational entropy values for sn=1,12 :
 --------------------------------------------------------
|  sn= 1 | S(rot)=       0.01549667 Eh      9.72 kcal/mol|
|  sn= 2 | S(rot)=       0.01484221 Eh      9.31 kcal/mol|
|  sn= 3 | S(rot)=       0.01445938 Eh      9.07 kcal/mol|
|  sn= 4 | S(rot)=       0.01418776 Eh      8.90 kcal/mol|
|  sn= 5 | S(rot)=       0.01397707 Eh      8.77 kcal/mol|
|  sn= 6 | S(rot)=       0.01380492 Eh      8.66 kcal/mol|
|  sn= 7 | S(rot)=       0.01365938 Eh      8.57 kcal/mol|
|  sn= 8 | S(rot)=       0.01353330 Eh      8.49 kcal/mol|
|  sn= 9 | S(rot)=       0.01342209 Eh      8.42 kcal/mol|
|  sn=10 | S(rot)=       0.01332261 Eh      8.36 kcal/mol|
|  sn=11 | S(rot)=       0.01323262 Eh      8.30 kcal/mol|
|  sn=12 | S(rot)=       0.01315047 Eh      8.25 kcal/mol|
 --------------------------------------------------------


-------------------
GIBBS FREE ENERGY
-------------------

The Gibbs free energy is G = H - T*S

Total enthalpy                    ...   -726.22546831 Eh 
Total entropy correction          ...     -0.05960902 Eh    -37.41 kcal/mol
-----------------------------------------------------------------------
Final Gibbs free energy         ...   -726.28507732 Eh

For completeness - the Gibbs free energy minus the electronic energy
G-E(el)                           ...      0.22548790 Eh    141.50 kcal/mol


Timings for individual modules:

Sum of individual times         ...     2951.458 sec (=  49.191 min)
GTO integral calculation        ...       37.934 sec (=   0.632 min)   1.3 %
SCF iterations                  ...     1809.644 sec (=  30.161 min)  61.3 %
SCF Gradient evaluation         ...      540.997 sec (=   9.017 min)  18.3 %
Geometry relaxation             ...        2.517 sec (=   0.042 min)   0.1 %
Analytical frequency calculation...      560.366 sec (=   9.339 min)  19.0 %
                             ****ORCA TERMINATED NORMALLY****
TOTAL RUN TIME: 0 days 0 hours 49 minutes 24 seconds 144 msec
