
                                 *****************
                                 * O   R   C   A *
                                 *****************

                                            #,                                       
                                            ###                                      
                                            ####                                     
                                            #####                                    
                                            ######                                   
                                           ########,                                 
                                     ,,################,,,,,                         
                               ,,#################################,,                 
                          ,,##########################################,,             
                       ,#########################################, ''#####,          
                    ,#############################################,,   '####,        
                  ,##################################################,,,,####,       
                ,###########''''           ''''###############################       
              ,#####''   ,,,,##########,,,,          '''####'''          '####       
            ,##' ,,,,###########################,,,                        '##       
           ' ,,###''''                  '''############,,,                           
         ,,##''                                '''############,,,,        ,,,,,,###''
      ,#''                                            '''#######################'''  
     '                                                          ''''####''''         
             ,#######,   #######,   ,#######,      ##                                
            ,#'     '#,  ##    ##  ,#'     '#,    #''#        ######   ,####,        
            ##       ##  ##   ,#'  ##            #'  '#       #        #'  '#        
            ##       ##  #######   ##           ,######,      #####,   #    #        
            '#,     ,#'  ##    ##  '#,     ,#' ,#      #,         ##   #,  ,#        
             '#######'   ##     ##  '#######'  #'      '#     #####' # '####'        



                  #######################################################
                  #                        -***-                        #
                  #          Department of theory and spectroscopy      #
                  #    Directorship and core code : Frank Neese         #
                  #        Max Planck Institute fuer Kohlenforschung    #
                  #                Kaiser Wilhelm Platz 1               #
                  #                 D-45470 Muelheim/Ruhr               #
                  #                      Germany                        #
                  #                                                     #
                  #                  All rights reserved                #
                  #                        -***-                        #
                  #######################################################


                         Program Version 5.0.4 -  RELEASE  -


 With contributions from (in alphabetic order):
   Daniel Aravena         : Magnetic Suceptibility
   Michael Atanasov       : Ab Initio Ligand Field Theory (pilot matlab implementation)
   Alexander A. Auer      : GIAO ZORA, VPT2 properties, NMR spectrum
   Ute Becker             : Parallelization
   Giovanni Bistoni       : ED, misc. LED, open-shell LED, HFLD
   Martin Brehm           : Molecular dynamics
   Dmytro Bykov           : SCF Hessian
   Vijay G. Chilkuri      : MRCI spin determinant printing, contributions to CSF-ICE
   Dipayan Datta          : RHF DLPNO-CCSD density
   Achintya Kumar Dutta   : EOM-CC, STEOM-CC
   Dmitry Ganyushin       : Spin-Orbit,Spin-Spin,Magnetic field MRCI
   Miquel Garcia          : C-PCM and meta-GGA Hessian, CC/C-PCM, Gaussian charge scheme
   Yang Guo               : DLPNO-NEVPT2, F12-NEVPT2, CIM, IAO-localization
   Andreas Hansen         : Spin unrestricted coupled pair/coupled cluster methods
   Benjamin Helmich-Paris : MC-RPA, TRAH-SCF, COSX integrals
   Lee Huntington         : MR-EOM, pCC
   Robert Izsak           : Overlap fitted RIJCOSX, COSX-SCS-MP3, EOM
   Marcus Kettner         : VPT2
   Christian Kollmar      : KDIIS, OOCD, Brueckner-CCSD(T), CCSD density, CASPT2, CASPT2-K
   Simone Kossmann        : Meta GGA functionals, TD-DFT gradient, OOMP2, MP2 Hessian
   Martin Krupicka        : Initial AUTO-CI
   Lucas Lang             : DCDCAS
   Marvin Lechner         : AUTO-CI (C++ implementation), FIC-MRCC
   Dagmar Lenk            : GEPOL surface, SMD
   Dimitrios Liakos       : Extrapolation schemes; Compound Job, initial MDCI parallelization
   Dimitrios Manganas     : Further ROCIS development; embedding schemes
   Dimitrios Pantazis     : SARC Basis sets
   Anastasios Papadopoulos: AUTO-CI, single reference methods and gradients
   Taras Petrenko         : DFT Hessian,TD-DFT gradient, ASA, ECA, R-Raman, ABS, FL, XAS/XES, NRVS
   Peter Pinski           : DLPNO-MP2, DLPNO-MP2 Gradient
   Christoph Reimann      : Effective Core Potentials
   Marius Retegan         : Local ZFS, SOC
   Christoph Riplinger    : Optimizer, TS searches, QM/MM, DLPNO-CCSD(T), (RO)-DLPNO pert. Triples
   Tobias Risthaus        : Range-separated hybrids, TD-DFT gradient, RPA, STAB
   Michael Roemelt        : Original ROCIS implementation
   Masaaki Saitow         : Open-shell DLPNO-CCSD energy and density
   Barbara Sandhoefer     : DKH picture change effects
   Avijit Sen             : IP-ROCIS
   Kantharuban Sivalingam : CASSCF convergence, NEVPT2, FIC-MRCI
   Bernardo de Souza      : ESD, SOC TD-DFT
   Georgi Stoychev        : AutoAux, RI-MP2 NMR, DLPNO-MP2 response
   Willem Van den Heuvel  : Paramagnetic NMR
   Boris Wezisla          : Elementary symmetry handling
   Frank Wennmohs         : Technical directorship


 We gratefully acknowledge several colleagues who have allowed us to
 interface, adapt or use parts of their codes:
   Stefan Grimme, W. Hujo, H. Kruse, P. Pracht,  : VdW corrections, initial TS optimization,
                  C. Bannwarth, S. Ehlert          DFT functionals, gCP, sTDA/sTD-DF
   Ed Valeev, F. Pavosevic, A. Kumar             : LibInt (2-el integral package), F12 methods
   Garnet Chan, S. Sharma, J. Yang, R. Olivares  : DMRG
   Ulf Ekstrom                                   : XCFun DFT Library
   Mihaly Kallay                                 : mrcc  (arbitrary order and MRCC methods)
   Jiri Pittner, Ondrej Demel                    : Mk-CCSD
   Frank Weinhold                                : gennbo (NPA and NBO analysis)
   Christopher J. Cramer and Donald G. Truhlar   : smd solvation model
   Lars Goerigk                                  : TD-DFT with DH, B97 family of functionals
   V. Asgeirsson, H. Jonsson                     : NEB implementation
   FAccTs GmbH                                   : IRC, NEB, NEB-TS, DLPNO-Multilevel, CI-OPT
                                                   MM, QMMM, 2- and 3-layer-ONIOM, Crystal-QMMM,
                                                   LR-CPCM, SF, NACMEs, symmetry and pop. for TD-DFT,
                                                   nearIR, NL-DFT gradient (VV10), updates on ESD,
                                                   ML-optimized integration grids
   S Lehtola, MJT Oliveira, MAL Marques          : LibXC Library
   Liviu Ungur et al                             : ANISO software


 Your calculation uses the libint2 library for the computation of 2-el integrals
 For citations please refer to: http://libint.valeyev.net

 Your ORCA version has been built with support for libXC version: 5.1.0
 For citations please refer to: https://tddft.org/programs/libxc/

 This ORCA versions uses:
   CBLAS   interface :  Fast vector & matrix operations
   LAPACKE interface :  Fast linear algebra routines
   SCALAPACK package :  Parallel linear algebra routines
   Shared memory     :  Shared parallel matrices
   BLAS/LAPACK       :  OpenBLAS 0.3.15  USE64BITINT DYNAMIC_ARCH NO_AFFINITY SkylakeX SINGLE_THREADED
        Core in use  :  SkylakeX
   Copyright (c) 2011-2014, The OpenBLAS Project




***************************************
The coordinates will be read from file: /users/fjb15167/WWenergy/structures/NfeCl.xyz
***************************************


Your calculation utilizes the atom-pairwise dispersion correction
based on tight binding partial charges (D4)
Cite in your paper:
E.Caldeweyher, C.Bannwarth, S.Grimme, J.Chem.Phys., (2017), 147, 034112.
E.Caldeweyher, S.Ehlert, A.Hansen, H.Neugebauer, S.Grimme, J.Chem.Phys., (2018), in progress.
   

================================================================================

----- Orbital basis set information -----
Your calculation utilizes the basis: 6-31G(d)
   H-He, Li-Ne : W. J. Hehre, R. Ditchfield and J.A. Pople, J. Chem. Phys. 56, 2257 (1972).
                 Note: He and Ne are unpublished basis sets taken from the Gaussian program.
                 Note: Li and B from J. D. Dill and J. A. Pople, J. Chem. Phys. 62, 2921 (1975).
   Na - Ar     : M. M. Francl, W. J. Pietro, W. J. Hehre, J. S. Binkley, M. S. Gordon, 
                 D. J. DeFrees and J. A. Pople, J. Chem. Phys. 77, 3654 (1982).
   K - Zn      : V. A. Rassolov, J. A. Pople, M. A. Ratner, and T. L. Windus, J. Chem. Phys. 109, 1223 (1998).

----- AuxJ basis set information -----
Your calculation utilizes the AutoAux generation procedure.
  G. L. Stoychev, A. A. Auer, F. Neese, J. Chem. Theory Comput. 13, 554 (2017)

----- AuxC basis set information -----
Your calculation utilizes the AutoAux generation procedure.
  G. L. Stoychev, A. A. Auer, F. Neese, J. Chem. Theory Comput. 13, 554 (2017)

----- AuxJK basis set information -----
Your calculation utilizes the AutoAux generation procedure.
  G. L. Stoychev, A. A. Auer, F. Neese, J. Chem. Theory Comput. 13, 554 (2017)

================================================================================
                                        WARNINGS
                       Please study these warnings very carefully!
================================================================================


WARNING: Geometry Optimization
  ===> : Switching off AutoStart
         For restart on a previous wavefunction, please use MOREAD

INFO   : the flag for use of the SHARK integral package has been found!

================================================================================
                                       INPUT FILE
================================================================================
NAME = NfeCl_gas.inp
|  1> ! OPT FREQ B3LYP 6-31G(d) D4 AUTOAUX
|  2> 
|  3> %PAL NPROCS 4 END
|  4> 
|  5> %maxcore 3375
|  6> 
|  7> *xyzfile 0 1 /users/fjb15167/WWenergy/structures/NfeCl.xyz
|  8> 
|  9>                          ****END OF INPUT****
================================================================================

                       *****************************
                       * Geometry Optimization Run *
                       *****************************

Geometry optimization settings:
Update method            Update   .... BFGS
Choice of coordinates    CoordSys .... Z-matrix Internals
Initial Hessian          InHess   .... Almoef's Model

Convergence Tolerances:
Energy Change            TolE     ....  5.0000e-06 Eh
Max. Gradient            TolMAXG  ....  3.0000e-04 Eh/bohr
RMS Gradient             TolRMSG  ....  1.0000e-04 Eh/bohr
Max. Displacement        TolMAXD  ....  4.0000e-03 bohr
RMS Displacement         TolRMSD  ....  2.0000e-03 bohr
Strict Convergence                ....  False
------------------------------------------------------------------------------
                        ORCA OPTIMIZATION COORDINATE SETUP
------------------------------------------------------------------------------

The optimization will be done in new redundant internal coordinates
Making redundant internal coordinates   ...  (new redundants) done
Evaluating the initial hessian          ...  (Almloef) done
Evaluating the coordinates              ...  done
Calculating the B-matrix                .... done
Calculating the G-matrix                .... done
Diagonalizing the G-matrix              .... done
Small eigenvalue found = 2.705e-03
Small eigenvalue found = 4.837e-03
Small eigenvalue found = 6.976e-03
Small eigenvalue found = 1.144e-02
Small eigenvalue found = 2.011e-02
Small eigenvalue found = 2.174e-02
Small eigenvalue found = 2.816e-02
The first mode is                       ....   79
The number of degrees of freedom        ....  108

    -----------------------------------------------------------------
                    Redundant Internal Coordinates


    -----------------------------------------------------------------
         Definition                    Initial Value    Approx d2E/dq
    -----------------------------------------------------------------
      1. B(H   1,C   0)                  1.0929         0.356236   
      2. B(H   2,C   0)                  1.0943         0.354463   
      3. B(H   3,C   0)                  1.0894         0.360887   
      4. B(C   4,C   0)                  1.5158         0.393545   
      5. B(O   5,C   4)                  1.2388         0.975396   
      6. B(N   6,C   4)                  1.3734         0.594794   
      7. B(C   7,N   6)                  1.4605         0.431970   
      8. B(H   8,C   7)                  1.0954         0.353079   
      9. B(H   9,C   7)                  1.0896         0.360642   
     10. B(C  10,N   6)                  1.4619         0.429661   
     11. B(H  11,C  10)                  1.0944         0.354375   
     12. B(H  12,C  10)                  1.0945         0.354192   
     13. B(C  13,C  10)                  1.5379         0.362912   
     14. B(H  14,C  13)                  1.0942         0.354553   
     15. B(H  15,C  13)                  1.0960         0.352208   
     16. B(C  16,C  13)                  1.5041         0.410878   
     17. B(C  17,C  16)                  1.4040         0.593464   
     18. B(C  18,C  16)                  1.3993         0.603914   
     19. B(C  19,C  17)                  1.3945         0.614460   
     20. B(H  20,C  17)                  1.0890         0.361457   
     21. B(C  21,C  18)                  1.3965         0.609963   
     22. B(H  22,C  18)                  1.0889         0.361585   
     23. B(C  23,C  21)                  1.3937         0.616341   
     24. B(C  23,C  19)                  1.3960         0.611180   
     25. B(H  24,C  19)                  1.0864         0.364875   
     26. B(H  25,C  21)                  1.0858         0.365748   
     27. B(C  26,C   7)                  1.5253         0.380059   
     28. B(N  27,C  26)                  1.3625         0.619140   
     29. B(O  28,C  26)                  1.2422         0.963236   
     30. B(C  29,N  27)                  1.4559         0.439208   
     31. B(H  30,C  29)                  1.0972         0.350721   
     32. B(H  31,C  29)                  1.0950         0.353496   
     33. B(H  32,C  29)                  1.0881         0.362637   
     34. B(C  33,N  27)                  1.4558         0.439480   
     35. B(H  34,C  33)                  1.0970         0.351003   
     36. B(H  35,C  33)                  1.0882         0.362485   
     37. B(H  36,C  33)                  1.0938         0.355152   
     38. B(Cl 37,C  23)                  1.7597         0.360472   
     39. A(H   2,C   0,C   4)          110.8084         0.326260   
     40. A(H   1,C   0,H   3)          109.4527         0.290447   
     41. A(H   2,C   0,H   3)          108.9701         0.290219   
     42. A(H   1,C   0,H   2)          108.0242         0.289629   
     43. A(H   3,C   0,C   4)          107.1341         0.327227   
     44. A(H   1,C   0,C   4)          112.4035         0.326528   
     45. A(C   0,C   4,O   5)          121.0700         0.431118   
     46. A(C   0,C   4,N   6)          116.9358         0.394883   
     47. A(O   5,C   4,N   6)          121.9874         0.461552   
     48. A(C   7,N   6,C  10)          115.9766         0.376844   
     49. A(C   4,N   6,C  10)          124.8108         0.398455   
     50. A(C   4,N   6,C   7)          119.1338         0.398831   
     51. A(N   6,C   7,H   9)          107.9302         0.330264   
     52. A(H   8,C   7,H   9)          108.9831         0.290010   
     53. A(N   6,C   7,C  26)          111.0273         0.371284   
     54. A(H   8,C   7,C  26)          105.4203         0.324187   
     55. A(N   6,C   7,H   8)          109.5575         0.329109   
     56. A(H   9,C   7,C  26)          113.8495         0.325317   
     57. A(H  12,C  10,C  13)          108.8273         0.321908   
     58. A(H  11,C  10,C  13)          110.0092         0.321935   
     59. A(N   6,C  10,C  13)          113.5596         0.368012   
     60. A(H  11,C  10,H  12)          107.1128         0.289357   
     61. A(N   6,C  10,H  12)          106.8661         0.328989   
     62. A(N   6,C  10,H  11)          110.2095         0.329017   
     63. A(H  15,C  13,C  16)          110.4754         0.328240   
     64. A(H  14,C  13,C  16)          109.7973         0.328600   
     65. A(C  10,C  13,C  16)          110.4780         0.367494   
     66. A(H  14,C  13,H  15)          107.1137         0.289125   
     67. A(C  10,C  13,H  15)          109.9523         0.321612   
     68. A(C  10,C  13,H  14)          108.9514         0.321962   
     69. A(C  17,C  16,C  18)          118.8912         0.428640   
     70. A(C  13,C  16,C  17)          119.3554         0.400287   
     71. A(C  13,C  16,C  18)          121.6793         0.401519   
     72. A(C  16,C  17,C  19)          120.7859         0.429973   
     73. A(C  19,C  17,H  20)          119.9007         0.352598   
     74. A(C  16,C  17,H  20)          119.3124         0.350532   
     75. A(C  21,C  18,H  22)          119.1482         0.352181   
     76. A(C  16,C  18,H  22)          119.7498         0.351588   
     77. A(C  16,C  18,C  21)          121.0943         0.430754   
     78. A(C  23,C  19,H  24)          120.1891         0.352840   
     79. A(C  17,C  19,H  24)          120.7877         0.353160   
     80. A(C  17,C  19,C  23)          119.0230         0.432251   
     81. A(C  23,C  21,H  25)          120.2559         0.353486   
     82. A(C  18,C  21,H  25)          120.9547         0.352864   
     83. A(C  18,C  21,C  23)          118.7894         0.432333   
     84. A(C  19,C  23,C  21)          121.4104         0.432488   
     85. A(C  21,C  23,Cl 37)          119.2418         0.411381   
     86. A(C  19,C  23,Cl 37)          119.3472         0.410768   
     87. A(N  27,C  26,O  28)          122.7353         0.463884   
     88. A(C   7,C  26,O  28)          119.1178         0.427466   
     89. A(C   7,C  26,N  27)          118.1196         0.395247   
     90. A(C  29,N  27,C  33)          115.4010         0.379410   
     91. A(C  26,N  27,C  33)          118.3289         0.402879   
     92. A(C  26,N  27,C  29)          125.3210         0.402835   
     93. A(H  31,C  29,H  32)          108.9099         0.290315   
     94. A(H  30,C  29,H  32)          108.4492         0.289957   
     95. A(N  27,C  29,H  32)          111.9514         0.331476   
     96. A(H  30,C  29,H  31)          108.2290         0.288799   
     97. A(N  27,C  29,H  31)          109.1334         0.330079   
     98. A(N  27,C  29,H  30)          110.0876         0.329649   
     99. A(H  34,C  33,H  36)          108.6572         0.289046   
    100. A(N  27,C  33,H  36)          109.1897         0.330368   
    101. A(H  34,C  33,H  35)          109.3816         0.289974   
    102. A(N  27,C  33,H  35)          108.6519         0.331487   
    103. A(N  27,C  33,H  34)          110.8117         0.329726   
    104. A(H  35,C  33,H  36)          110.1436         0.290509   
    105. D(N   6,C   4,C   0,H   2)    -67.6275         0.011512   
    106. D(O   5,C   4,C   0,H   1)   -127.5771         0.011512   
    107. D(N   6,C   4,C   0,H   1)     53.3498         0.011512   
    108. D(O   5,C   4,C   0,H   2)    111.4457         0.011512   
    109. D(O   5,C   4,C   0,H   3)     -7.3097         0.011512   
    110. D(N   6,C   4,C   0,H   3)    173.6172         0.011512   
    111. D(C   7,N   6,C   4,O   5)     -5.4228         0.028472   
    112. D(C  10,N   6,C   4,C   0)     -2.9940         0.028472   
    113. D(C  10,N   6,C   4,O   5)    177.9420         0.028472   
    114. D(C   7,N   6,C   4,C   0)    173.6412         0.028472   
    115. D(C  26,C   7,N   6,C   4)    126.7246         0.015909   
    116. D(H   8,C   7,N   6,C   4)   -117.2436         0.015909   
    117. D(H   9,C   7,N   6,C  10)    178.2237         0.015909   
    118. D(H   8,C   7,N   6,C  10)     59.6835         0.015909   
    119. D(H   9,C   7,N   6,C   4)      1.2966         0.015909   
    120. D(C  26,C   7,N   6,C  10)    -56.3483         0.015909   
    121. D(C  13,C  10,N   6,C   7)     95.2003         0.015739   
    122. D(C  13,C  10,N   6,C   4)    -88.0691         0.015739   
    123. D(H  12,C  10,N   6,C   7)    -24.8055         0.015739   
    124. D(H  11,C  10,N   6,C   7)   -140.8620         0.015739   
    125. D(H  11,C  10,N   6,C   4)     35.8687         0.015739   
    126. D(H  12,C  10,N   6,C   4)    151.9252         0.015739   
    127. D(C  16,C  13,C  10,N   6)   -165.9890         0.010555   
    128. D(C  16,C  13,C  10,H  11)     69.9645         0.010555   
    129. D(H  15,C  13,C  10,H  12)   -169.2976         0.010555   
    130. D(H  15,C  13,C  10,H  11)    -52.2314         0.010555   
    131. D(H  15,C  13,C  10,N   6)     71.8151         0.010555   
    132. D(H  14,C  13,C  10,H  12)     73.5951         0.010555   
    133. D(H  14,C  13,C  10,H  11)   -169.3387         0.010555   
    134. D(C  16,C  13,C  10,H  12)    -47.1017         0.010555   
    135. D(H  14,C  13,C  10,N   6)    -45.2921         0.010555   
    136. D(C  18,C  16,C  13,H  15)     22.8222         0.012501   
    137. D(C  18,C  16,C  13,H  14)    140.7433         0.012501   
    138. D(C  18,C  16,C  13,C  10)    -99.0660         0.012501   
    139. D(C  17,C  16,C  13,H  15)   -160.3447         0.012501   
    140. D(C  17,C  16,C  13,H  14)    -42.4236         0.012501   
    141. D(C  17,C  16,C  13,C  10)     77.7671         0.012501   
    142. D(H  20,C  17,C  16,C  18)    179.5171         0.024252   
    143. D(H  20,C  17,C  16,C  13)      2.5951         0.024252   
    144. D(C  19,C  17,C  16,C  18)     -0.8418         0.024252   
    145. D(C  19,C  17,C  16,C  13)   -177.7638         0.024252   
    146. D(H  22,C  18,C  16,C  17)    179.8343         0.025160   
    147. D(H  22,C  18,C  16,C  13)     -3.3183         0.025160   
    148. D(C  21,C  18,C  16,C  17)      0.8543         0.025160   
    149. D(C  21,C  18,C  16,C  13)    177.7017         0.025160   
    150. D(H  24,C  19,C  17,H  20)      0.0364         0.026098   
    151. D(H  24,C  19,C  17,C  16)   -179.6026         0.026098   
    152. D(C  23,C  19,C  17,H  20)   -179.8249         0.026098   
    153. D(C  23,C  19,C  17,C  16)      0.5361         0.026098   
    154. D(H  25,C  21,C  18,H  22)      0.5160         0.025696   
    155. D(H  25,C  21,C  18,C  16)    179.5021         0.025696   
    156. D(C  23,C  21,C  18,H  22)   -179.5442         0.025696   
    157. D(C  23,C  21,C  18,C  16)     -0.5581         0.025696   
    158. D(Cl 37,C  23,C  21,H  25)     -0.1064         0.026268   
    159. D(Cl 37,C  23,C  21,C  18)    179.9533         0.026268   
    160. D(C  19,C  23,C  21,H  25)   -179.8182         0.026268   
    161. D(C  19,C  23,C  21,C  18)      0.2415         0.026268   
    162. D(Cl 37,C  23,C  19,H  24)      0.1938         0.025804   
    163. D(Cl 37,C  23,C  19,C  17)   -179.9441         0.025804   
    164. D(C  21,C  23,C  19,H  24)    179.9053         0.025804   
    165. D(C  21,C  23,C  19,C  17)     -0.2326         0.025804   
    166. D(N  27,C  26,C   7,H   8)    162.1720         0.010778   
    167. D(N  27,C  26,C   7,N   6)    -79.2693         0.010778   
    168. D(O  28,C  26,C   7,H   9)   -139.0723         0.010778   
    169. D(O  28,C  26,C   7,H   8)    -19.6739         0.010778   
    170. D(O  28,C  26,C   7,N   6)     98.8847         0.010778   
    171. D(N  27,C  26,C   7,H   9)     42.7737         0.010778   
    172. D(C  33,N  27,C  26,O  28)     -2.0972         0.031034   
    173. D(C  33,N  27,C  26,C   7)    175.9856         0.031034   
    174. D(C  29,N  27,C  26,O  28)   -170.4046         0.031034   
    175. D(C  29,N  27,C  26,C   7)      7.6782         0.031034   
    176. D(H  32,C  29,N  27,C  33)    178.0397         0.016449   
    177. D(H  32,C  29,N  27,C  26)    -13.3499         0.016449   
    178. D(H  31,C  29,N  27,C  33)     57.3977         0.016449   
    179. D(H  31,C  29,N  27,C  26)   -133.9919         0.016449   
    180. D(H  30,C  29,N  27,C  33)    -61.2504         0.016449   
    181. D(H  30,C  29,N  27,C  26)    107.3600         0.016449   
    182. D(H  36,C  33,N  27,C  29)    -52.1728         0.016469   
    183. D(H  36,C  33,N  27,C  26)    138.3748         0.016469   
    184. D(H  35,C  33,N  27,C  29)   -172.3268         0.016469   
    185. D(H  35,C  33,N  27,C  26)     18.2208         0.016469   
    186. D(H  34,C  33,N  27,C  29)     67.4744         0.016469   
    187. D(H  34,C  33,N  27,C  26)   -101.9781         0.016469   
    -----------------------------------------------------------------

Number of atoms                         .... 38
Number of degrees of freedom            .... 187

         *************************************************************
         *                GEOMETRY OPTIMIZATION CYCLE   1            *
         *************************************************************
---------------------------------
CARTESIAN COORDINATES (ANGSTROEM)
---------------------------------
  C      3.113000    3.180000    0.302000
  H      2.358000    2.998000    1.071000
  H      2.647000    3.762000   -0.499000
  H      3.933000    3.757000    0.728000
  C      3.706000    1.895000   -0.241000
  O      4.932000    1.721000   -0.275000
  N      2.824000    0.951000   -0.707000
  C      3.344000   -0.243000   -1.368000
  H      2.998000   -0.267000   -2.407000
  H      4.432000   -0.185000   -1.358000
  C      1.368000    1.073000   -0.658000
  H      1.070000    2.113000   -0.823000
  H      0.972000    0.488000   -1.494000
  C      0.751000    0.550000    0.650000
  H      1.206000   -0.414000    0.897000
  H      0.982000    1.236000    1.473000
  C     -0.737000    0.388000    0.502000
  C     -1.243000   -0.727000   -0.185000
  C     -1.632000    1.354000    0.975000
  C     -2.615000   -0.883000   -0.380000
  H     -0.552000   -1.479000   -0.563000
  C     -3.009000    1.214000    0.789000
  H     -1.255000    2.223000    1.512000
  C     -3.484000    0.094000    0.109000
  H     -3.007000   -1.749000   -0.906000
  H     -3.702000    1.961000    1.164000
  C      2.788000   -1.510000   -0.726000
  N      3.348000   -1.938000    0.440000
  O      1.828000   -2.088000   -1.262000
  C      4.335000   -1.204000    1.219000
  H      3.875000   -0.808000    2.133000
  H      5.142000   -1.885000    1.509000
  H      4.759000   -0.373000    0.659000
  C      2.764000   -3.095000    1.103000
  H      2.141000   -2.785000    1.951000
  H      2.152000   -3.636000    0.384000
  H      3.566000   -3.739000    1.475000
  Cl    -5.217000   -0.095000   -0.131000

----------------------------
CARTESIAN COORDINATES (A.U.)
----------------------------
  NO LB      ZA    FRAG     MASS         X           Y           Z
   0 C     6.0000    0    12.011    5.882717    6.009329    0.570697
   1 H     1.0000    0     1.008    4.455974    5.665399    2.023897
   2 H     1.0000    0     1.008    5.002105    7.109150   -0.942973
   3 H     1.0000    0     1.008    7.432293    7.099701    1.375721
   4 C     6.0000    0    12.011    7.003325    3.581031   -0.455424
   5 O     8.0000    0    15.999    9.320129    3.252219   -0.519675
   6 N     7.0000    0    14.007    5.336587    1.797130   -1.336036
   7 C     6.0000    0    12.011    6.319244   -0.459203   -2.585145
   8 H     1.0000    0     1.008    5.665399   -0.504557   -4.548571
   9 H     1.0000    0     1.008    8.375266   -0.349599   -2.566248
  10 C     6.0000    0    12.011    2.585145    2.027676   -1.243440
  11 H     1.0000    0     1.008    2.022007    3.992991   -1.555245
  12 H     1.0000    0     1.008    1.836814    0.922186   -2.823251
  13 C     6.0000    0    12.011    1.419184    1.039349    1.228322
  14 H     1.0000    0     1.008    2.279010   -0.782347    1.695084
  15 H     1.0000    0     1.008    1.855711    2.335702    2.783567
  16 C     6.0000    0    12.011   -1.392728    0.733214    0.948643
  17 C     6.0000    0    12.011   -2.348930   -1.373831   -0.349599
  18 C     6.0000    0    12.011   -3.084033    2.558689    1.842483
  19 C     6.0000    0    12.011   -4.941634   -1.668628   -0.718096
  20 H     1.0000    0     1.008   -1.043129   -2.794905   -1.063916
  21 C     6.0000    0    12.011   -5.686186    2.294128    1.490994
  22 H     1.0000    0     1.008   -2.371606    4.200861    2.857266
  23 C     6.0000    0    12.011   -6.583806    0.177634    0.205980
  24 H     1.0000    0     1.008   -5.682406   -3.305131   -1.712092
  25 H     1.0000    0     1.008   -6.995766    3.705753    2.199641
  26 C     6.0000    0    12.011    5.268556   -2.853486   -1.371941
  27 N     7.0000    0    14.007    6.326803   -3.662289    0.831479
  28 O     8.0000    0    15.999    3.454419   -3.945748   -2.384834
  29 C     6.0000    0    12.011    8.191963   -2.275230    2.303576
  30 H     1.0000    0     1.008    7.322689   -1.526899    4.030786
  31 H     1.0000    0     1.008    9.716972   -3.562134    2.851597
  32 H     1.0000    0     1.008    8.993207   -0.704868    1.245330
  33 C     6.0000    0    12.011    5.223203   -5.848702    2.084368
  34 H     1.0000    0     1.008    4.045904   -5.262887    3.686856
  35 H     1.0000    0     1.008    4.066691   -6.871044    0.725655
  36 H     1.0000    0     1.008    6.738763   -7.065686    2.787346
  37 Cl   17.0000    0    35.453   -9.858701   -0.179524   -0.247554

--------------------------------
INTERNAL COORDINATES (ANGSTROEM)
--------------------------------
 C      0   0   0     0.000000000000     0.00000000     0.00000000
 H      1   0   0     1.092936411691     0.00000000     0.00000000
 H      1   2   0     1.094294750056   108.02419775     0.00000000
 H      1   2   3     1.089405801343   109.45265545   118.52024246
 C      1   2   3     1.515824198250   112.40347563   237.43786826
 O      5   1   2     1.238752598383   121.07004512   232.42293999
 N      5   1   2     1.373395791460   116.93584778    53.34979849
 C      7   5   1     1.460464652089   119.13375764   173.64121198
 H      8   7   5     1.095359758253   109.55748733   242.75635820
 H      8   7   5     1.089590748859   107.93022362     1.29657983
 C      7   5   1     1.461923732621   124.81082092   357.00603334
 H     11   7   5     1.094362371429   110.20951267    35.86871493
 H     11   7   5     1.094503083595   106.86614245   151.92515781
 C     11   7   5     1.537882310192   113.55958721   271.93093446
 H     14  11   7     1.094225753672   108.95139457   314.70787119
 H     14  11   7     1.096031933841   109.95228531    71.81510137
 C     14  11   7     1.504091752520   110.47799087   194.01102817
 C     17  14  11     1.404004985746   119.35537807    77.76707876
 C     17  14  11     1.399253372338   121.67931565   260.93400469
 C     18  17  14     1.394541143172   120.78591046   182.23624462
 H     18  17  14     1.088976124623   119.31244163     2.59513766
 C     19  17  14     1.396540368196   121.09425032   177.70168845
 H     19  17  14     1.088879699508   119.74979684   356.68168596
 C     22  19  17     1.393709080117   118.78937270   359.44185367
 H     20  18  17     1.086414285620   120.78766232   180.39736638
 H     22  19  17     1.085763786466   120.95469784   179.50205367
 C      8   7   5     1.525316032827   111.02728837   126.72457197
 N     27   8   7     1.362475687856   118.11963785   280.73065820
 O     27   8   7     1.242167460530   119.11783728    98.88466875
 C     28  27   8     1.455941619709   125.32104110     7.67817802
 H     30  28  27     1.097183667396   110.08762005   107.35999687
 H     30  28  27     1.095038812098   109.13337150   226.00807317
 H     30  28  27     1.088088691238   111.95135143   346.65006211
 C     28  27   8     1.455772647085   118.32892263   175.98559846
 H     34  28  27     1.096965359526   110.81167834   258.02193576
 H     34  28  27     1.088203106042   108.65191480    18.22076762
 H     34  28  27     1.093765971312   109.18971239   138.37476357
 Cl    24  22  19     1.759718727524   119.24180236   179.95333439

---------------------------
INTERNAL COORDINATES (A.U.)
---------------------------
 C      0   0   0     0.000000000000     0.00000000     0.00000000
 H      1   0   0     2.065350499887     0.00000000     0.00000000
 H      1   2   0     2.067917387394   108.02419775     0.00000000
 H      1   2   3     2.058678613243   109.45265545   118.52024246
 C      1   2   3     2.864492601863   112.40347563   237.43786826
 O      5   1   2     2.340903158627   121.07004512   232.42293999
 N      5   1   2     2.595341919339   116.93584778    53.34979849
 C      7   5   1     2.759878220720   119.13375764   173.64121198
 H      8   7   5     2.069929961216   109.55748733   242.75635820
 H      8   7   5     2.059028113398   107.93022362     1.29657983
 C      7   5   1     2.762635483333   124.81082092   357.00603334
 H     11   7   5     2.068045173270   110.20951267    35.86871493
 H     11   7   5     2.068311080728   106.86614245   151.92515781
 C     11   7   5     2.906176392464   113.55958721   271.93093446
 H     14  11   7     2.067787003124   108.95139457   314.70787119
 H     14  11   7     2.071200188992   109.95228531    71.81510137
 C     14  11   7     2.842321492553   110.47799087   194.01102817
 C     17  14  11     2.653184913720   119.35537807    77.76707876
 C     17  14  11     2.644205665685   121.67931565   260.93400469
 C     18  17  14     2.635300843081   120.78591046   182.23624462
 H     18  17  14     2.057866641917   119.31244163     2.59513766
 C     19  17  14     2.639078830855   121.09425032   177.70168845
 H     19  17  14     2.057684424856   119.74979684   356.68168596
 C     22  19  17     2.633728471780   118.78937270   359.44185367
 H     20  18  17     2.053025467802   120.78766232   180.39736638
 H     22  19  17     2.051796202549   120.95469784   179.50205367
 C      8   7   5     2.882429569723   111.02728837   126.72457197
 N     27   8   7     2.574705914175   118.11963785   280.73065820
 O     27   8   7     2.347356312870   119.11783728    98.88466875
 C     28  27   8     2.751330928227   125.32104110     7.67817802
 H     30  28  27     2.073376649989   110.08762005   107.35999687
 H     30  28  27     2.069323460879   109.13337150   226.00807317
 H     30  28  27     2.056189635857   111.95135143   346.65006211
 C     28  27   8     2.751011616244   118.32892263   175.98559846
 H     34  28  27     2.072964107903   110.81167834   258.02193576
 H     34  28  27     2.056405848502   108.65191480    18.22076762
 H     34  28  27     2.066918140382   109.18971239   138.37476357
 Cl    24  22  19     3.325386467753   119.24180236   179.95333439

---------------------
BASIS SET INFORMATION
---------------------
There are 5 groups of distinct atoms

 Group   1 Type C   : 10s4p1d contracted to 3s2p1d pattern {631/31/1}
 Group   2 Type H   : 4s contracted to 2s pattern {31}
 Group   3 Type O   : 10s4p1d contracted to 3s2p1d pattern {631/31/1}
 Group   4 Type N   : 10s4p1d contracted to 3s2p1d pattern {631/31/1}
 Group   5 Type Cl  : 16s10p1d contracted to 4s3p1d pattern {6631/631/1}

Atom   0C    basis set group =>   1
Atom   1H    basis set group =>   2
Atom   2H    basis set group =>   2
Atom   3H    basis set group =>   2
Atom   4C    basis set group =>   1
Atom   5O    basis set group =>   3
Atom   6N    basis set group =>   4
Atom   7C    basis set group =>   1
Atom   8H    basis set group =>   2
Atom   9H    basis set group =>   2
Atom  10C    basis set group =>   1
Atom  11H    basis set group =>   2
Atom  12H    basis set group =>   2
Atom  13C    basis set group =>   1
Atom  14H    basis set group =>   2
Atom  15H    basis set group =>   2
Atom  16C    basis set group =>   1
Atom  17C    basis set group =>   1
Atom  18C    basis set group =>   1
Atom  19C    basis set group =>   1
Atom  20H    basis set group =>   2
Atom  21C    basis set group =>   1
Atom  22H    basis set group =>   2
Atom  23C    basis set group =>   1
Atom  24H    basis set group =>   2
Atom  25H    basis set group =>   2
Atom  26C    basis set group =>   1
Atom  27N    basis set group =>   4
Atom  28O    basis set group =>   3
Atom  29C    basis set group =>   1
Atom  30H    basis set group =>   2
Atom  31H    basis set group =>   2
Atom  32H    basis set group =>   2
Atom  33C    basis set group =>   1
Atom  34H    basis set group =>   2
Atom  35H    basis set group =>   2
Atom  36H    basis set group =>   2
Atom  37Cl   basis set group =>   5
---------------------------------
AUXILIARY/J BASIS SET INFORMATION
---------------------------------
There are 5 groups of distinct atoms

 Group   1 Type C   : 13s11p10d2f contracted to 13s11p10d2f pattern {1111111111111/11111111111/1111111111/11}
 Group   2 Type H   : 9s2p contracted to 9s2p pattern {111111111/11}
 Group   3 Type O   : 14s11p10d2f contracted to 14s11p10d2f pattern {11111111111111/11111111111/1111111111/11}
 Group   4 Type N   : 14s11p10d2f contracted to 14s11p10d2f pattern {11111111111111/11111111111/1111111111/11}
 Group   5 Type Cl  : 17s14p13d4f contracted to 17s14p13d4f pattern {11111111111111111/11111111111111/1111111111111/1111}

Atom   0C    basis set group =>   1
Atom   1H    basis set group =>   2
Atom   2H    basis set group =>   2
Atom   3H    basis set group =>   2
Atom   4C    basis set group =>   1
Atom   5O    basis set group =>   3
Atom   6N    basis set group =>   4
Atom   7C    basis set group =>   1
Atom   8H    basis set group =>   2
Atom   9H    basis set group =>   2
Atom  10C    basis set group =>   1
Atom  11H    basis set group =>   2
Atom  12H    basis set group =>   2
Atom  13C    basis set group =>   1
Atom  14H    basis set group =>   2
Atom  15H    basis set group =>   2
Atom  16C    basis set group =>   1
Atom  17C    basis set group =>   1
Atom  18C    basis set group =>   1
Atom  19C    basis set group =>   1
Atom  20H    basis set group =>   2
Atom  21C    basis set group =>   1
Atom  22H    basis set group =>   2
Atom  23C    basis set group =>   1
Atom  24H    basis set group =>   2
Atom  25H    basis set group =>   2
Atom  26C    basis set group =>   1
Atom  27N    basis set group =>   4
Atom  28O    basis set group =>   3
Atom  29C    basis set group =>   1
Atom  30H    basis set group =>   2
Atom  31H    basis set group =>   2
Atom  32H    basis set group =>   2
Atom  33C    basis set group =>   1
Atom  34H    basis set group =>   2
Atom  35H    basis set group =>   2
Atom  36H    basis set group =>   2
Atom  37Cl   basis set group =>   5
---------------------------------
AUXILIARY/C BASIS SET INFORMATION
---------------------------------
There are 5 groups of distinct atoms

 Group   1 Type C   : 13s11p10d2f contracted to 13s11p10d2f pattern {1111111111111/11111111111/1111111111/11}
 Group   2 Type H   : 9s2p contracted to 9s2p pattern {111111111/11}
 Group   3 Type O   : 14s11p10d2f contracted to 14s11p10d2f pattern {11111111111111/11111111111/1111111111/11}
 Group   4 Type N   : 14s11p10d2f contracted to 14s11p10d2f pattern {11111111111111/11111111111/1111111111/11}
 Group   5 Type Cl  : 17s14p13d4f contracted to 17s14p13d4f pattern {11111111111111111/11111111111111/1111111111111/1111}

Atom   0C    basis set group =>   1
Atom   1H    basis set group =>   2
Atom   2H    basis set group =>   2
Atom   3H    basis set group =>   2
Atom   4C    basis set group =>   1
Atom   5O    basis set group =>   3
Atom   6N    basis set group =>   4
Atom   7C    basis set group =>   1
Atom   8H    basis set group =>   2
Atom   9H    basis set group =>   2
Atom  10C    basis set group =>   1
Atom  11H    basis set group =>   2
Atom  12H    basis set group =>   2
Atom  13C    basis set group =>   1
Atom  14H    basis set group =>   2
Atom  15H    basis set group =>   2
Atom  16C    basis set group =>   1
Atom  17C    basis set group =>   1
Atom  18C    basis set group =>   1
Atom  19C    basis set group =>   1
Atom  20H    basis set group =>   2
Atom  21C    basis set group =>   1
Atom  22H    basis set group =>   2
Atom  23C    basis set group =>   1
Atom  24H    basis set group =>   2
Atom  25H    basis set group =>   2
Atom  26C    basis set group =>   1
Atom  27N    basis set group =>   4
Atom  28O    basis set group =>   3
Atom  29C    basis set group =>   1
Atom  30H    basis set group =>   2
Atom  31H    basis set group =>   2
Atom  32H    basis set group =>   2
Atom  33C    basis set group =>   1
Atom  34H    basis set group =>   2
Atom  35H    basis set group =>   2
Atom  36H    basis set group =>   2
Atom  37Cl   basis set group =>   5
----------------------------------
AUXILIARY/JK BASIS SET INFORMATION
----------------------------------
There are 5 groups of distinct atoms

 Group   1 Type C   : 13s11p10d2f contracted to 13s11p10d2f pattern {1111111111111/11111111111/1111111111/11}
 Group   2 Type H   : 9s2p contracted to 9s2p pattern {111111111/11}
 Group   3 Type O   : 14s11p10d2f contracted to 14s11p10d2f pattern {11111111111111/11111111111/1111111111/11}
 Group   4 Type N   : 14s11p10d2f contracted to 14s11p10d2f pattern {11111111111111/11111111111/1111111111/11}
 Group   5 Type Cl  : 17s14p13d4f contracted to 17s14p13d4f pattern {11111111111111111/11111111111111/1111111111111/1111}

Atom   0C    basis set group =>   1
Atom   1H    basis set group =>   2
Atom   2H    basis set group =>   2
Atom   3H    basis set group =>   2
Atom   4C    basis set group =>   1
Atom   5O    basis set group =>   3
Atom   6N    basis set group =>   4
Atom   7C    basis set group =>   1
Atom   8H    basis set group =>   2
Atom   9H    basis set group =>   2
Atom  10C    basis set group =>   1
Atom  11H    basis set group =>   2
Atom  12H    basis set group =>   2
Atom  13C    basis set group =>   1
Atom  14H    basis set group =>   2
Atom  15H    basis set group =>   2
Atom  16C    basis set group =>   1
Atom  17C    basis set group =>   1
Atom  18C    basis set group =>   1
Atom  19C    basis set group =>   1
Atom  20H    basis set group =>   2
Atom  21C    basis set group =>   1
Atom  22H    basis set group =>   2
Atom  23C    basis set group =>   1
Atom  24H    basis set group =>   2
Atom  25H    basis set group =>   2
Atom  26C    basis set group =>   1
Atom  27N    basis set group =>   4
Atom  28O    basis set group =>   3
Atom  29C    basis set group =>   1
Atom  30H    basis set group =>   2
Atom  31H    basis set group =>   2
Atom  32H    basis set group =>   2
Atom  33C    basis set group =>   1
Atom  34H    basis set group =>   2
Atom  35H    basis set group =>   2
Atom  36H    basis set group =>   2
Atom  37Cl   basis set group =>   5


           ************************************************************
           *        Program running with 4 parallel MPI-processes     *
           *              working on a common directory               *
           ************************************************************
------------------------------------------------------------------------------
                           ORCA GTO INTEGRAL CALCULATION
                           -- RI-GTO INTEGRALS CHOSEN --
------------------------------------------------------------------------------
------------------------------------------------------------------------------
                   ___                                                        
                  /   \      - P O W E R E D   B Y -                         
                 /     \                                                     
                 |  |  |   _    _      __       _____    __    __             
                 |  |  |  | |  | |    /  \     |  _  \  |  |  /  |          
                  \  \/   | |  | |   /    \    | | | |  |  | /  /          
                 / \  \   | |__| |  /  /\  \   | |_| |  |  |/  /          
                |  |  |   |  __  | /  /__\  \  |    /   |      \           
                |  |  |   | |  | | |   __   |  |    \   |  |\   \          
                \     /   | |  | | |  |  |  |  | |\  \  |  | \   \       
                 \___/    |_|  |_| |__|  |__|  |_| \__\ |__|  \__/        
                                                                              
                      - O R C A' S   B I G   F R I E N D -                    
                                      &                                       
                       - I N T E G R A L  F E E D E R -                       
                                                                              
 v1 FN, 2020, v2 2021                                                         
------------------------------------------------------------------------------


Reading SHARK input file NfeCl_gas.SHARKINP.tmp ... ok
----------------------
SHARK INTEGRAL PACKAGE
----------------------

Number of atoms                             ...     38
Number of basis functions                   ...    308
Number of shells                            ...    154
Maximum angular momentum                    ...      2
Integral batch strategy                     ... SHARK/LIBINT Hybrid
RI-J (if used) integral strategy            ... SPLIT-RIJ (Revised 2003 algorithm where possible)
Printlevel                                  ...      1
Contraction scheme used                     ... SEGMENTED contraction
Coulomb Range Separation                    ... NOT USED
Exchange Range Separation                   ... NOT USED
Finite Nucleus Model                        ... NOT USED
Auxiliary Coulomb fitting basis             ... AVAILABLE
   # of basis functions in Aux-J            ...   2421
   # of shells in Aux-J                     ...    909
   Maximum angular momentum in Aux-J        ...      3
Auxiliary J/K fitting basis                 ... AVAILABLE
   # of basis functions in Aux-JK           ...   2421
   # of shells in Aux-JK                    ...    909
   Maximum angular momentum in Aux-JK       ...      3
Auxiliary Correlation fitting basis         ... AVAILABLE
   # of basis functions in Aux-C            ...   2421
   # of shells in Aux-C                     ...    909
   Maximum angular momentum in Aux-C        ...      3
Auxiliary 'external' fitting basis          ... NOT available
Integral threshold                          ...     2.500000e-11
Primitive cut-off                           ...     2.500000e-12
Primitive pair pre-selection threshold      ...     2.500000e-12

Calculating pre-screening integrals         ... done (  0.1 sec) Dimension = 154
Organizing shell pair data                  ... done (  0.1 sec)
Shell pair information
Total number of shell pairs                 ...     11935
Shell pairs after pre-screening             ...      9122
Total number of primitive shell pairs       ...     70237
Primitive shell pairs kept                  ...     29226
          la=0 lb=0:   3444 shell pairs
          la=1 lb=0:   3035 shell pairs
          la=1 lb=1:    678 shell pairs
          la=2 lb=0:   1266 shell pairs
          la=2 lb=1:    574 shell pairs
          la=2 lb=2:    125 shell pairs

Calculating one electron integrals          ... done (  0.0 sec)
Calculating RI/J V-Matrix + Cholesky decomp.... done (  0.5 sec)
Calculating RI/JK V-Matrix + Cholesky decomp... done (  0.4 sec)
Calculating RI/C V-Matrix + Cholesky decomp.... done (  0.3 sec)
Calculating Nuclear repulsion               ... done (  0.0 sec) ENN=   1560.868659841466 Eh

SHARK setup successfully completed in   1.8 seconds

Maximum memory used throughout the entire GTOINT-calculation: 48.6 MB


           ************************************************************
           *        Program running with 4 parallel MPI-processes     *
           *              working on a common directory               *
           ************************************************************
-------------------------------------------------------------------------------
                                 ORCA SCF
-------------------------------------------------------------------------------

------------
SCF SETTINGS
------------
Hamiltonian:
 Density Functional     Method          .... DFT(GTOs)
 Exchange Functional    Exchange        .... B88
   X-Alpha parameter    XAlpha          ....  0.666667
   Becke's b parameter  XBeta           ....  0.004200
 Correlation Functional Correlation     .... LYP
 LDA part of GGA corr.  LDAOpt          .... VWN-5
 Gradients option       PostSCFGGA      .... off
 Hybrid DFT is turned on
   Fraction HF Exchange ScalHFX         ....  0.200000
   Scaling of DF-GGA-X  ScalDFX         ....  0.720000
   Scaling of DF-GGA-C  ScalDFC         ....  0.810000
   Scaling of DF-LDA-C  ScalLDAC        ....  1.000000
   Perturbative correction              ....  0.000000
   Density functional embedding theory  .... OFF
   NL short-range parameter             ....  4.800000
 RI-approximation to the Coulomb term is turned on
   Number of AuxJ basis functions       .... 2421
   RIJ-COSX (HFX calculated with COS-X)).... on


General Settings:
 Integral files         IntName         .... NfeCl_gas
 Hartree-Fock type      HFTyp           .... RHF
 Total Charge           Charge          ....    0
 Multiplicity           Mult            ....    1
 Number of Electrons    NEL             ....  150
 Basis Dimension        Dim             ....  308
 Nuclear Repulsion      ENuc            ....   1560.8686598415 Eh

Convergence Acceleration:
 DIIS                   CNVDIIS         .... on
   Start iteration      DIISMaxIt       ....    12
   Startup error        DIISStart       ....  0.200000
   # of expansion vecs  DIISMaxEq       ....     5
   Bias factor          DIISBfac        ....   1.050
   Max. coefficient     DIISMaxC        ....  10.000
 Trust-Rad. Augm. Hess. CNVTRAH         .... auto
   Auto Start mean grad. ratio tolernc. ....  1.125000
   Auto Start start iteration           ....    20
   Auto Start num. interpolation iter.  ....    10
   Max. Number of Micro iterations      ....    16
   Max. Number of Macro iterations      .... Maxiter - #DIIS iter
   Number of Davidson start vectors     ....     2
   Converg. threshold I  (grad. norm)   ....   1.000e-05
   Converg. threshold II (energy diff.) ....   1.000e-08
   Grad. Scal. Fac. for Micro threshold ....   0.100
   Minimum threshold for Micro iter.    ....   0.010
   NR start threshold (gradient norm)   ....   0.001
   Initial trust radius                 ....   0.400
   Minimum AH scaling param. (alpha)    ....   1.000
   Maximum AH scaling param. (alpha)    .... 1000.000
   Orbital update algorithm             .... Taylor
   White noise on init. David. guess    .... on
   Maximum white noise                  ....   0.010
   Quad. conv. algorithm                .... NR
 SOSCF                  CNVSOSCF        .... on
   Start iteration      SOSCFMaxIt      ....   150
   Startup grad/error   SOSCFStart      ....  0.003300
 Level Shifting         CNVShift        .... on
   Level shift para.    LevelShift      ....    0.2500
   Turn off err/grad.   ShiftErr        ....    0.0010
 Zerner damping         CNVZerner       .... off
 Static damping         CNVDamp         .... on
   Fraction old density DampFac         ....    0.7000
   Max. Damping (<1)    DampMax         ....    0.9800
   Min. Damping (>=0)   DampMin         ....    0.0000
   Turn off err/grad.   DampErr         ....    0.1000
 Fernandez-Rico         CNVRico         .... off

SCF Procedure:
 Maximum # iterations   MaxIter         ....   125
 SCF integral mode      SCFMode         .... Direct
   Integral package                     .... SHARK and LIBINT hybrid scheme
 Reset frequency        DirectResetFreq ....    20
 Integral Threshold     Thresh          ....  2.500e-11 Eh
 Primitive CutOff       TCut            ....  2.500e-12 Eh

Convergence Tolerance:
 Convergence Check Mode ConvCheckMode   .... Total+1el-Energy
 Convergence forced     ConvForced      .... 0
 Energy Change          TolE            ....  1.000e-08 Eh
 1-El. energy change                    ....  1.000e-05 Eh
 Orbital Gradient       TolG            ....  1.000e-05
 Orbital Rotation angle TolX            ....  1.000e-05
 DIIS Error             TolErr          ....  5.000e-07


Diagonalization of the overlap matrix:
Smallest eigenvalue                        ... 4.532e-04
Time for diagonalization                   ...    0.230 sec
Threshold for overlap eigenvalues          ... 1.000e-08
Number of eigenvalues below threshold      ... 0
Time for construction of square roots      ...    0.009 sec
Total time needed                          ...    0.240 sec

Time for model grid setup =    0.734 sec

------------------------------
INITIAL GUESS: MODEL POTENTIAL
------------------------------
Loading Hartree-Fock densities                     ... done
Calculating cut-offs                               ... done
Initializing the effective Hamiltonian             ... done
Setting up the integral package (SHARK)            ... done
Starting the Coulomb interaction                   ... done (   0.6 sec)
Reading the grid                                   ... done
Mapping shells                                     ... done
Starting the XC term evaluation                    ... done (   0.2 sec)
  promolecular density results
     # of electrons  =    149.993913519
     EX              =   -134.726758073
     EC              =     -5.201921738
     EX+EC           =   -139.928679811
Transforming the Hamiltonian                       ... done (   0.0 sec)
Diagonalizing the Hamiltonian                      ... done (   0.0 sec)
Back transforming the eigenvectors                 ... done (   0.0 sec)
Now organizing SCF variables                       ... done
                      ------------------
                      INITIAL GUESS DONE (   2.4 sec)
                      ------------------
-------------------
DFT GRID GENERATION
-------------------

General Integration Accuracy     IntAcc      ... 4.388
Radial Grid Type                 RadialGrid  ... OptM3 with GC (2021)
Angular Grid (max. ang.)         AngularGrid ... 4 (Lebedev-302)
Angular grid pruning method      GridPruning ... 4 (adaptive)
Weight generation scheme         WeightScheme... Becke
Basis function cutoff            BFCut       ... 1.0000e-11
Integration weight cutoff        WCut        ... 1.0000e-14
Angular grids for H and He will be reduced by one unit
Partially contracted basis set               ... off
Rotationally invariant grid construction     ... off

Total number of grid points                  ...   174979
Total number of batches                      ...     2754
Average number of points per batch           ...       63
Average number of grid points per atom       ...     4605
Time for grid setup =    1.298 sec

--------------------
COSX GRID GENERATION
--------------------

GRIDX 1
-------
General Integration Accuracy     IntAcc      ... 3.816
Radial Grid Type                 RadialGrid  ... OptM3 with GC (2021)
Angular Grid (max. ang.)         AngularGrid ... 1 (Lebedev-50)
Angular grid pruning method      GridPruning ... 4 (adaptive)
Weight generation scheme         WeightScheme... Becke
Basis function cutoff            BFCut       ... 1.0000e-11
Integration weight cutoff        WCut        ... 1.0000e-14
Angular grids for H and He will be reduced by one unit
Partially contracted basis set               ... on
Rotationally invariant grid construction     ... off

Total number of grid points                  ...    22149
Total number of batches                      ...      367
Average number of points per batch           ...       60
Average number of grid points per atom       ...      583
UseSFitting                                  ... on

GRIDX 2
-------
General Integration Accuracy     IntAcc      ... 4.020
Radial Grid Type                 RadialGrid  ... OptM3 with GC (2021)
Angular Grid (max. ang.)         AngularGrid ... 2 (Lebedev-110)
Angular grid pruning method      GridPruning ... 4 (adaptive)
Weight generation scheme         WeightScheme... Becke
Basis function cutoff            BFCut       ... 1.0000e-11
Integration weight cutoff        WCut        ... 1.0000e-14
Angular grids for H and He will be reduced by one unit
Partially contracted basis set               ... on
Rotationally invariant grid construction     ... off

Total number of grid points                  ...    47384
Total number of batches                      ...      758
Average number of points per batch           ...       62
Average number of grid points per atom       ...     1247
UseSFitting                                  ... on

GRIDX 3
-------
General Integration Accuracy     IntAcc      ... 4.338
Radial Grid Type                 RadialGrid  ... OptM3 with GC (2021)
Angular Grid (max. ang.)         AngularGrid ... 3 (Lebedev-194)
Angular grid pruning method      GridPruning ... 4 (adaptive)
Weight generation scheme         WeightScheme... Becke
Basis function cutoff            BFCut       ... 1.0000e-11
Integration weight cutoff        WCut        ... 1.0000e-14
Angular grids for H and He will be reduced by one unit
Partially contracted basis set               ... on
Rotationally invariant grid construction     ... off

Total number of grid points                  ...   103932
Total number of batches                      ...     1645
Average number of points per batch           ...       63
Average number of grid points per atom       ...     2735
UseSFitting                                  ... on

Time for X-Grid setup             =    2.722 sec

--------------
SCF ITERATIONS
--------------
ITER       Energy         Delta-E        Max-DP      RMS-DP      [F,P]     Damp
               ***  Starting incremental Fock matrix formation  ***
  0  -1264.0326228785   0.000000000000 0.10227132  0.00188979  0.2764213 0.7000
  1  -1264.2658046880  -0.233181809568 0.05816583  0.00126499  0.1069861 0.7000
                               ***Turning on DIIS***
  2  -1264.3554526879  -0.089647999860 0.06524751  0.00196744  0.0391054 0.0000
  3  -1264.4992021773  -0.143749489423 0.03868633  0.00090006  0.0520308 0.0000
  4  -1264.5292566880  -0.030054510641 0.01068732  0.00029940  0.0177571 0.0000
  5  -1264.5316237495  -0.002367061528 0.00401524  0.00009336  0.0063816 0.0000
                      *** Initiating the SOSCF procedure ***
                           *** Shutting down DIIS ***
                      *** Re-Reading the Fockian *** 
                      *** Removing any level shift *** 
ITER      Energy       Delta-E        Grad      Rot      Max-DP    RMS-DP
  6  -1264.53179537  -0.0001716248  0.000249  0.000249  0.001404  0.000038
               *** Restarting incremental Fock matrix formation ***
  7  -1264.53183905  -0.0000436785  0.000276  0.001116  0.001609  0.000028
  8  -1264.53182930   0.0000097497  0.000579  0.000827  0.001016  0.000018
  9  -1264.53184362  -0.0000143139  0.000055  0.000155  0.000290  0.000006
 10  -1264.53184314   0.0000004724  0.000111  0.000104  0.000228  0.000004
 11  -1264.53184380  -0.0000006601  0.000010  0.000042  0.000067  0.000001
 12  -1264.53184379   0.0000000110  0.000022  0.000031  0.000040  0.000001
                  ***Gradient check signals convergence***
              ***Rediagonalizing the Fockian in SOSCF/NRSCF***

               *****************************************************
               *                     SUCCESS                       *
               *           SCF CONVERGED AFTER  13 CYCLES          *
               *****************************************************

Old exchange energy                            =    -27.338194054 Eh
New exchange energy                            =    -27.338171051 Eh
Exchange energy change after final integration =      0.000023003 Eh
Total energy after final integration           =  -1264.531820809 Eh
Final COS-X integration done in                =    12.817 sec

----------------
TOTAL SCF ENERGY
----------------

Total Energy       :        -1264.53182081 Eh          -34409.66020 eV

Components:
Nuclear Repulsion  :         1560.86865984 Eh           42473.39554 eV
Electronic Energy  :        -2825.40048065 Eh          -76883.05574 eV
One Electron Energy:        -4829.74049616 Eh         -131423.92036 eV
Two Electron Energy:         2004.34001551 Eh           54540.86463 eV
Max COSX asymmetry :            0.00000308 Eh               0.00008 eV

Virial components:
Potential Energy   :        -2523.59437837 Eh          -68670.49418 eV
Kinetic Energy     :         1259.06255756 Eh           34260.83398 eV
Virial Ratio       :            2.00434392


DFT components:
N(Alpha)           :       74.999839880097 electrons
N(Beta)            :       74.999839880097 electrons
N(Total)           :      149.999679760194 electrons
E(X)               :     -108.530636210684 Eh       
E(C)               :       -6.119460956118 Eh       
E(XC)              :     -114.650097166802 Eh       
DFET-embed. en.    :        0.000000000000 Eh       

---------------
SCF CONVERGENCE
---------------

  Last Energy change         ...   -1.7638e-08  Tolerance :   1.0000e-08
  Last MAX-Density change    ...    3.9968e-15  Tolerance :   1.0000e-07
  Last RMS-Density change    ...    5.4351e-17  Tolerance :   5.0000e-09
  Last Orbital Gradient      ...    1.2241e-06  Tolerance :   1.0000e-05
  Last Orbital Rotation      ...    2.8045e-06  Tolerance :   1.0000e-05

             **** THE GBW FILE WAS UPDATED (NfeCl_gas.gbw) ****
             **** DENSITY NfeCl_gas.scfp WAS UPDATED ****
             **** ENERGY FILE WAS UPDATED (NfeCl_gas.en.tmp) ****
             **** THE GBW FILE WAS UPDATED (NfeCl_gas.gbw) ****
             **** DENSITY NfeCl_gas.scfp WAS UPDATED ****
----------------
ORBITAL ENERGIES
----------------

  NO   OCC          E(Eh)            E(eV) 
   0   2.0000    -101.521713     -2762.5463 
   1   2.0000     -19.111526      -520.0511 
   2   2.0000     -19.110722      -520.0292 
   3   2.0000     -14.367696      -390.9649 
   4   2.0000     -14.367432      -390.9577 
   5   2.0000     -10.288442      -279.9627 
   6   2.0000     -10.284005      -279.8420 
   7   2.0000     -10.241932      -278.6971 
   8   2.0000     -10.224770      -278.2301 
   9   2.0000     -10.218186      -278.0510 
  10   2.0000     -10.211868      -277.8791 
  11   2.0000     -10.207978      -277.7732 
  12   2.0000     -10.196613      -277.4639 
  13   2.0000     -10.194469      -277.4056 
  14   2.0000     -10.192719      -277.3580 
  15   2.0000     -10.192669      -277.3566 
  16   2.0000     -10.191049      -277.3125 
  17   2.0000     -10.187451      -277.2146 
  18   2.0000     -10.186414      -277.1864 
  19   2.0000      -9.453869      -257.2528 
  20   2.0000      -7.216957      -196.3834 
  21   2.0000      -7.207352      -196.1220 
  22   2.0000      -7.207049      -196.1138 
  23   2.0000      -1.035260       -28.1708 
  24   2.0000      -1.027314       -27.9546 
  25   2.0000      -0.941381       -25.6163 
  26   2.0000      -0.936048       -25.4712 
  27   2.0000      -0.885035       -24.0830 
  28   2.0000      -0.839532       -22.8448 
  29   2.0000      -0.786293       -21.3961 
  30   2.0000      -0.767183       -20.8761 
  31   2.0000      -0.753411       -20.5014 
  32   2.0000      -0.732965       -19.9450 
  33   2.0000      -0.721940       -19.6450 
  34   2.0000      -0.711769       -19.3682 
  35   2.0000      -0.679890       -18.5007 
  36   2.0000      -0.649997       -17.6873 
  37   2.0000      -0.618569       -16.8321 
  38   2.0000      -0.582564       -15.8524 
  39   2.0000      -0.561222       -15.2716 
  40   2.0000      -0.547623       -14.9016 
  41   2.0000      -0.521672       -14.1954 
  42   2.0000      -0.507668       -13.8144 
  43   2.0000      -0.493650       -13.4329 
  44   2.0000      -0.489122       -13.3097 
  45   2.0000      -0.477486       -12.9930 
  46   2.0000      -0.470762       -12.8101 
  47   2.0000      -0.466277       -12.6880 
  48   2.0000      -0.461966       -12.5707 
  49   2.0000      -0.453882       -12.3508 
  50   2.0000      -0.433310       -11.7910 
  51   2.0000      -0.427632       -11.6365 
  52   2.0000      -0.424040       -11.5387 
  53   2.0000      -0.414421       -11.2770 
  54   2.0000      -0.412129       -11.2146 
  55   2.0000      -0.408103       -11.1050 
  56   2.0000      -0.405374       -11.0308 
  57   2.0000      -0.402741       -10.9591 
  58   2.0000      -0.400255       -10.8915 
  59   2.0000      -0.389952       -10.6111 
  60   2.0000      -0.383478       -10.4350 
  61   2.0000      -0.380912       -10.3651 
  62   2.0000      -0.373424       -10.1614 
  63   2.0000      -0.365872        -9.9559 
  64   2.0000      -0.354381        -9.6432 
  65   2.0000      -0.350325        -9.5328 
  66   2.0000      -0.341916        -9.3040 
  67   2.0000      -0.322240        -8.7686 
  68   2.0000      -0.306061        -8.3283 
  69   2.0000      -0.262040        -7.1305 
  70   2.0000      -0.258113        -7.0236 
  71   2.0000      -0.253454        -6.8968 
  72   2.0000      -0.244881        -6.6636 
  73   2.0000      -0.243706        -6.6316 
  74   2.0000      -0.232519        -6.3272 
  75   0.0000      -0.010614        -0.2888 
  76   0.0000      -0.008240        -0.2242 
  77   0.0000       0.008275         0.2252 
  78   0.0000       0.021612         0.5881 
  79   0.0000       0.035615         0.9691 
  80   0.0000       0.071896         1.9564 
  81   0.0000       0.080826         2.1994 
  82   0.0000       0.106750         2.9048 
  83   0.0000       0.122560         3.3350 
  84   0.0000       0.124224         3.3803 
  85   0.0000       0.132028         3.5927 
  86   0.0000       0.133978         3.6457 
  87   0.0000       0.143020         3.8918 
  88   0.0000       0.150158         4.0860 
  89   0.0000       0.150726         4.1015 
  90   0.0000       0.151782         4.1302 
  91   0.0000       0.157561         4.2875 
  92   0.0000       0.166050         4.5185 
  93   0.0000       0.166870         4.5408 
  94   0.0000       0.177454         4.8288 
  95   0.0000       0.178749         4.8640 
  96   0.0000       0.183549         4.9946 
  97   0.0000       0.188779         5.1369 
  98   0.0000       0.196507         5.3472 
  99   0.0000       0.204766         5.5720 
 100   0.0000       0.213276         5.8035 
 101   0.0000       0.218942         5.9577 
 102   0.0000       0.219752         5.9798 
 103   0.0000       0.232644         6.3306 
 104   0.0000       0.236747         6.4422 
 105   0.0000       0.254536         6.9263 
 106   0.0000       0.258741         7.0407 
 107   0.0000       0.277917         7.5625 
 108   0.0000       0.291208         7.9242 
 109   0.0000       0.292511         7.9596 
 110   0.0000       0.326571         8.8864 
 111   0.0000       0.329437         8.9644 
 112   0.0000       0.341528         9.2935 
 113   0.0000       0.357335         9.7236 
 114   0.0000       0.374765        10.1979 
 115   0.0000       0.412110        11.2141 
 116   0.0000       0.417090        11.3496 
 117   0.0000       0.424907        11.5623 
 118   0.0000       0.427872        11.6430 
 119   0.0000       0.450381        12.2555 
 120   0.0000       0.460513        12.5312 
 121   0.0000       0.470971        12.8158 
 122   0.0000       0.492932        13.4134 
 123   0.0000       0.502869        13.6838 
 124   0.0000       0.506856        13.7923 
 125   0.0000       0.512504        13.9459 
 126   0.0000       0.516933        14.0665 
 127   0.0000       0.532822        14.4988 
 128   0.0000       0.541756        14.7419 
 129   0.0000       0.556910        15.1543 
 130   0.0000       0.562770        15.3138 
 131   0.0000       0.567634        15.4461 
 132   0.0000       0.579308        15.7638 
 133   0.0000       0.585280        15.9263 
 134   0.0000       0.590297        16.0628 
 135   0.0000       0.591136        16.0856 
 136   0.0000       0.598878        16.2963 
 137   0.0000       0.604047        16.4370 
 138   0.0000       0.611600        16.6425 
 139   0.0000       0.615157        16.7393 
 140   0.0000       0.625703        17.0263 
 141   0.0000       0.634153        17.2562 
 142   0.0000       0.644909        17.5489 
 143   0.0000       0.653203        17.7746 
 144   0.0000       0.658484        17.9183 
 145   0.0000       0.663684        18.0598 
 146   0.0000       0.668781        18.1985 
 147   0.0000       0.687886        18.7183 
 148   0.0000       0.713353        19.4113 
 149   0.0000       0.717708        19.5298 
 150   0.0000       0.719527        19.5793 
 151   0.0000       0.735443        20.0124 
 152   0.0000       0.755529        20.5590 
 153   0.0000       0.759322        20.6622 
 154   0.0000       0.763462        20.7749 
 155   0.0000       0.774509        21.0755 
 156   0.0000       0.792056        21.5529 
 157   0.0000       0.803171        21.8554 
 158   0.0000       0.813021        22.1234 
 159   0.0000       0.818473        22.2718 
 160   0.0000       0.829226        22.5644 
 161   0.0000       0.836543        22.7635 
 162   0.0000       0.839863        22.8538 
 163   0.0000       0.845459        23.0061 
 164   0.0000       0.853705        23.2305 
 165   0.0000       0.860263        23.4090 
 166   0.0000       0.870363        23.6838 
 167   0.0000       0.875327        23.8189 
 168   0.0000       0.880435        23.9579 
 169   0.0000       0.883384        24.0381 
 170   0.0000       0.884313        24.0634 
 171   0.0000       0.891815        24.2675 
 172   0.0000       0.903738        24.5920 
 173   0.0000       0.910244        24.7690 
 174   0.0000       0.919081        25.0095 
 175   0.0000       0.923492        25.1295 
 176   0.0000       0.929051        25.2808 
 177   0.0000       0.939216        25.5574 
 178   0.0000       0.941672        25.6242 
 179   0.0000       0.958737        26.0886 
 180   0.0000       0.964402        26.2427 
 181   0.0000       0.977225        26.5917 
 182   0.0000       0.984789        26.7975 
 183   0.0000       0.992462        27.0063 
 184   0.0000       0.998364        27.1669 
 185   0.0000       1.005679        27.3659 
 186   0.0000       1.017014        27.6743 
 187   0.0000       1.024054        27.8659 
 188   0.0000       1.038338        28.2546 
 189   0.0000       1.051701        28.6182 
 190   0.0000       1.065159        28.9845 
 191   0.0000       1.087949        29.6046 
 192   0.0000       1.105243        30.0752 
 193   0.0000       1.121925        30.5291 
 194   0.0000       1.140730        31.0408 
 195   0.0000       1.152390        31.3581 
 196   0.0000       1.177315        32.0364 
 197   0.0000       1.183258        32.1981 
 198   0.0000       1.200954        32.6796 
 199   0.0000       1.229596        33.4590 
 200   0.0000       1.246762        33.9261 
 201   0.0000       1.253373        34.1060 
 202   0.0000       1.267409        34.4879 
 203   0.0000       1.297281        35.3008 
 204   0.0000       1.323381        36.0110 
 205   0.0000       1.339552        36.4511 
 206   0.0000       1.347574        36.6694 
 207   0.0000       1.360197        37.0128 
 208   0.0000       1.376312        37.4514 
 209   0.0000       1.398978        38.0681 
 210   0.0000       1.405761        38.2527 
 211   0.0000       1.421378        38.6777 
 212   0.0000       1.428070        38.8598 
 213   0.0000       1.429024        38.8857 
 214   0.0000       1.433755        39.0145 
 215   0.0000       1.447971        39.4013 
 216   0.0000       1.463745        39.8305 
 217   0.0000       1.464906        39.8621 
 218   0.0000       1.490824        40.5674 
 219   0.0000       1.503869        40.9224 
 220   0.0000       1.506147        40.9843 
 221   0.0000       1.531144        41.6645 
 222   0.0000       1.557783        42.3894 
 223   0.0000       1.605963        43.7005 
 224   0.0000       1.628602        44.3165 
 225   0.0000       1.661272        45.2055 
 226   0.0000       1.709877        46.5281 
 227   0.0000       1.726089        46.9693 
 228   0.0000       1.746065        47.5129 
 229   0.0000       1.763273        47.9811 
 230   0.0000       1.771494        48.2048 
 231   0.0000       1.798107        48.9290 
 232   0.0000       1.812917        49.3320 
 233   0.0000       1.819824        49.5199 
 234   0.0000       1.823440        49.6183 
 235   0.0000       1.832672        49.8695 
 236   0.0000       1.842998        50.1505 
 237   0.0000       1.856124        50.5077 
 238   0.0000       1.865357        50.7589 
 239   0.0000       1.888214        51.3809 
 240   0.0000       1.893671        51.5294 
 241   0.0000       1.913947        52.0811 
 242   0.0000       1.931396        52.5560 
 243   0.0000       1.938153        52.7398 
 244   0.0000       1.951916        53.1143 
 245   0.0000       1.960402        53.3452 
 246   0.0000       1.966120        53.5009 
 247   0.0000       1.973809        53.7101 
 248   0.0000       1.978764        53.8449 
 249   0.0000       1.987482        54.0821 
 250   0.0000       2.017782        54.9067 
 251   0.0000       2.039201        55.4895 
 252   0.0000       2.048434        55.7407 
 253   0.0000       2.060144        56.0594 
 254   0.0000       2.071236        56.3612 
 255   0.0000       2.076375        56.5010 
 256   0.0000       2.079505        56.5862 
 257   0.0000       2.082271        56.6615 
 258   0.0000       2.098021        57.0901 
 259   0.0000       2.122979        57.7692 
 260   0.0000       2.134553        58.0842 
 261   0.0000       2.142845        58.3098 
 262   0.0000       2.149596        58.4935 
 263   0.0000       2.190189        59.5981 
 264   0.0000       2.198494        59.8241 
 265   0.0000       2.210196        60.1425 
 266   0.0000       2.221087        60.4388 
 267   0.0000       2.244791        61.0839 
 268   0.0000       2.259192        61.4757 
 269   0.0000       2.268023        61.7160 
 270   0.0000       2.277156        61.9646 
 271   0.0000       2.293384        62.4061 
 272   0.0000       2.301353        62.6230 
 273   0.0000       2.327111        63.3239 
 274   0.0000       2.340439        63.6866 
 275   0.0000       2.358251        64.1713 
 276   0.0000       2.378485        64.7219 
 277   0.0000       2.389918        65.0330 
 278   0.0000       2.406623        65.4875 
 279   0.0000       2.421846        65.9018 
 280   0.0000       2.436064        66.2887 
 281   0.0000       2.486960        67.6736 
 282   0.0000       2.516163        68.4683 
 283   0.0000       2.546139        69.2840 
 284   0.0000       2.556955        69.5783 
 285   0.0000       2.584884        70.3383 
 286   0.0000       2.597147        70.6720 
 287   0.0000       2.618100        71.2421 
 288   0.0000       2.634575        71.6904 
 289   0.0000       2.651878        72.1613 
 290   0.0000       2.654523        72.2332 
 291   0.0000       2.670799        72.6761 
 292   0.0000       2.691565        73.2412 
 293   0.0000       2.705231        73.6131 
 294   0.0000       2.728277        74.2402 
 295   0.0000       2.740559        74.5744 
 296   0.0000       2.768254        75.3280 
 297   0.0000       2.769854        75.3715 
 298   0.0000       2.787548        75.8530 
 299   0.0000       2.913320        79.2755 
 300   0.0000       2.941414        80.0399 
 301   0.0000       2.959212        80.5242 
 302   0.0000       3.006508        81.8112 
 303   0.0000       3.020598        82.1946 
 304   0.0000       3.055281        83.1384 
 305   0.0000       3.161497        86.0287 
 306   0.0000       3.180650        86.5499 
 307   0.0000       3.384515        92.0973 

                    ********************************
                    * MULLIKEN POPULATION ANALYSIS *
                    ********************************

-----------------------
MULLIKEN ATOMIC CHARGES
-----------------------
   0 C :   -0.550896
   1 H :    0.167318
   2 H :    0.178587
   3 H :    0.190546
   4 C :    0.524637
   5 O :   -0.482514
   6 N :   -0.375156
   7 C :   -0.246083
   8 H :    0.176962
   9 H :    0.204114
  10 C :   -0.160799
  11 H :    0.158383
  12 H :    0.186147
  13 C :   -0.363189
  14 H :    0.173210
  15 H :    0.142734
  16 C :    0.153341
  17 C :   -0.189013
  18 C :   -0.178187
  19 C :   -0.127652
  20 H :    0.179534
  21 C :   -0.124399
  22 H :    0.126362
  23 C :   -0.070212
  24 H :    0.156175
  25 H :    0.151590
  26 C :    0.516931
  27 N :   -0.361942
  28 O :   -0.493459
  29 C :   -0.346935
  30 H :    0.152881
  31 H :    0.158805
  32 H :    0.215702
  33 C :   -0.322767
  34 H :    0.154060
  35 H :    0.202200
  36 H :    0.155278
  37 Cl:   -0.032292
Sum of atomic charges:    0.0000000

--------------------------------
MULLIKEN REDUCED ORBITAL CHARGES
--------------------------------
  0 C s       :     3.318229  s :     3.318229
      pz      :     1.070995  p :     3.200544
      px      :     1.102503
      py      :     1.027046
      dz2     :     0.002826  d :     0.032123
      dxz     :     0.010021
      dyz     :     0.007120
      dx2y2   :     0.004419
      dxy     :     0.007738
  1 H s       :     0.832682  s :     0.832682
  2 H s       :     0.821413  s :     0.821413
  3 H s       :     0.809454  s :     0.809454
  4 C s       :     2.981302  s :     2.981302
      pz      :     0.807317  p :     2.385774
      px      :     0.762293
      py      :     0.816163
      dz2     :     0.008186  d :     0.108287
      dxz     :     0.027210
      dyz     :     0.007450
      dx2y2   :     0.024795
      dxy     :     0.040646
  5 O s       :     3.876091  s :     3.876091
      pz      :     1.513685  p :     4.580268
      px      :     1.346520
      py      :     1.720063
      dz2     :     0.002468  d :     0.026155
      dxz     :     0.008858
      dyz     :     0.000309
      dx2y2   :     0.007773
      dxy     :     0.006747
  6 N s       :     3.532136  s :     3.532136
      pz      :     1.511724  p :     3.806628
      px      :     1.089022
      py      :     1.205882
      dz2     :     0.004552  d :     0.036392
      dxz     :     0.006491
      dyz     :     0.004953
      dx2y2   :     0.010219
      dxy     :     0.010178
  7 C s       :     3.248777  s :     3.248777
      pz      :     1.021511  p :     2.945292
      px      :     1.084541
      py      :     0.839240
      dz2     :     0.014051  d :     0.052014
      dxz     :     0.005079
      dyz     :     0.011155
      dx2y2   :     0.014227
      dxy     :     0.007502
  8 H s       :     0.823038  s :     0.823038
  9 H s       :     0.795886  s :     0.795886
 10 C s       :     3.215398  s :     3.215398
      pz      :     1.019379  p :     2.891225
      px      :     0.786403
[...]
    107       0.000559  -0.237143   0.047919   0.515348  -0.000397  -0.000629
    108      -0.000028  -0.062495   0.012556   0.133159  -0.000127   0.000164
    109       0.000005   0.057641  -0.011333  -0.119757   0.000099  -0.000163
    110      -0.000020  -0.011350   0.002354   0.024022  -0.000014   0.000070
    111      -0.000002  -0.000002   0.000033  -0.000005   0.000045  -0.000260
    112       0.000018  -0.000001   0.000012  -0.000002   0.000025  -0.000031
    113       0.000012  -0.000000   0.000008  -0.000001   0.000018  -0.000036


-----------
IR SPECTRUM
-----------

 Mode   freq       eps      Int      T**2         TX        TY        TZ
       cm**-1   L/(mol*cm) km/mol    a.u.
----------------------------------------------------------------------------
  6:     22.28   0.000151    0.76  0.002119  ( 0.027571 -0.026215 -0.025918)
  7:     33.59   0.000461    2.33  0.004285  ( 0.058163 -0.009213 -0.028583)
  8:     41.70   0.000116    0.59  0.000870  (-0.020401 -0.017153 -0.012620)
  9:     45.79   0.000359    1.81  0.002444  ( 0.016310 -0.011959 -0.045108)
 10:     70.49   0.000306    1.55  0.001354  (-0.011908  0.031272  0.015310)
 11:     77.48   0.000172    0.87  0.000692  (-0.010078  0.023664  0.005511)
 12:    102.34   0.000675    3.41  0.002058  ( 0.026538 -0.024505 -0.027440)
 13:    109.84   0.000648    3.28  0.001842  (-0.017528  0.036199 -0.014976)
 14:    122.79   0.001481    7.48  0.003764  ( 0.006738  0.048831 -0.036523)
 15:    133.24   0.000552    2.79  0.001294  (-0.019369  0.030250 -0.001910)
 16:    150.62   0.000190    0.96  0.000394  (-0.000792  0.019682  0.002464)
 17:    159.12   0.000186    0.94  0.000365  (-0.000717  0.017439 -0.007755)
 18:    165.62   0.000066    0.33  0.000125  (-0.002690 -0.006253 -0.008843)
 19:    217.66   0.000314    1.59  0.000450  (-0.013645  0.010521  0.012370)
 20:    245.94   0.000405    2.05  0.000514  (-0.006747  0.017365  0.012919)
 21:    260.78   0.000017    0.08  0.000020  ( 0.000353 -0.004432  0.000355)
 22:    281.70   0.001595    8.06  0.001767  (-0.024381  0.033277  0.008047)
 23:    322.57   0.000309    1.56  0.000299  ( 0.004545 -0.016419  0.002980)
 24:    340.17   0.000270    1.36  0.000248  (-0.006797 -0.002623 -0.013953)
 25:    369.41   0.001618    8.18  0.001367  (-0.013741  0.023618 -0.024911)
 26:    380.44   0.000003    0.01  0.000002  ( 0.000781  0.000746 -0.000951)
 27:    391.42   0.000994    5.02  0.000792  (-0.003947 -0.011856  0.025226)
 28:    421.87   0.000008    0.04  0.000006  ( 0.002365 -0.000061 -0.000015)
 29:    427.43   0.001446    7.31  0.001055  (-0.028539 -0.015497  0.000934)
 30:    434.19   0.002250   11.37  0.001617  (-0.037738 -0.012236  0.006574)
 31:    471.15   0.001470    7.43  0.000974  ( 0.029931  0.001924 -0.008622)
 32:    485.13   0.002871   14.51  0.001847  ( 0.018894 -0.034016 -0.018239)
 33:    526.46   0.002708   13.69  0.001605  ( 0.002954 -0.010587  0.038528)
 34:    581.56   0.001943    9.82  0.001043  (-0.004636 -0.026226  0.018256)
 35:    595.75   0.002220   11.22  0.001163  ( 0.014890  0.024384 -0.018614)
 36:    620.44   0.001151    5.82  0.000579  (-0.000108 -0.000481  0.024061)
 37:    648.16   0.000286    1.45  0.000138  (-0.010206 -0.003048 -0.004932)
 38:    670.99   0.004627   23.39  0.002152  (-0.043290 -0.007797 -0.014742)
 39:    699.67   0.000195    0.98  0.000087  (-0.006488  0.006495 -0.001598)
 40:    727.65   0.000436    2.20  0.000187  ( 0.008483  0.009582 -0.004811)
 41:    766.12   0.001824    9.22  0.000743  (-0.003462 -0.023646  0.013106)
 42:    787.06   0.001366    6.91  0.000542  (-0.019475  0.009812  0.008138)
 43:    821.97   0.004440   22.44  0.001685  ( 0.032516 -0.013037  0.021406)
 44:    829.53   0.002284   11.54  0.000859  ( 0.002458  0.012373 -0.026460)
 45:    852.97   0.000203    1.03  0.000074  (-0.000520 -0.000938  0.008559)
 46:    870.85   0.003203   16.18  0.001148  ( 0.005054  0.020231 -0.026698)
 47:    954.37   0.000116    0.58  0.000038  (-0.000741  0.003191 -0.005204)
 48:    962.03   0.000242    1.22  0.000078  (-0.004064  0.005797 -0.005322)
 49:    990.98   0.000009    0.05  0.000003  (-0.001261 -0.001130 -0.000265)
 50:   1003.10   0.003095   15.64  0.000963  (-0.026326  0.004799 -0.015707)
 51:   1012.23   0.004230   21.38  0.001304  ( 0.012161  0.026173 -0.021709)
 52:   1029.27   0.003095   15.64  0.000938  ( 0.010562  0.027180  0.009388)
 53:   1031.11   0.004935   24.94  0.001494  ( 0.027742  0.016213 -0.021476)
 54:   1034.21   0.006165   31.16  0.001860  (-0.039246 -0.009023 -0.015451)
 55:   1063.95   0.000848    4.28  0.000249  ( 0.000180  0.006250 -0.014475)
 56:   1093.23   0.002187   11.05  0.000624  (-0.020336 -0.004939 -0.013649)
 57:   1097.42   0.001260    6.37  0.000358  ( 0.001121 -0.010666  0.015593)
 58:   1112.04   0.009836   49.71  0.002760  ( 0.051189  0.009098  0.007564)
 59:   1141.16   0.000110    0.56  0.000030  (-0.002132 -0.004339 -0.002585)
 60:   1144.03   0.002184   11.04  0.000596  (-0.016371  0.002735 -0.017895)
 61:   1170.60   0.009789   49.47  0.002610  (-0.038647  0.024134 -0.023099)
 62:   1190.13   0.000659    3.33  0.000173  ( 0.009739 -0.008780  0.000902)
 63:   1217.57   0.000275    1.39  0.000070  ( 0.000279 -0.002921 -0.007862)
 64:   1221.72   0.005434   27.46  0.001388  (-0.008205 -0.014012 -0.033531)
 65:   1235.64   0.002062   10.42  0.000521  (-0.020026 -0.010805  0.001744)
 66:   1253.48   0.007252   36.65  0.001806  ( 0.030854  0.028885  0.004386)
 67:   1288.50   0.005843   29.53  0.001415  (-0.010001 -0.022531  0.028417)
 68:   1298.20   0.019636   99.23  0.004720  (-0.016549 -0.065147 -0.014220)
 69:   1331.11   0.000087    0.44  0.000020  (-0.003362  0.001935  0.002306)
 70:   1337.46   0.001286    6.50  0.000300  (-0.006989 -0.015728 -0.001938)
 71:   1340.24   0.001192    6.02  0.000277  (-0.013278 -0.009603 -0.002989)
 72:   1363.90   0.000396    2.00  0.000091  (-0.003252 -0.008086 -0.003827)
 73:   1377.01   0.000127    0.64  0.000029  (-0.002716  0.004585 -0.000527)
 74:   1410.29   0.006415   32.42  0.001420  (-0.036140 -0.003669  0.009996)
 75:   1421.05   0.005060   25.57  0.001111  (-0.023321 -0.021859 -0.009455)
 76:   1448.86   0.006218   31.42  0.001339  ( 0.018085 -0.017255  0.026731)
 77:   1457.62   0.001899    9.60  0.000407  (-0.006093 -0.016944 -0.009073)
 78:   1462.16   0.019863  100.38  0.004239  (-0.003872  0.057537 -0.030229)
 79:   1474.54   0.024132  121.95  0.005107  ( 0.053820  0.042550  0.020000)
 80:   1494.92   0.004733   23.92  0.000988  ( 0.030768  0.006365 -0.000845)
 81:   1501.10   0.001410    7.13  0.000293  (-0.004169 -0.002636  0.016398)
 82:   1515.41   0.001173    5.93  0.000242  ( 0.003949  0.002680  0.014789)
 83:   1518.64   0.002875   14.53  0.000591  (-0.001881 -0.023765 -0.004748)
 84:   1521.42   0.001029    5.20  0.000211  ( 0.009712  0.007299 -0.007972)
 85:   1525.37   0.000477    2.41  0.000098  ( 0.001137  0.009667  0.001678)
 86:   1534.15   0.005633   28.47  0.001146  ( 0.001817 -0.021859 -0.025782)
 87:   1538.11   0.004589   23.19  0.000931  (-0.029079  0.009221 -0.000724)
 88:   1542.43   0.016870   85.25  0.003413  ( 0.057506  0.005881  0.008460)
 89:   1544.99   0.000766    3.87  0.000155  (-0.002948  0.001712  0.011961)
 90:   1570.64   0.008418   42.54  0.001673  ( 0.001749 -0.023732  0.033262)
 91:   1632.45   0.000143    0.72  0.000027  (-0.001743  0.004880  0.000663)
 92:   1658.81   0.000699    3.53  0.000132  ( 0.010836  0.001888  0.003253)
 93:   1739.19   0.055770  281.84  0.010007  (-0.075250 -0.009408 -0.065236)
 94:   1747.51   0.079566  402.09  0.014209  (-0.117792 -0.009186 -0.015782)
 95:   3025.49   0.005298   26.77  0.000546  (-0.018779 -0.004727 -0.013093)
 96:   3033.79   0.015571   78.69  0.001602  ( 0.007319 -0.017856  0.035061)
 97:   3060.50   0.001786    9.03  0.000182  (-0.012570  0.000692 -0.004860)
 98:   3064.47   0.003283   16.59  0.000334  (-0.007923 -0.009825 -0.013227)
 99:   3073.40   0.009426   47.63  0.000957  ( 0.023604 -0.018859 -0.006651)
100:   3082.46   0.002236   11.30  0.000226  ( 0.007934 -0.010911 -0.006663)
101:   3084.04   0.006500   32.85  0.000658  (-0.018113  0.017762  0.003762)
102:   3085.03   0.005611   28.36  0.000568  ( 0.009131 -0.003135  0.021781)
103:   3116.37   0.001033    5.22  0.000103  ( 0.007123 -0.005971  0.004130)
104:   3123.91   0.002213   11.18  0.000221  ( 0.004235  0.004589 -0.013494)
105:   3136.01   0.004050   20.47  0.000403  ( 0.000107  0.019861  0.002924)
106:   3169.54   0.000357    1.81  0.000035  ( 0.001909 -0.005395  0.001560)
107:   3177.14   0.001684    8.51  0.000165  ( 0.011393  0.005489  0.002338)
108:   3181.58   0.002663   13.46  0.000261  ( 0.008042  0.011751  0.007645)
109:   3190.60   0.002246   11.35  0.000220  (-0.001791  0.014518 -0.002391)
110:   3191.15   0.000144    0.73  0.000014  ( 0.003562 -0.000848 -0.000840)
111:   3192.88   0.000192    0.97  0.000019  (-0.003909  0.001770 -0.000580)
112:   3222.64   0.001079    5.45  0.000104  (-0.001446  0.008744  0.005089)
113:   3223.49   0.000546    2.76  0.000053  ( 0.007274  0.000009  0.000008)

* The epsilon (eps) is given for a Dirac delta lineshape.
** The dipole moment derivative (T) already includes vibrational overlap.

The first frequency considered to be a vibration is 6
The total number of vibrations considered is 108


--------------------------
THERMOCHEMISTRY AT 298.15K
--------------------------

Temperature         ... 298.15 K
Pressure            ... 1.00 atm
Total Mass          ... 282.77 AMU

Throughout the following assumptions are being made:
  (1) The electronic state is orbitally nondegenerate
  (2) There are no thermally accessible electronically excited states
  (3) Hindered rotations indicated by low frequency modes are not
      treated as such but are treated as vibrations and this may
      cause some error
  (4) All equations used are the standard statistical mechanics
      equations for an ideal gas
  (5) All vibrations are strictly harmonic

freq.      22.28  E(vib)   ...       0.56 
freq.      33.59  E(vib)   ...       0.55 
freq.      41.70  E(vib)   ...       0.53 
freq.      45.79  E(vib)   ...       0.53 
freq.      70.49  E(vib)   ...       0.50 
freq.      77.48  E(vib)   ...       0.49 
freq.     102.34  E(vib)   ...       0.46 
freq.     109.84  E(vib)   ...       0.45 
freq.     122.79  E(vib)   ...       0.43 
freq.     133.24  E(vib)   ...       0.42 
freq.     150.62  E(vib)   ...       0.40 
freq.     159.12  E(vib)   ...       0.39 
freq.     165.62  E(vib)   ...       0.39 
freq.     217.66  E(vib)   ...       0.33 
freq.     245.94  E(vib)   ...       0.31 
freq.     260.78  E(vib)   ...       0.30 
freq.     281.70  E(vib)   ...       0.28 
freq.     322.57  E(vib)   ...       0.25 
freq.     340.17  E(vib)   ...       0.23 
freq.     369.41  E(vib)   ...       0.21 
freq.     380.44  E(vib)   ...       0.21 
freq.     391.42  E(vib)   ...       0.20 
freq.     421.87  E(vib)   ...       0.18 
freq.     427.43  E(vib)   ...       0.18 
freq.     434.19  E(vib)   ...       0.17 
freq.     471.15  E(vib)   ...       0.15 
freq.     485.13  E(vib)   ...       0.15 
freq.     526.46  E(vib)   ...       0.13 
freq.     581.56  E(vib)   ...       0.11 
freq.     595.75  E(vib)   ...       0.10 
freq.     620.44  E(vib)   ...       0.09 
freq.     648.16  E(vib)   ...       0.08 
freq.     670.99  E(vib)   ...       0.08 
freq.     699.67  E(vib)   ...       0.07 
freq.     727.65  E(vib)   ...       0.06 
freq.     766.12  E(vib)   ...       0.06 
freq.     787.06  E(vib)   ...       0.05 
freq.     821.97  E(vib)   ...       0.05 
freq.     829.53  E(vib)   ...       0.04 
freq.     852.97  E(vib)   ...       0.04 
freq.     870.85  E(vib)   ...       0.04 
freq.     954.37  E(vib)   ...       0.03 
freq.     962.03  E(vib)   ...       0.03 
freq.     990.98  E(vib)   ...       0.02 
freq.    1003.10  E(vib)   ...       0.02 
freq.    1012.23  E(vib)   ...       0.02 
freq.    1029.27  E(vib)   ...       0.02 
freq.    1031.11  E(vib)   ...       0.02 
freq.    1034.21  E(vib)   ...       0.02 
freq.    1063.95  E(vib)   ...       0.02 
freq.    1093.23  E(vib)   ...       0.02 
freq.    1097.42  E(vib)   ...       0.02 
freq.    1112.04  E(vib)   ...       0.01 
freq.    1141.16  E(vib)   ...       0.01 
freq.    1144.03  E(vib)   ...       0.01 
freq.    1170.60  E(vib)   ...       0.01 
freq.    1190.13  E(vib)   ...       0.01 
freq.    1217.57  E(vib)   ...       0.01 
freq.    1221.72  E(vib)   ...       0.01 
freq.    1235.64  E(vib)   ...       0.01 
freq.    1253.48  E(vib)   ...       0.01 
freq.    1288.50  E(vib)   ...       0.01 
freq.    1298.20  E(vib)   ...       0.01 
freq.    1331.11  E(vib)   ...       0.01 
freq.    1337.46  E(vib)   ...       0.01 
freq.    1340.24  E(vib)   ...       0.01 
freq.    1363.90  E(vib)   ...       0.01 
freq.    1377.01  E(vib)   ...       0.01 
freq.    1410.29  E(vib)   ...       0.00 
freq.    1421.05  E(vib)   ...       0.00 
freq.    1448.86  E(vib)   ...       0.00 
freq.    1457.62  E(vib)   ...       0.00 
freq.    1462.16  E(vib)   ...       0.00 
freq.    1474.54  E(vib)   ...       0.00 
freq.    1494.92  E(vib)   ...       0.00 
freq.    1501.10  E(vib)   ...       0.00 
freq.    1515.41  E(vib)   ...       0.00 
freq.    1518.64  E(vib)   ...       0.00 
freq.    1521.42  E(vib)   ...       0.00 
freq.    1525.37  E(vib)   ...       0.00 
freq.    1534.15  E(vib)   ...       0.00 
freq.    1538.11  E(vib)   ...       0.00 
freq.    1542.43  E(vib)   ...       0.00 
freq.    1544.99  E(vib)   ...       0.00 
freq.    1570.64  E(vib)   ...       0.00 
freq.    1632.45  E(vib)   ...       0.00 
freq.    1658.81  E(vib)   ...       0.00 
freq.    1739.19  E(vib)   ...       0.00 
freq.    1747.51  E(vib)   ...       0.00 
freq.    3025.49  E(vib)   ...       0.00 
freq.    3033.79  E(vib)   ...       0.00 
freq.    3060.50  E(vib)   ...       0.00 
freq.    3064.47  E(vib)   ...       0.00 
freq.    3073.40  E(vib)   ...       0.00 
freq.    3082.46  E(vib)   ...       0.00 
freq.    3084.04  E(vib)   ...       0.00 
freq.    3085.03  E(vib)   ...       0.00 
freq.    3116.37  E(vib)   ...       0.00 
freq.    3123.91  E(vib)   ...       0.00 
freq.    3136.01  E(vib)   ...       0.00 
freq.    3169.54  E(vib)   ...       0.00 
freq.    3177.14  E(vib)   ...       0.00 
freq.    3181.58  E(vib)   ...       0.00 
freq.    3190.60  E(vib)   ...       0.00 
freq.    3191.15  E(vib)   ...       0.00 
freq.    3192.88  E(vib)   ...       0.00 
freq.    3222.64  E(vib)   ...       0.00 
freq.    3223.49  E(vib)   ...       0.00 

------------
INNER ENERGY
------------

The inner energy is: U= E(el) + E(ZPE) + E(vib) + E(rot) + E(trans)
    E(el)   - is the total energy from the electronic structure calculation
              = E(kin-el) + E(nuc-el) + E(el-el) + E(nuc-nuc)
    E(ZPE)  - the the zero temperature vibrational energy from the frequency calculation
    E(vib)  - the the finite temperature correction to E(ZPE) due to population
              of excited vibrational states
    E(rot)  - is the rotational thermal energy
    E(trans)- is the translational thermal energy

Summary of contributions to the inner energy U:
Electronic energy                ...  -1264.60783129 Eh
Zero point energy                ...      0.31728671 Eh     199.10 kcal/mol
Thermal vibrational correction   ...      0.01705221 Eh      10.70 kcal/mol
Thermal rotational correction    ...      0.00141627 Eh       0.89 kcal/mol
Thermal translational correction ...      0.00141627 Eh       0.89 kcal/mol
-----------------------------------------------------------------------
Total thermal energy                  -1264.27065983 Eh


Summary of corrections to the electronic energy:
(perhaps to be used in another calculation)
Total thermal correction                  0.01988475 Eh      12.48 kcal/mol
Non-thermal (ZPE) correction              0.31728671 Eh     199.10 kcal/mol
-----------------------------------------------------------------------
Total correction                          0.33717146 Eh     211.58 kcal/mol


--------
ENTHALPY
--------

The enthalpy is H = U + kB*T
                kB is Boltzmann's constant
Total free energy                 ...  -1264.27065983 Eh 
Thermal Enthalpy correction       ...      0.00094421 Eh       0.59 kcal/mol
-----------------------------------------------------------------------
Total Enthalpy                    ...  -1264.26971562 Eh


Note: Only C1 symmetry has been detected, increase convergence thresholds 
      if your molecule has a higher symmetry. Symmetry factor of 1.0 is   
      used for the rotational entropy correction. 
 

Note: Rotational entropy computed according to Herzberg 
Infrared and Raman Spectra, Chapter V,1, Van Nostrand Reinhold, 1945 
Point Group:  C1, Symmetry Number:   1  
Rotational constants in cm-1:     0.019820     0.005250     0.004516 

Vibrational entropy computed according to the QRRHO of S. Grimme
Chem.Eur.J. 2012 18 9955


-------
ENTROPY
-------

The entropy contributions are T*S = T*(S(el)+S(vib)+S(rot)+S(trans))
     S(el)   - electronic entropy
     S(vib)  - vibrational entropy
     S(rot)  - rotational entropy
     S(trans)- translational entropy
The entropies will be listed as multiplied by the temperature to get
units of energy

Electronic entropy                ...      0.00000000 Eh      0.00 kcal/mol
Vibrational entropy               ...      0.03080336 Eh     19.33 kcal/mol
Rotational entropy                ...      0.01638951 Eh     10.28 kcal/mol
Translational entropy             ...      0.02034341 Eh     12.77 kcal/mol
-----------------------------------------------------------------------
Final entropy term                ...      0.06753629 Eh     42.38 kcal/mol

In case the symmetry of your molecule has not been determined correctly
or in case you have a reason to use a different symmetry number we print 
out the resulting rotational entropy values for sn=1,12 :
 --------------------------------------------------------
|  sn= 1 | S(rot)=       0.01638951 Eh     10.28 kcal/mol|
|  sn= 2 | S(rot)=       0.01573506 Eh      9.87 kcal/mol|
|  sn= 3 | S(rot)=       0.01535223 Eh      9.63 kcal/mol|
|  sn= 4 | S(rot)=       0.01508060 Eh      9.46 kcal/mol|
|  sn= 5 | S(rot)=       0.01486991 Eh      9.33 kcal/mol|
|  sn= 6 | S(rot)=       0.01469777 Eh      9.22 kcal/mol|
|  sn= 7 | S(rot)=       0.01455222 Eh      9.13 kcal/mol|
|  sn= 8 | S(rot)=       0.01442614 Eh      9.05 kcal/mol|
|  sn= 9 | S(rot)=       0.01431494 Eh      8.98 kcal/mol|
|  sn=10 | S(rot)=       0.01421546 Eh      8.92 kcal/mol|
|  sn=11 | S(rot)=       0.01412547 Eh      8.86 kcal/mol|
|  sn=12 | S(rot)=       0.01404331 Eh      8.81 kcal/mol|
 --------------------------------------------------------


-------------------
GIBBS FREE ENERGY
-------------------

The Gibbs free energy is G = H - T*S

Total enthalpy                    ...  -1264.26971562 Eh 
Total entropy correction          ...     -0.06753629 Eh    -42.38 kcal/mol
-----------------------------------------------------------------------
Final Gibbs free energy         ...  -1264.33725191 Eh

For completeness - the Gibbs free energy minus the electronic energy
G-E(el)                           ...      0.27057938 Eh    169.79 kcal/mol


Timings for individual modules:

Sum of individual times         ...     2360.467 sec (=  39.341 min)
GTO integral calculation        ...       24.295 sec (=   0.405 min)   1.0 %
SCF iterations                  ...     1071.418 sec (=  17.857 min)  45.4 %
SCF Gradient evaluation         ...      335.735 sec (=   5.596 min)  14.2 %
Geometry relaxation             ...        1.247 sec (=   0.021 min)   0.1 %
Analytical frequency calculation...      927.772 sec (=  15.463 min)  39.3 %
                             ****ORCA TERMINATED NORMALLY****
TOTAL RUN TIME: 0 days 0 hours 39 minutes 26 seconds 400 msec
