
                                 *****************
                                 * O   R   C   A *
                                 *****************

                                            #,                                       
                                            ###                                      
                                            ####                                     
                                            #####                                    
                                            ######                                   
                                           ########,                                 
                                     ,,################,,,,,                         
                               ,,#################################,,                 
                          ,,##########################################,,             
                       ,#########################################, ''#####,          
                    ,#############################################,,   '####,        
                  ,##################################################,,,,####,       
                ,###########''''           ''''###############################       
              ,#####''   ,,,,##########,,,,          '''####'''          '####       
            ,##' ,,,,###########################,,,                        '##       
           ' ,,###''''                  '''############,,,                           
         ,,##''                                '''############,,,,        ,,,,,,###''
      ,#''                                            '''#######################'''  
     '                                                          ''''####''''         
             ,#######,   #######,   ,#######,      ##                                
            ,#'     '#,  ##    ##  ,#'     '#,    #''#        ######   ,####,        
            ##       ##  ##   ,#'  ##            #'  '#       #        #'  '#        
            ##       ##  #######   ##           ,######,      #####,   #    #        
            '#,     ,#'  ##    ##  '#,     ,#' ,#      #,         ##   #,  ,#        
             '#######'   ##     ##  '#######'  #'      '#     #####' # '####'        



                  #######################################################
                  #                        -***-                        #
                  #          Department of theory and spectroscopy      #
                  #    Directorship and core code : Frank Neese         #
                  #        Max Planck Institute fuer Kohlenforschung    #
                  #                Kaiser Wilhelm Platz 1               #
                  #                 D-45470 Muelheim/Ruhr               #
                  #                      Germany                        #
                  #                                                     #
                  #                  All rights reserved                #
                  #                        -***-                        #
                  #######################################################


                         Program Version 5.0.4 -  RELEASE  -


 With contributions from (in alphabetic order):
   Daniel Aravena         : Magnetic Suceptibility
   Michael Atanasov       : Ab Initio Ligand Field Theory (pilot matlab implementation)
   Alexander A. Auer      : GIAO ZORA, VPT2 properties, NMR spectrum
   Ute Becker             : Parallelization
   Giovanni Bistoni       : ED, misc. LED, open-shell LED, HFLD
   Martin Brehm           : Molecular dynamics
   Dmytro Bykov           : SCF Hessian
   Vijay G. Chilkuri      : MRCI spin determinant printing, contributions to CSF-ICE
   Dipayan Datta          : RHF DLPNO-CCSD density
   Achintya Kumar Dutta   : EOM-CC, STEOM-CC
   Dmitry Ganyushin       : Spin-Orbit,Spin-Spin,Magnetic field MRCI
   Miquel Garcia          : C-PCM and meta-GGA Hessian, CC/C-PCM, Gaussian charge scheme
   Yang Guo               : DLPNO-NEVPT2, F12-NEVPT2, CIM, IAO-localization
   Andreas Hansen         : Spin unrestricted coupled pair/coupled cluster methods
   Benjamin Helmich-Paris : MC-RPA, TRAH-SCF, COSX integrals
   Lee Huntington         : MR-EOM, pCC
   Robert Izsak           : Overlap fitted RIJCOSX, COSX-SCS-MP3, EOM
   Marcus Kettner         : VPT2
   Christian Kollmar      : KDIIS, OOCD, Brueckner-CCSD(T), CCSD density, CASPT2, CASPT2-K
   Simone Kossmann        : Meta GGA functionals, TD-DFT gradient, OOMP2, MP2 Hessian
   Martin Krupicka        : Initial AUTO-CI
   Lucas Lang             : DCDCAS
   Marvin Lechner         : AUTO-CI (C++ implementation), FIC-MRCC
   Dagmar Lenk            : GEPOL surface, SMD
   Dimitrios Liakos       : Extrapolation schemes; Compound Job, initial MDCI parallelization
   Dimitrios Manganas     : Further ROCIS development; embedding schemes
   Dimitrios Pantazis     : SARC Basis sets
   Anastasios Papadopoulos: AUTO-CI, single reference methods and gradients
   Taras Petrenko         : DFT Hessian,TD-DFT gradient, ASA, ECA, R-Raman, ABS, FL, XAS/XES, NRVS
   Peter Pinski           : DLPNO-MP2, DLPNO-MP2 Gradient
   Christoph Reimann      : Effective Core Potentials
   Marius Retegan         : Local ZFS, SOC
   Christoph Riplinger    : Optimizer, TS searches, QM/MM, DLPNO-CCSD(T), (RO)-DLPNO pert. Triples
   Tobias Risthaus        : Range-separated hybrids, TD-DFT gradient, RPA, STAB
   Michael Roemelt        : Original ROCIS implementation
   Masaaki Saitow         : Open-shell DLPNO-CCSD energy and density
   Barbara Sandhoefer     : DKH picture change effects
   Avijit Sen             : IP-ROCIS
   Kantharuban Sivalingam : CASSCF convergence, NEVPT2, FIC-MRCI
   Bernardo de Souza      : ESD, SOC TD-DFT
   Georgi Stoychev        : AutoAux, RI-MP2 NMR, DLPNO-MP2 response
   Willem Van den Heuvel  : Paramagnetic NMR
   Boris Wezisla          : Elementary symmetry handling
   Frank Wennmohs         : Technical directorship


 We gratefully acknowledge several colleagues who have allowed us to
 interface, adapt or use parts of their codes:
   Stefan Grimme, W. Hujo, H. Kruse, P. Pracht,  : VdW corrections, initial TS optimization,
                  C. Bannwarth, S. Ehlert          DFT functionals, gCP, sTDA/sTD-DF
   Ed Valeev, F. Pavosevic, A. Kumar             : LibInt (2-el integral package), F12 methods
   Garnet Chan, S. Sharma, J. Yang, R. Olivares  : DMRG
   Ulf Ekstrom                                   : XCFun DFT Library
   Mihaly Kallay                                 : mrcc  (arbitrary order and MRCC methods)
   Jiri Pittner, Ondrej Demel                    : Mk-CCSD
   Frank Weinhold                                : gennbo (NPA and NBO analysis)
   Christopher J. Cramer and Donald G. Truhlar   : smd solvation model
   Lars Goerigk                                  : TD-DFT with DH, B97 family of functionals
   V. Asgeirsson, H. Jonsson                     : NEB implementation
   FAccTs GmbH                                   : IRC, NEB, NEB-TS, DLPNO-Multilevel, CI-OPT
                                                   MM, QMMM, 2- and 3-layer-ONIOM, Crystal-QMMM,
                                                   LR-CPCM, SF, NACMEs, symmetry and pop. for TD-DFT,
                                                   nearIR, NL-DFT gradient (VV10), updates on ESD,
                                                   ML-optimized integration grids
   S Lehtola, MJT Oliveira, MAL Marques          : LibXC Library
   Liviu Ungur et al                             : ANISO software


 Your calculation uses the libint2 library for the computation of 2-el integrals
 For citations please refer to: http://libint.valeyev.net

 Your ORCA version has been built with support for libXC version: 5.1.0
 For citations please refer to: https://tddft.org/programs/libxc/

 This ORCA versions uses:
   CBLAS   interface :  Fast vector & matrix operations
   LAPACKE interface :  Fast linear algebra routines
   SCALAPACK package :  Parallel linear algebra routines
   Shared memory     :  Shared parallel matrices
   BLAS/LAPACK       :  OpenBLAS 0.3.15  USE64BITINT DYNAMIC_ARCH NO_AFFINITY SkylakeX SINGLE_THREADED
        Core in use  :  SkylakeX
   Copyright (c) 2011-2014, The OpenBLAS Project




***************************************
The coordinates will be read from file: /users/fjb15167/WWenergy/structures/Nk.xyz
***************************************


Your calculation utilizes the atom-pairwise dispersion correction
based on tight binding partial charges (D4)
Cite in your paper:
E.Caldeweyher, C.Bannwarth, S.Grimme, J.Chem.Phys., (2017), 147, 034112.
E.Caldeweyher, S.Ehlert, A.Hansen, H.Neugebauer, S.Grimme, J.Chem.Phys., (2018), in progress.
   

================================================================================

----- Orbital basis set information -----
Your calculation utilizes the basis: 6-31+G(d)
   H-He, Li-Ne : W. J. Hehre, R. Ditchfield and J.A. Pople, J. Chem. Phys. 56, 2257 (1972).
                 Note: He and Ne are unpublished basis sets taken from the Gaussian program.
                 Note: Li and B from J. D. Dill and J. A. Pople, J. Chem. Phys. 62, 2921 (1975).
   Na - Ar     : M. M. Francl, W. J. Pietro, W. J. Hehre, J. S. Binkley, M. S. Gordon, 
                 D. J. DeFrees and J. A. Pople, J. Chem. Phys. 77, 3654 (1982).
   K - Zn      : V. A. Rassolov, J. A. Pople, M. A. Ratner, and T. L. Windus, J. Chem. Phys. 109, 1223 (1998).
   Additional Pol./Diff. from the 6-311G equivalent.

----- AuxJ basis set information -----
Your calculation utilizes the AutoAux generation procedure.
  G. L. Stoychev, A. A. Auer, F. Neese, J. Chem. Theory Comput. 13, 554 (2017)

----- AuxC basis set information -----
Your calculation utilizes the AutoAux generation procedure.
  G. L. Stoychev, A. A. Auer, F. Neese, J. Chem. Theory Comput. 13, 554 (2017)

----- AuxJK basis set information -----
Your calculation utilizes the AutoAux generation procedure.
  G. L. Stoychev, A. A. Auer, F. Neese, J. Chem. Theory Comput. 13, 554 (2017)

================================================================================
                                        WARNINGS
                       Please study these warnings very carefully!
================================================================================


WARNING: Geometry Optimization
  ===> : Switching off AutoStart
         For restart on a previous wavefunction, please use MOREAD

INFO   : the flag for use of the SHARK integral package has been found!

================================================================================
                                       INPUT FILE
================================================================================
NAME = Nk_gas.inp
|  1> ! OPT FREQ B3LYP 6-31+G(d) D4 AUTOAUX
|  2> 
|  3> %PAL NPROCS 4 END
|  4> 
|  5> %maxcore 3375
|  6> 
|  7> *xyzfile 1 1 /users/fjb15167/WWenergy/structures/Nk.xyz
|  8> 
|  9>                          ****END OF INPUT****
================================================================================

                       *****************************
                       * Geometry Optimization Run *
                       *****************************

Geometry optimization settings:
Update method            Update   .... BFGS
Choice of coordinates    CoordSys .... Z-matrix Internals
Initial Hessian          InHess   .... Almoef's Model

Convergence Tolerances:
Energy Change            TolE     ....  5.0000e-06 Eh
Max. Gradient            TolMAXG  ....  3.0000e-04 Eh/bohr
RMS Gradient             TolRMSG  ....  1.0000e-04 Eh/bohr
Max. Displacement        TolMAXD  ....  4.0000e-03 bohr
RMS Displacement         TolRMSD  ....  2.0000e-03 bohr
Strict Convergence                ....  False
------------------------------------------------------------------------------
                        ORCA OPTIMIZATION COORDINATE SETUP
------------------------------------------------------------------------------

The optimization will be done in new redundant internal coordinates
Making redundant internal coordinates   ...  (new redundants) done
Evaluating the initial hessian          ...  (Almloef) done
Evaluating the coordinates              ...  done
Calculating the B-matrix                .... done
Calculating the G-matrix                .... done
Diagonalizing the G-matrix              .... done
Small eigenvalue found = 5.409e-03
Small eigenvalue found = 1.017e-02
Small eigenvalue found = 1.127e-02
Small eigenvalue found = 1.498e-02
Small eigenvalue found = 2.373e-02
Small eigenvalue found = 2.442e-02
The first mode is                       ....   78
The number of degrees of freedom        ....  105

    -----------------------------------------------------------------
                    Redundant Internal Coordinates


    -----------------------------------------------------------------
         Definition                    Initial Value    Approx d2E/dq
    -----------------------------------------------------------------
      1. B(H   1,C   0)                  1.0910         0.358762   
      2. B(H   2,C   0)                  1.0944         0.354372   
      3. B(H   3,C   0)                  1.0895         0.360787   
      4. B(C   4,C   0)                  1.5295         0.374321   
      5. B(O   5,C   4)                  1.2157         1.061642   
      6. B(N   6,C   4)                  1.3853         0.569365   
      7. B(C   7,N   6)                  1.4648         0.425193   
      8. B(H   8,C   7)                  1.0938         0.355044   
      9. B(H   9,C   7)                  1.0923         0.357042   
     10. B(C  10,N   6)                  1.4702         0.416844   
     11. B(H  11,C  10)                  1.0949         0.353724   
     12. B(H  12,C  10)                  1.0930         0.356203   
     13. B(C  13,C  10)                  1.5344         0.367609   
     14. B(H  14,C  13)                  1.0961         0.352084   
     15. B(H  15,C  13)                  1.0947         0.353961   
     16. B(C  16,C   7)                  1.5244         0.381341   
     17. B(N  17,C  16)                  1.3382         0.676922   
     18. B(O  18,C  16)                  1.2568         0.912683   
     19. B(C  19,N  17)                  1.4695         0.417807   
     20. B(H  20,C  19)                  1.0896         0.360626   
     21. B(H  21,C  19)                  1.0926         0.356622   
     22. B(H  22,C  19)                  1.0899         0.360167   
     23. B(C  23,N  17)                  1.4637         0.426814   
     24. B(H  24,C  23)                  1.0939         0.354932   
     25. B(H  25,C  23)                  1.0868         0.364312   
     26. B(H  26,C  23)                  1.0905         0.359456   
     27. B(C  27,C  13)                  1.5357         0.365834   
     28. B(H  28,C  27)                  1.0959         0.352436   
     29. B(H  29,C  27)                  1.0947         0.353999   
     30. B(C  30,C  27)                  1.5217         0.385162   
     31. B(H  31,C  30)                  1.0885         0.362128   
     32. B(H  32,C  30)                  1.0932         0.355904   
     33. B(N  33,C  30)                  1.5034         0.368897   
     34. B(H  34,N  33)                  1.0262         0.407675   
     35. B(H  35,N  33)                  1.0256         0.408656   
     36. B(H  36,H  25)                  3.3690         0.000016   
     37. B(H  36,N  33)                  1.0212         0.415218   
     38. A(H   2,C   0,C   4)          110.0536         0.323572   
     39. A(H   2,C   0,H   3)          108.3254         0.290195   
     40. A(H   1,C   0,H   2)          107.9762         0.289939   
     41. A(H   3,C   0,C   4)          107.0574         0.324527   
     42. A(H   1,C   0,C   4)          113.5881         0.324227   
     43. A(H   1,C   0,H   3)          109.7316         0.290756   
     44. A(C   0,C   4,O   5)          121.9721         0.433812   
     45. A(O   5,C   4,N   6)          120.9595         0.465028   
     46. A(C   0,C   4,N   6)          117.0682         0.388459   
     47. A(C   4,N   6,C  10)          123.8447         0.393317   
     48. A(C   7,N   6,C  10)          118.8814         0.373856   
     49. A(C   4,N   6,C   7)          112.3669         0.394686   
     50. A(H   8,C   7,C  16)          106.1297         0.324662   
     51. A(N   6,C   7,C  16)          112.1689         0.370490   
     52. A(N   6,C   7,H   9)          110.1142         0.328857   
     53. A(H   8,C   7,H   9)          108.0302         0.289806   
     54. A(N   6,C   7,H   8)          108.1995         0.328552   
     55. A(H   9,C   7,C  16)          111.9669         0.324961   
     56. A(H  12,C  10,C  13)          108.5649         0.322886   
     57. A(H  11,C  10,C  13)          109.7736         0.322517   
     58. A(N   6,C  10,C  13)          114.8660         0.366913   
     59. A(H  11,C  10,H  12)          106.2442         0.289530   
     60. A(N   6,C  10,H  12)          106.7246         0.327655   
     61. A(N   6,C  10,H  11)          110.2587         0.327278   
     62. A(H  14,C  13,H  15)          105.6622         0.289034   
     63. A(H  15,C  13,C  27)          110.1853         0.322296   
     64. A(C  10,C  13,H  15)          107.4788         0.322552   
     65. A(C  10,C  13,H  14)          110.6155         0.322271   
     66. A(H  14,C  13,C  27)          109.7002         0.322016   
     67. A(C  10,C  13,C  27)          112.9258         0.361061   
     68. A(N  17,C  16,O  18)          121.7567         0.466892   
     69. A(C   7,C  16,O  18)          119.1529         0.423616   
     70. A(C   7,C  16,N  17)          118.7937         0.401732   
     71. A(C  16,N  17,C  19)          123.4329         0.405637   
     72. A(C  19,N  17,C  23)          116.7534         0.374250   
     73. A(C  16,N  17,C  23)          118.7458         0.407169   
     74. A(H  21,C  19,H  22)          110.8279         0.290405   
     75. A(H  20,C  19,H  22)          108.8461         0.290915   
     76. A(N  17,C  19,H  22)          109.9590         0.328379   
     77. A(H  20,C  19,H  21)          108.0741         0.290463   
     78. A(N  17,C  19,H  21)          111.4319         0.327844   
     79. A(N  17,C  19,H  20)          107.5932         0.328448   
     80. A(H  25,C  23,H  26)          109.8469         0.291289   
     81. A(H  24,C  23,H  26)          109.4583         0.290099   
     82. A(N  17,C  23,H  26)          108.7536         0.329430   
     83. A(H  24,C  23,H  25)          109.5273         0.290710   
     84. A(N  17,C  23,H  25)          108.9593         0.330161   
     85. A(N  17,C  23,H  24)          110.2805         0.328742   
     86. A(H  29,C  27,C  30)          108.8050         0.325037   
     87. A(H  28,C  27,C  30)          109.3178         0.324800   
     88. A(C  13,C  27,C  30)          110.6637         0.363949   
     89. A(H  28,C  27,H  29)          107.5688         0.289084   
     90. A(C  13,C  27,H  29)          109.8592         0.322302   
     91. A(C  13,C  27,H  28)          110.5547         0.322069   
     92. A(H  32,C  30,N  33)          108.5025         0.321101   
     93. A(H  31,C  30,N  33)          105.0700         0.322014   
     94. A(C  27,C  30,N  33)          109.6853         0.362201   
     95. A(H  31,C  30,H  32)          109.9091         0.290561   
     96. A(C  27,C  30,H  32)          112.0975         0.325324   
     97. A(C  27,C  30,H  31)          111.3029         0.326253   
     98. A(H  34,N  33,H  35)          108.1188         0.297668   
     99. A(C  30,N  33,H  35)          112.1603         0.325686   
    100. A(C  30,N  33,H  34)          112.4063         0.325557   
    101. A(H  35,N  33,H  36)          109.3738         0.298536   
    102. A(H  34,N  33,H  36)          108.1327         0.298422   
    103. A(C  30,N  33,H  36)          106.5444         0.326541   
    104. D(O   5,C   4,C   0,H   1)   -135.7401         0.010476   
    105. D(N   6,C   4,C   0,H   2)    -77.0622         0.010476   
    106. D(N   6,C   4,C   0,H   1)     44.1281         0.010476   
    107. D(O   5,C   4,C   0,H   2)    103.0696         0.010476   
    108. D(O   5,C   4,C   0,H   3)    -14.4536         0.010476   
    109. D(N   6,C   4,C   0,H   3)    165.4147         0.010476   
    110. D(C   7,N   6,C   4,C   0)    168.3290         0.025940   
    111. D(C  10,N   6,C   4,C   0)     13.5345         0.025940   
    112. D(C   7,N   6,C   4,O   5)    -11.8013         0.025940   
    113. D(C  10,N   6,C   4,O   5)   -166.5959         0.025940   
    114. D(H   9,C   7,N   6,C  10)     96.1080         0.015414   
    115. D(H   9,C   7,N   6,C   4)    -60.0670         0.015414   
    116. D(H   8,C   7,N   6,C  10)    -21.7568         0.015414   
    117. D(C  16,C   7,N   6,C   4)     65.3407         0.015414   
    118. D(H   8,C   7,N   6,C   4)   -177.9318         0.015414   
    119. D(C  16,C   7,N   6,C  10)   -138.4843         0.015414   
    120. D(C  13,C  10,N   6,C   7)    114.4401         0.014818   
    121. D(C  13,C  10,N   6,C   4)    -92.2886         0.014818   
    122. D(H  12,C  10,N   6,C   7)     -5.9358         0.014818   
    123. D(H  12,C  10,N   6,C   4)    147.3355         0.014818   
    124. D(H  11,C  10,N   6,C   7)   -120.9128         0.014818   
    125. D(H  11,C  10,N   6,C   4)     32.3585         0.014818   
    126. D(H  15,C  13,C  10,H  12)    -47.0040         0.010812   
    127. D(C  27,C  13,C  10,H  11)   -169.5285         0.010812   
    128. D(H  15,C  13,C  10,H  11)     68.7379         0.010812   
    129. D(H  15,C  13,C  10,N   6)   -166.3605         0.010812   
    130. D(H  14,C  13,C  10,H  12)   -161.8926         0.010812   
    131. D(C  27,C  13,C  10,N   6)    -44.6269         0.010812   
    132. D(H  14,C  13,C  10,H  11)    -46.1507         0.010812   
    133. D(C  27,C  13,C  10,H  12)     74.7296         0.010812   
    134. D(H  14,C  13,C  10,N   6)     78.7509         0.010812   
    135. D(O  18,C  16,C   7,H   9)    176.5226         0.010847   
    136. D(O  18,C  16,C   7,H   8)    -65.8271         0.010847   
    137. D(O  18,C  16,C   7,N   6)     52.1367         0.010847   
    138. D(N  17,C  16,C   7,H   9)     -9.6216         0.010847   
    139. D(N  17,C  16,C   7,H   8)    108.0287         0.010847   
    140. D(N  17,C  16,C   7,N   6)   -134.0075         0.010847   
    141. D(C  23,N  17,C  16,O  18)     -1.5630         0.037672   
    142. D(C  23,N  17,C  16,C   7)   -175.2517         0.037672   
    143. D(C  19,N  17,C  16,O  18)   -169.3483         0.037672   
    144. D(C  19,N  17,C  16,C   7)     16.9630         0.037672   
    145. D(H  22,C  19,N  17,C  16)     49.4068         0.014886   
    146. D(H  21,C  19,N  17,C  23)    118.1026         0.014886   
    147. D(H  21,C  19,N  17,C  16)    -73.8873         0.014886   
    148. D(H  20,C  19,N  17,C  23)     -0.1992         0.014886   
    149. D(H  22,C  19,N  17,C  23)   -118.6033         0.014886   
    150. D(H  20,C  19,N  17,C  16)    167.8109         0.014886   
    151. D(H  26,C  23,N  17,C  19)    -47.6414         0.015532   
    152. D(H  26,C  23,N  17,C  16)    143.7630         0.015532   
    153. D(H  25,C  23,N  17,C  19)   -167.3605         0.015532   
    154. D(H  25,C  23,N  17,C  16)     24.0439         0.015532   
    155. D(H  24,C  23,N  17,C  19)     72.3924         0.015532   
    156. D(H  24,C  23,N  17,C  16)    -96.2032         0.015532   
    157. D(C  30,C  27,C  13,H  15)   -144.2747         0.010714   
    158. D(C  30,C  27,C  13,H  14)    -28.3527         0.010714   
    159. D(C  30,C  27,C  13,C  10)     95.5303         0.010714   
    160. D(H  29,C  27,C  13,H  15)     95.5588         0.010714   
    161. D(H  29,C  27,C  13,H  14)   -148.5192         0.010714   
    162. D(H  29,C  27,C  13,C  10)    -24.6362         0.010714   
    163. D(H  28,C  27,C  13,H  15)    -23.0088         0.010714   
    164. D(H  28,C  27,C  13,H  14)     92.9132         0.010714   
    165. D(H  28,C  27,C  13,C  10)   -143.2038         0.010714   
    166. D(H  31,C  30,C  27,C  13)    -46.8040         0.011808   
    167. D(N  33,C  30,C  27,H  28)     75.3594         0.011808   
    168. D(N  33,C  30,C  27,C  13)   -162.6463         0.011808   
    169. D(H  32,C  30,C  27,H  29)   -162.4499         0.011808   
    170. D(H  32,C  30,C  27,H  28)    -45.2391         0.011808   
    171. D(H  32,C  30,C  27,C  13)     76.7552         0.011808   
    172. D(H  31,C  30,C  27,H  29)     73.9909         0.011808   
    173. D(N  33,C  30,C  27,H  29)    -41.8514         0.011808   
    174. D(H  31,C  30,C  27,H  28)   -168.7984         0.011808   
    175. D(H  36,N  33,C  30,H  32)   -169.5846         0.012486   
    176. D(H  36,N  33,C  30,C  27)     67.6613         0.012486   
    177. D(H  35,N  33,C  30,H  32)     70.7691         0.012486   
    178. D(H  35,N  33,C  30,H  31)   -171.7156         0.012486   
    179. D(H  35,N  33,C  30,C  27)    -51.9850         0.012486   
    180. D(H  34,N  33,C  30,H  32)    -51.3132         0.012486   
    181. D(H  36,N  33,C  30,H  31)    -52.0692         0.012486   
    182. D(H  34,N  33,C  30,H  31)     66.2022         0.012486   
    183. D(H  34,N  33,C  30,C  27)   -174.0673         0.012486   
    -----------------------------------------------------------------

Number of atoms                         .... 37
Number of degrees of freedom            .... 183

         *************************************************************
         *                GEOMETRY OPTIMIZATION CYCLE   1            *
         *************************************************************
---------------------------------
CARTESIAN COORDINATES (ANGSTROEM)
---------------------------------
  C      0.537000   -2.326000    2.185000
  H      1.592000   -2.213000    1.931000
  H      0.290000   -3.391000    2.136000
  H      0.365000   -1.981000    3.204000
  C     -0.400000   -1.528000    1.277000
  O     -1.329000   -0.881000    1.720000
  N     -0.145000   -1.569000   -0.084000
  C     -1.243000   -1.007000   -0.874000
  H     -0.988000   -1.107000   -1.933000
  H     -2.162000   -1.569000   -0.693000
  C      0.764000   -2.535000   -0.718000
  H      0.747000   -3.485000   -0.174000
  H      0.358000   -2.744000   -1.711000
  C      2.212000   -2.052000   -0.874000
  H      2.752000   -2.138000    0.076000
  H      2.715000   -2.738000   -1.563000
  C     -1.428000    0.485000   -0.622000
  N     -2.664000    0.956000   -0.419000
  O     -0.437000    1.251000   -0.726000
  C     -3.808000    0.103000   -0.068000
  H     -4.621000    0.756000    0.248000
  H     -4.153000   -0.476000   -0.928000
  H     -3.542000   -0.554000    0.760000
  C     -2.853000    2.401000   -0.282000
  H     -2.875000    2.682000    0.775000
  H     -2.032000    2.913000   -0.777000
  H     -3.798000    2.677000   -0.751000
  C      2.309000   -0.611000   -1.396000
  H      3.161000   -0.505000   -2.077000
  H      1.404000   -0.357000   -1.957000
  C      2.462000    0.369000   -0.242000
  H      1.746000    0.161000    0.551000
  H      3.477000    0.371000    0.164000
  N      2.133000    1.759000   -0.711000
  H      2.316000    2.468000    0.008000
  H      2.657000    2.017000   -1.554000
  H      1.133000    1.767000   -0.918000

----------------------------
CARTESIAN COORDINATES (A.U.)
----------------------------
  NO LB      ZA    FRAG     MASS         X           Y           Z
   0 C     6.0000    0    12.011    1.014783   -4.395503    4.129052
   1 H     1.0000    0     1.008    3.008444   -4.181964    3.649061
   2 H     1.0000    0     1.008    0.548021   -6.408061    4.036455
   3 H     1.0000    0     1.008    0.689750   -3.743547    6.054683
   4 C     6.0000    0    12.011   -0.755890   -2.887502    2.413180
   5 O     8.0000    0    15.999   -2.511446   -1.664849    3.250329
   6 N     7.0000    0    14.007   -0.274010   -2.964980   -0.158737
   7 C     6.0000    0    12.011   -2.348930   -1.902954   -1.651621
   8 H     1.0000    0     1.008   -1.867049   -2.091927   -3.652841
   9 H     1.0000    0     1.008   -4.085588   -2.964980   -1.309580
  10 C     6.0000    0    12.011    1.443751   -4.790456   -1.356823
  11 H     1.0000    0     1.008    1.411625   -6.585696   -0.328812
  12 H     1.0000    0     1.008    0.676522   -5.185409   -3.233321
  13 C     6.0000    0    12.011    4.180074   -3.877718   -1.651621
  14 H     1.0000    0     1.008    5.200526   -4.040234    0.143619
  15 H     1.0000    0     1.008    5.130606   -5.174070   -2.953642
  16 C     6.0000    0    12.011   -2.698529    0.916517   -1.175410
  17 N     7.0000    0    14.007   -5.034230    1.806578   -0.791795
  18 O     8.0000    0    15.999   -0.825810    2.364047   -1.371941
  19 C     6.0000    0    12.011   -7.196077    0.194642   -0.128501
  20 H     1.0000    0     1.008   -8.732424    1.428633    0.468652
  21 H     1.0000    0     1.008   -7.848033   -0.899510   -1.753666
  22 H     1.0000    0     1.008   -6.693410   -1.046908    1.436192
  23 C     6.0000    0    12.011   -5.391389    4.537232   -0.532903
  24 H     1.0000    0     1.008   -5.432963    5.068245    1.464538
  25 H     1.0000    0     1.008   -3.839924    5.504772   -1.468317
  26 H     1.0000    0     1.008   -7.177180    5.058797   -1.419184
  27 C     6.0000    0    12.011    4.363378   -1.154623   -2.638058
  28 H     1.0000    0     1.008    5.973424   -0.954312   -3.924961
  29 H     1.0000    0     1.008    2.653175   -0.674632   -3.698194
  30 C     6.0000    0    12.011    4.652506    0.697309   -0.457314
  31 H     1.0000    0     1.008    3.299462    0.304246    1.041239
  32 H     1.0000    0     1.008    6.570578    0.701088    0.309915
  33 N     7.0000    0    14.007    4.030786    3.324028   -1.343595
  34 H     1.0000    0     1.008    4.376606    4.663844    0.015118
  35 H     1.0000    0     1.008    5.021002    3.811578   -2.936634
  36 H     1.0000    0     1.008    2.141060    3.339146   -1.734769

--------------------------------
INTERNAL COORDINATES (ANGSTROEM)
--------------------------------
 C      0   0   0     0.000000000000     0.00000000     0.00000000
 H      1   0   0     1.091013290478     0.00000000     0.00000000
 H      1   2   0     1.094365112748   107.97618286     0.00000000
 H      1   2   3     1.089481528067   109.73156699   117.87494490
 C      1   2   3     1.529456439393   113.58814728   237.65355204
 O      5   1   2     1.215688693704   121.97214790   224.25986563
 N      5   1   2     1.385289500429   117.06822386    44.12812406
 C      7   5   1     1.464768923756   112.36692929   168.32904474
 H      8   7   5     1.093849166933   108.19946043   182.06819462
 H      8   7   5     1.092321381279   110.11422531   299.93301232
 C      7   5   1     1.470167677512   123.84466581    13.53445241
 H     11   7   5     1.094863005129   110.25872050    32.35852290
 H     11   7   5     1.092962030448   106.72458505   147.33550226
 C     11   7   5     1.534382286133   114.86600236   267.71144879
 H     14  11   7     1.096127729783   110.61553829    78.75090962
 H     14  11   7     1.094680775386   107.47878644   193.63950386
 C      8   7   5     1.524399225925   112.16885525    65.34067213
 N     17   8   7     1.338187580274   118.79369275   225.99251770
 O     17   8   7     1.256842472230   119.15287784    52.13666255
 C     18  17   8     1.469539383617   123.43291532    16.96296205
 H     20  18  17     1.089602679879   107.59324603   167.81090057
 H     20  18  17     1.092641752817   111.43187546   286.11270426
 H     20  18  17     1.089949081379   109.95902367    49.40682287
 C     18  17   8     1.463733240724   118.74577687   184.74829010
 H     24  18  17     1.093935098623   110.28048706   263.79679571
 H     24  18  17     1.086834854060   108.95926091    24.04391069
 H     24  18  17     1.090487047149   108.75364166   143.76299622
 C     14  11   7     1.535699840464   112.92583170   315.37307407
 H     28  14  11     1.095856286198   110.55474131   216.79623231
 H     28  14  11     1.094651542729   109.85918489   335.36380942
 C     28  14  11     1.521684921395   110.66369913    95.53031924
 H     31  28  14     1.088470945869   111.30287444   313.19598654
 H     31  28  14     1.093190285357   112.09751897    76.75522782
 N     31  28  14     1.503430078188   109.68532654   197.35369857
 H     34  31  28     1.026221710938   112.40628965   185.93270089
 H     34  31  28     1.025567647696   112.16026821   308.01497662
 H     34  31  28     1.021231119777   106.54438066    67.66130505

---------------------------
INTERNAL COORDINATES (A.U.)
---------------------------
 C      0   0   0     0.000000000000     0.00000000     0.00000000
 H      1   0   0     2.061716327472     0.00000000     0.00000000
 H      1   2   0     2.068050353612   107.97618286     0.00000000
 H      1   2   3     2.058821716013   109.73156699   117.87494490
 C      1   2   3     2.890253804215   113.58814728   237.65355204
 O      5   1   2     2.297318695205   121.97214790   224.25986563
 N      5   1   2     2.617817772008   117.06822386    44.12812406
 C      7   5   1     2.768012115377   112.36692929   168.32904474
 H      8   7   5     2.067075357321   108.19946043   182.06819462
 H      8   7   5     2.064188260845   110.11422531   299.93301232
 C      7   5   1     2.778214281440   123.84466581    13.53445241
 H     11   7   5     2.068991233856   110.25872050    32.35852290
 H     11   7   5     2.065398912320   106.72458505   147.33550226
 C     11   7   5     2.899562305532   114.86600236   267.71144879
 H     14  11   7     2.071381217087   110.61553829    78.75090962
 H     14  11   7     2.068646869548   107.47878644   193.63950386
 C      8   7   5     2.880697055759   112.16885525    65.34067213
 N     17   8   7     2.528808042533   118.79369275   225.99251770
 O     17   8   7     2.375088065994   119.15287784    52.13666255
 C     18  17   8     2.777026978047   123.43291532    16.96296205
 H     20  18  17     2.059050659758   107.59324603   167.81090057
 H     20  18  17     2.064793675313   111.43187546   286.11270426
 H     20  18  17     2.059705263726   109.95902367    49.40682287
 C     18  17   8     2.766054958085   118.74577687   184.74829010
 H     24  18  17     2.067237744682   110.28048706   263.79679571
 H     24  18  17     2.053820226974   108.95926091    24.04391069
 H     24  18  17     2.060721871700   108.75364166   143.76299622
 C     14  11   7     2.902052122383   112.92583170   315.37307407
 H     28  14  11     2.070868263051   110.55474131   216.79623231
 H     28  14  11     2.068591627833   109.85918489   335.36380942
 C     28  14  11     2.875567763553   110.66369913    95.53031924
 H     31  28  14     2.056911992422   111.30287444   313.19598654
 H     31  28  14     2.065830251589   112.09751897    76.75522782
 N     31  28  14     2.841071109275   109.68532654   197.35369857
 H     34  31  28     1.939277986356   112.40628965   185.93270089
 H     34  31  28     1.938041985955   112.16026821   308.01497662
 H     34  31  28     1.929847135815   106.54438066    67.66130505

---------------------
BASIS SET INFORMATION
---------------------
There are 4 groups of distinct atoms

 Group   1 Type C   : 11s5p1d contracted to 4s3p1d pattern {6311/311/1}
 Group   2 Type H   : 4s contracted to 2s pattern {31}
 Group   3 Type O   : 11s5p1d contracted to 4s3p1d pattern {6311/311/1}
 Group   4 Type N   : 11s5p1d contracted to 4s3p1d pattern {6311/311/1}

Atom   0C    basis set group =>   1
Atom   1H    basis set group =>   2
Atom   2H    basis set group =>   2
Atom   3H    basis set group =>   2
Atom   4C    basis set group =>   1
Atom   5O    basis set group =>   3
Atom   6N    basis set group =>   4
Atom   7C    basis set group =>   1
Atom   8H    basis set group =>   2
Atom   9H    basis set group =>   2
Atom  10C    basis set group =>   1
Atom  11H    basis set group =>   2
Atom  12H    basis set group =>   2
Atom  13C    basis set group =>   1
Atom  14H    basis set group =>   2
Atom  15H    basis set group =>   2
Atom  16C    basis set group =>   1
Atom  17N    basis set group =>   4
Atom  18O    basis set group =>   3
Atom  19C    basis set group =>   1
Atom  20H    basis set group =>   2
Atom  21H    basis set group =>   2
Atom  22H    basis set group =>   2
Atom  23C    basis set group =>   1
Atom  24H    basis set group =>   2
Atom  25H    basis set group =>   2
Atom  26H    basis set group =>   2
Atom  27C    basis set group =>   1
Atom  28H    basis set group =>   2
Atom  29H    basis set group =>   2
Atom  30C    basis set group =>   1
Atom  31H    basis set group =>   2
Atom  32H    basis set group =>   2
Atom  33N    basis set group =>   4
Atom  34H    basis set group =>   2
Atom  35H    basis set group =>   2
Atom  36H    basis set group =>   2
---------------------------------
AUXILIARY/J BASIS SET INFORMATION
---------------------------------
There are 4 groups of distinct atoms

 Group   1 Type C   : 16s13p12d2f contracted to 16s13p12d2f pattern {1111111111111111/1111111111111/111111111111/11}
 Group   2 Type H   : 9s2p contracted to 9s2p pattern {111111111/11}
 Group   3 Type O   : 16s13p12d3f contracted to 16s13p12d3f pattern {1111111111111111/1111111111111/111111111111/111}
 Group   4 Type N   : 16s13p12d3f contracted to 16s13p12d3f pattern {1111111111111111/1111111111111/111111111111/111}

Atom   0C    basis set group =>   1
Atom   1H    basis set group =>   2
Atom   2H    basis set group =>   2
Atom   3H    basis set group =>   2
Atom   4C    basis set group =>   1
Atom   5O    basis set group =>   3
Atom   6N    basis set group =>   4
Atom   7C    basis set group =>   1
Atom   8H    basis set group =>   2
Atom   9H    basis set group =>   2
Atom  10C    basis set group =>   1
Atom  11H    basis set group =>   2
Atom  12H    basis set group =>   2
Atom  13C    basis set group =>   1
Atom  14H    basis set group =>   2
Atom  15H    basis set group =>   2
Atom  16C    basis set group =>   1
Atom  17N    basis set group =>   4
Atom  18O    basis set group =>   3
Atom  19C    basis set group =>   1
Atom  20H    basis set group =>   2
Atom  21H    basis set group =>   2
Atom  22H    basis set group =>   2
Atom  23C    basis set group =>   1
Atom  24H    basis set group =>   2
Atom  25H    basis set group =>   2
Atom  26H    basis set group =>   2
Atom  27C    basis set group =>   1
Atom  28H    basis set group =>   2
Atom  29H    basis set group =>   2
Atom  30C    basis set group =>   1
Atom  31H    basis set group =>   2
Atom  32H    basis set group =>   2
Atom  33N    basis set group =>   4
Atom  34H    basis set group =>   2
Atom  35H    basis set group =>   2
Atom  36H    basis set group =>   2
---------------------------------
AUXILIARY/C BASIS SET INFORMATION
---------------------------------
There are 4 groups of distinct atoms

 Group   1 Type C   : 16s13p12d2f contracted to 16s13p12d2f pattern {1111111111111111/1111111111111/111111111111/11}
 Group   2 Type H   : 9s2p contracted to 9s2p pattern {111111111/11}
 Group   3 Type O   : 16s13p12d3f contracted to 16s13p12d3f pattern {1111111111111111/1111111111111/111111111111/111}
 Group   4 Type N   : 16s13p12d3f contracted to 16s13p12d3f pattern {1111111111111111/1111111111111/111111111111/111}

Atom   0C    basis set group =>   1
Atom   1H    basis set group =>   2
Atom   2H    basis set group =>   2
Atom   3H    basis set group =>   2
Atom   4C    basis set group =>   1
Atom   5O    basis set group =>   3
Atom   6N    basis set group =>   4
Atom   7C    basis set group =>   1
Atom   8H    basis set group =>   2
Atom   9H    basis set group =>   2
Atom  10C    basis set group =>   1
Atom  11H    basis set group =>   2
Atom  12H    basis set group =>   2
Atom  13C    basis set group =>   1
Atom  14H    basis set group =>   2
Atom  15H    basis set group =>   2
Atom  16C    basis set group =>   1
Atom  17N    basis set group =>   4
Atom  18O    basis set group =>   3
Atom  19C    basis set group =>   1
Atom  20H    basis set group =>   2
Atom  21H    basis set group =>   2
Atom  22H    basis set group =>   2
Atom  23C    basis set group =>   1
Atom  24H    basis set group =>   2
Atom  25H    basis set group =>   2
Atom  26H    basis set group =>   2
Atom  27C    basis set group =>   1
Atom  28H    basis set group =>   2
Atom  29H    basis set group =>   2
Atom  30C    basis set group =>   1
Atom  31H    basis set group =>   2
Atom  32H    basis set group =>   2
Atom  33N    basis set group =>   4
Atom  34H    basis set group =>   2
Atom  35H    basis set group =>   2
Atom  36H    basis set group =>   2
----------------------------------
AUXILIARY/JK BASIS SET INFORMATION
----------------------------------
There are 4 groups of distinct atoms

 Group   1 Type C   : 16s13p12d2f contracted to 16s13p12d2f pattern {1111111111111111/1111111111111/111111111111/11}
 Group   2 Type H   : 9s2p contracted to 9s2p pattern {111111111/11}
 Group   3 Type O   : 16s13p12d3f contracted to 16s13p12d3f pattern {1111111111111111/1111111111111/111111111111/111}
 Group   4 Type N   : 16s13p12d3f contracted to 16s13p12d3f pattern {1111111111111111/1111111111111/111111111111/111}

Atom   0C    basis set group =>   1
Atom   1H    basis set group =>   2
Atom   2H    basis set group =>   2
Atom   3H    basis set group =>   2
Atom   4C    basis set group =>   1
Atom   5O    basis set group =>   3
Atom   6N    basis set group =>   4
Atom   7C    basis set group =>   1
Atom   8H    basis set group =>   2
Atom   9H    basis set group =>   2
Atom  10C    basis set group =>   1
Atom  11H    basis set group =>   2
Atom  12H    basis set group =>   2
Atom  13C    basis set group =>   1
Atom  14H    basis set group =>   2
Atom  15H    basis set group =>   2
Atom  16C    basis set group =>   1
Atom  17N    basis set group =>   4
Atom  18O    basis set group =>   3
Atom  19C    basis set group =>   1
Atom  20H    basis set group =>   2
Atom  21H    basis set group =>   2
Atom  22H    basis set group =>   2
Atom  23C    basis set group =>   1
Atom  24H    basis set group =>   2
Atom  25H    basis set group =>   2
Atom  26H    basis set group =>   2
Atom  27C    basis set group =>   1
Atom  28H    basis set group =>   2
Atom  29H    basis set group =>   2
Atom  30C    basis set group =>   1
Atom  31H    basis set group =>   2
Atom  32H    basis set group =>   2
Atom  33N    basis set group =>   4
Atom  34H    basis set group =>   2
Atom  35H    basis set group =>   2
Atom  36H    basis set group =>   2


           ************************************************************
           *        Program running with 4 parallel MPI-processes     *
           *              working on a common directory               *
           ************************************************************
------------------------------------------------------------------------------
                           ORCA GTO INTEGRAL CALCULATION
                           -- RI-GTO INTEGRALS CHOSEN --
------------------------------------------------------------------------------
------------------------------------------------------------------------------
                   ___                                                        
                  /   \      - P O W E R E D   B Y -                         
                 /     \                                                     
                 |  |  |   _    _      __       _____    __    __             
                 |  |  |  | |  | |    /  \     |  _  \  |  |  /  |          
                  \  \/   | |  | |   /    \    | | | |  |  | /  /          
                 / \  \   | |__| |  /  /\  \   | |_| |  |  |/  /          
                |  |  |   |  __  | /  /__\  \  |    /   |      \           
                |  |  |   | |  | | |   __   |  |    \   |  |\   \          
                \     /   | |  | | |  |  |  |  | |\  \  |  | \   \       
                 \___/    |_|  |_| |__|  |__|  |_| \__\ |__|  \__/        
                                                                              
                      - O R C A' S   B I G   F R I E N D -                    
                                      &                                       
                       - I N T E G R A L  F E E D E R -                       
                                                                              
 v1 FN, 2020, v2 2021                                                         
------------------------------------------------------------------------------


Reading SHARK input file Nk_gas.SHARKINP.tmp ... ok
----------------------
SHARK INTEGRAL PACKAGE
----------------------

Number of atoms                             ...     37
Number of basis functions                   ...    314
Number of shells                            ...    164
Maximum angular momentum                    ...      2
Integral batch strategy                     ... SHARK/LIBINT Hybrid
RI-J (if used) integral strategy            ... SPLIT-RIJ (Revised 2003 algorithm where possible)
Printlevel                                  ...      1
Contraction scheme used                     ... SEGMENTED contraction
Coulomb Range Separation                    ... NOT USED
Exchange Range Separation                   ... NOT USED
Finite Nucleus Model                        ... NOT USED
Auxiliary Coulomb fitting basis             ... AVAILABLE
   # of basis functions in Aux-J            ...   2300
   # of shells in Aux-J                     ...    892
   Maximum angular momentum in Aux-J        ...      3
Auxiliary J/K fitting basis                 ... AVAILABLE
   # of basis functions in Aux-JK           ...   2300
   # of shells in Aux-JK                    ...    892
   Maximum angular momentum in Aux-JK       ...      3
Auxiliary Correlation fitting basis         ... AVAILABLE
   # of basis functions in Aux-C            ...   2300
   # of shells in Aux-C                     ...    892
   Maximum angular momentum in Aux-C        ...      3
Auxiliary 'external' fitting basis          ... NOT available
Integral threshold                          ...     2.500000e-11
Primitive cut-off                           ...     2.500000e-12
Primitive pair pre-selection threshold      ...     2.500000e-12

Calculating pre-screening integrals         ... done (  0.1 sec) Dimension = 164
Organizing shell pair data                  ... done (  1.0 sec)
Shell pair information
Total number of shell pairs                 ...     13530
Shell pairs after pre-screening             ...     12255
Total number of primitive shell pairs       ...     59377
Primitive shell pairs kept                  ...     34650
          la=0 lb=0:   4770 shell pairs
          la=1 lb=0:   4445 shell pairs
          la=1 lb=1:   1019 shell pairs
          la=2 lb=0:   1289 shell pairs
          la=2 lb=1:    633 shell pairs
          la=2 lb=2:     99 shell pairs

Calculating one electron integrals          ... done (  0.0 sec)
Calculating RI/J V-Matrix + Cholesky decomp.... done (  0.4 sec)
Calculating RI/JK V-Matrix + Cholesky decomp... done (  0.4 sec)
Calculating RI/C V-Matrix + Cholesky decomp.... done (  0.4 sec)
Calculating Nuclear repulsion               ... done (  0.0 sec) ENN=   1155.740169695379 Eh

SHARK setup successfully completed in   2.7 seconds

Maximum memory used throughout the entire GTOINT-calculation: 47.7 MB


           ************************************************************
           *        Program running with 4 parallel MPI-processes     *
           *              working on a common directory               *
           ************************************************************
-------------------------------------------------------------------------------
                                 ORCA SCF
-------------------------------------------------------------------------------

------------
SCF SETTINGS
------------
Hamiltonian:
 Density Functional     Method          .... DFT(GTOs)
 Exchange Functional    Exchange        .... B88
   X-Alpha parameter    XAlpha          ....  0.666667
   Becke's b parameter  XBeta           ....  0.004200
 Correlation Functional Correlation     .... LYP
 LDA part of GGA corr.  LDAOpt          .... VWN-5
 Gradients option       PostSCFGGA      .... off
 Hybrid DFT is turned on
   Fraction HF Exchange ScalHFX         ....  0.200000
   Scaling of DF-GGA-X  ScalDFX         ....  0.720000
   Scaling of DF-GGA-C  ScalDFC         ....  0.810000
   Scaling of DF-LDA-C  ScalLDAC        ....  1.000000
   Perturbative correction              ....  0.000000
   Density functional embedding theory  .... OFF
   NL short-range parameter             ....  4.800000
 RI-approximation to the Coulomb term is turned on
   Number of AuxJ basis functions       .... 2300
   RIJ-COSX (HFX calculated with COS-X)).... on


General Settings:
 Integral files         IntName         .... Nk_gas
 Hartree-Fock type      HFTyp           .... RHF
 Total Charge           Charge          ....    1
 Multiplicity           Mult            ....    1
 Number of Electrons    NEL             ....  118
 Basis Dimension        Dim             ....  314
 Nuclear Repulsion      ENuc            ....   1155.7401696954 Eh

Convergence Acceleration:
 DIIS                   CNVDIIS         .... on
   Start iteration      DIISMaxIt       ....    12
   Startup error        DIISStart       ....  0.200000
   # of expansion vecs  DIISMaxEq       ....     5
   Bias factor          DIISBfac        ....   1.050
   Max. coefficient     DIISMaxC        ....  10.000
 Trust-Rad. Augm. Hess. CNVTRAH         .... auto
   Auto Start mean grad. ratio tolernc. ....  1.125000
   Auto Start start iteration           ....    20
   Auto Start num. interpolation iter.  ....    10
   Max. Number of Micro iterations      ....    16
   Max. Number of Macro iterations      .... Maxiter - #DIIS iter
   Number of Davidson start vectors     ....     2
   Converg. threshold I  (grad. norm)   ....   1.000e-05
   Converg. threshold II (energy diff.) ....   1.000e-08
   Grad. Scal. Fac. for Micro threshold ....   0.100
   Minimum threshold for Micro iter.    ....   0.010
   NR start threshold (gradient norm)   ....   0.001
   Initial trust radius                 ....   0.400
   Minimum AH scaling param. (alpha)    ....   1.000
   Maximum AH scaling param. (alpha)    .... 1000.000
   Orbital update algorithm             .... Taylor
   White noise on init. David. guess    .... on
   Maximum white noise                  ....   0.010
   Quad. conv. algorithm                .... NR
 SOSCF                  CNVSOSCF        .... on
   Start iteration      SOSCFMaxIt      ....   150
   Startup grad/error   SOSCFStart      ....  0.003300
 Level Shifting         CNVShift        .... on
   Level shift para.    LevelShift      ....    0.2500
   Turn off err/grad.   ShiftErr        ....    0.0010
 Zerner damping         CNVZerner       .... off
 Static damping         CNVDamp         .... on
   Fraction old density DampFac         ....    0.7000
   Max. Damping (<1)    DampMax         ....    0.9800
   Min. Damping (>=0)   DampMin         ....    0.0000
   Turn off err/grad.   DampErr         ....    0.1000
 Fernandez-Rico         CNVRico         .... off

SCF Procedure:
 Maximum # iterations   MaxIter         ....   125
 SCF integral mode      SCFMode         .... Direct
   Integral package                     .... SHARK and LIBINT hybrid scheme
 Reset frequency        DirectResetFreq ....    20
 Integral Threshold     Thresh          ....  2.500e-11 Eh
 Primitive CutOff       TCut            ....  2.500e-12 Eh

Convergence Tolerance:
 Convergence Check Mode ConvCheckMode   .... Total+1el-Energy
 Convergence forced     ConvForced      .... 0
 Energy Change          TolE            ....  1.000e-08 Eh
 1-El. energy change                    ....  1.000e-05 Eh
 Orbital Gradient       TolG            ....  1.000e-05
 Orbital Rotation angle TolX            ....  1.000e-05
 DIIS Error             TolErr          ....  5.000e-07


Diagonalization of the overlap matrix:
Smallest eigenvalue                        ... 1.130e-05
Time for diagonalization                   ...    0.020 sec
Threshold for overlap eigenvalues          ... 1.000e-08
Number of eigenvalues below threshold      ... 0
Time for construction of square roots      ...    0.008 sec
Total time needed                          ...    0.030 sec

Time for model grid setup =    0.365 sec

------------------------------
INITIAL GUESS: MODEL POTENTIAL
------------------------------
Loading Hartree-Fock densities                     ... done
Calculating cut-offs                               ... done
Initializing the effective Hamiltonian             ... done
Setting up the integral package (SHARK)            ... done
Starting the Coulomb interaction                   ... done (   0.3 sec)
Reading the grid                                   ... done
Mapping shells                                     ... done
Starting the XC term evaluation                    ... done (   0.3 sec)
  promolecular density results
     # of electrons  =    118.987531756
     EX              =    -94.166701210
     EC              =     -3.993614993
     EX+EC           =    -98.160316202
Transforming the Hamiltonian                       ... done (   0.0 sec)
Diagonalizing the Hamiltonian                      ... done (   0.0 sec)
Back transforming the eigenvectors                 ... done (   0.0 sec)
Now organizing SCF variables                       ... done
                      ------------------
                      INITIAL GUESS DONE (   1.1 sec)
                      ------------------
-------------------
DFT GRID GENERATION
-------------------

General Integration Accuracy     IntAcc      ... 4.388
Radial Grid Type                 RadialGrid  ... OptM3 with GC (2021)
Angular Grid (max. ang.)         AngularGrid ... 4 (Lebedev-302)
Angular grid pruning method      GridPruning ... 4 (adaptive)
Weight generation scheme         WeightScheme... Becke
Basis function cutoff            BFCut       ... 1.0000e-11
Integration weight cutoff        WCut        ... 1.0000e-14
Angular grids for H and He will be reduced by one unit
Partially contracted basis set               ... off
Rotationally invariant grid construction     ... off

Total number of grid points                  ...   162663
Total number of batches                      ...     2560
Average number of points per batch           ...       63
Average number of grid points per atom       ...     4396
Time for grid setup =    1.448 sec

--------------------
COSX GRID GENERATION
--------------------

GRIDX 1
-------
General Integration Accuracy     IntAcc      ... 3.816
Radial Grid Type                 RadialGrid  ... OptM3 with GC (2021)
Angular Grid (max. ang.)         AngularGrid ... 1 (Lebedev-50)
Angular grid pruning method      GridPruning ... 4 (adaptive)
Weight generation scheme         WeightScheme... Becke
Basis function cutoff            BFCut       ... 1.0000e-11
Integration weight cutoff        WCut        ... 1.0000e-14
Angular grids for H and He will be reduced by one unit
Partially contracted basis set               ... on
Rotationally invariant grid construction     ... off

Total number of grid points                  ...    20784
Total number of batches                      ...      343
Average number of points per batch           ...       60
Average number of grid points per atom       ...      562
UseSFitting                                  ... on

GRIDX 2
-------
General Integration Accuracy     IntAcc      ... 4.020
Radial Grid Type                 RadialGrid  ... OptM3 with GC (2021)
Angular Grid (max. ang.)         AngularGrid ... 2 (Lebedev-110)
Angular grid pruning method      GridPruning ... 4 (adaptive)
Weight generation scheme         WeightScheme... Becke
Basis function cutoff            BFCut       ... 1.0000e-11
Integration weight cutoff        WCut        ... 1.0000e-14
Angular grids for H and He will be reduced by one unit
Partially contracted basis set               ... on
Rotationally invariant grid construction     ... off

Total number of grid points                  ...    45980
Total number of batches                      ...      734
Average number of points per batch           ...       62
Average number of grid points per atom       ...     1243
UseSFitting                                  ... on

GRIDX 3
-------
General Integration Accuracy     IntAcc      ... 4.338
Radial Grid Type                 RadialGrid  ... OptM3 with GC (2021)
Angular Grid (max. ang.)         AngularGrid ... 3 (Lebedev-194)
Angular grid pruning method      GridPruning ... 4 (adaptive)
Weight generation scheme         WeightScheme... Becke
Basis function cutoff            BFCut       ... 1.0000e-11
Integration weight cutoff        WCut        ... 1.0000e-14
Angular grids for H and He will be reduced by one unit
Partially contracted basis set               ... on
Rotationally invariant grid construction     ... off

Total number of grid points                  ...    98916
Total number of batches                      ...     1564
Average number of points per batch           ...       63
Average number of grid points per atom       ...     2673
UseSFitting                                  ... on

Time for X-Grid setup             =    2.646 sec

--------------
SCF ITERATIONS
--------------
ITER       Energy         Delta-E        Max-DP      RMS-DP      [F,P]     Damp
               ***  Starting incremental Fock matrix formation  ***
  0   -707.9728632581   0.000000000000 0.13560473  0.00289893  0.2645468 0.7000
  1   -708.1743021938  -0.201438935734 0.14404786  0.00233873  0.1061332 0.7000
                               ***Turning on DIIS***
  2   -708.2501602616  -0.075858067805 0.23982930  0.00401669  0.0350445 0.0000
  3   -708.3727626953  -0.122602433754 0.25778222  0.00192015  0.0507129 0.0000
  4   -708.3989385085  -0.026175813173 0.08325025  0.00068019  0.0141274 0.0000
  5   -708.4005571489  -0.001618640405 0.01698542  0.00023875  0.0060680 0.0000
                      *** Initiating the SOSCF procedure ***
                           *** Shutting down DIIS ***
                      *** Re-Reading the Fockian *** 
                      *** Removing any level shift *** 
ITER      Energy       Delta-E        Grad      Rot      Max-DP    RMS-DP
  6   -708.40068811  -0.0001309628  0.000212  0.000212  0.012531  0.000159
               *** Restarting incremental Fock matrix formation ***
  7   -708.40071193  -0.0000238215  0.000209  0.000847  0.002334  0.000063
  8   -708.40070248   0.0000094540  0.000457  0.000603  0.001494  0.000033
  9   -708.40071636  -0.0000138858  0.000072  0.000162  0.001120  0.000014
 10   -708.40071576   0.0000006061  0.000130  0.000108  0.000973  0.000010
 11   -708.40071661  -0.0000008502  0.000009  0.000033  0.003000  0.000019
 12   -708.40071663  -0.0000000259  0.000017  0.000027  0.000787  0.000004
 13   -708.40071662   0.0000000107  0.000004  0.000011  0.000866  0.000007
 14   -708.40071660   0.0000000252  0.000005  0.000005  0.000796  0.000006
                  ***Gradient check signals convergence***
              ***Rediagonalizing the Fockian in SOSCF/NRSCF***

               *****************************************************
               *                     SUCCESS                       *
               *           SCF CONVERGED AFTER  15 CYCLES          *
               *****************************************************

Old exchange energy                            =    -19.156194911 Eh
New exchange energy                            =    -19.156171833 Eh
Exchange energy change after final integration =      0.000023078 Eh
Total energy after final integration           =   -708.400693549 Eh
Final COS-X integration done in                =    20.016 sec

----------------
TOTAL SCF ENERGY
----------------

Total Energy       :         -708.40069355 Eh          -19276.56287 eV

Components:
Nuclear Repulsion  :         1155.74016970 Eh           31449.28887 eV
Electronic Energy  :        -1864.14086324 Eh          -50725.85174 eV
One Electron Energy:        -3241.29091034 Eh          -88200.00967 eV
Two Electron Energy:         1377.15004710 Eh           37474.15793 eV
Max COSX asymmetry :            0.00001046 Eh               0.00028 eV

Virial components:
Potential Energy   :        -1412.72025677 Eh          -38442.07254 eV
Kinetic Energy     :          704.31956322 Eh           19165.50967 eV
Virial Ratio       :            2.00579443


DFT components:
N(Alpha)           :       58.999900515665 electrons
N(Beta)            :       58.999900515665 electrons
N(Total)           :      117.999801031330 electrons
E(X)               :      -76.050907450238 Eh       
E(C)               :       -4.668520052685 Eh       
E(XC)              :      -80.719427502923 Eh       
DFET-embed. en.    :        0.000000000000 Eh       

---------------
SCF CONVERGENCE
---------------

  Last Energy change         ...   -2.8388e-08  Tolerance :   1.0000e-08
  Last MAX-Density change    ...    3.1086e-15  Tolerance :   1.0000e-07
  Last RMS-Density change    ...    3.5677e-17  Tolerance :   5.0000e-09
  Last Orbital Gradient      ...    6.8033e-07  Tolerance :   1.0000e-05
  Last Orbital Rotation      ...    1.0984e-06  Tolerance :   1.0000e-05

             **** THE GBW FILE WAS UPDATED (Nk_gas.gbw) ****
             **** DENSITY Nk_gas.scfp WAS UPDATED ****
             **** ENERGY FILE WAS UPDATED (Nk_gas.en.tmp) ****
             **** THE GBW FILE WAS UPDATED (Nk_gas.gbw) ****
             **** DENSITY Nk_gas.scfp WAS UPDATED ****
----------------
ORBITAL ENERGIES
----------------

  NO   OCC          E(Eh)            E(eV) 
   0   2.0000     -19.244923      -523.6810 
   1   2.0000     -19.236866      -523.4617 
   2   2.0000     -14.585779      -396.8992 
   3   2.0000     -14.486104      -394.1869 
   4   2.0000     -14.482775      -394.0963 
   5   2.0000     -10.412533      -283.3394 
   6   2.0000     -10.402437      -283.0647 
   7   2.0000     -10.383738      -282.5559 
   8   2.0000     -10.344341      -281.4838 
   9   2.0000     -10.344135      -281.4782 
  10   2.0000     -10.328754      -281.0597 
  11   2.0000     -10.314654      -280.6760 
  12   2.0000     -10.313813      -280.6531 
  13   2.0000     -10.310342      -280.5587 
  14   2.0000     -10.290558      -280.0203 
  15   2.0000      -1.169253       -31.8170 
  16   2.0000      -1.158179       -31.5157 
  17   2.0000      -1.146520       -31.1984 
  18   2.0000      -1.057262       -28.7696 
  19   2.0000      -1.053593       -28.6697 
  20   2.0000      -0.945069       -25.7166 
  21   2.0000      -0.888887       -24.1879 
  22   2.0000      -0.868414       -23.6308 
  23   2.0000      -0.838852       -22.8263 
  24   2.0000      -0.826864       -22.5001 
  25   2.0000      -0.803469       -21.8635 
  26   2.0000      -0.789493       -21.4832 
  27   2.0000      -0.753042       -20.4913 
  28   2.0000      -0.741104       -20.1665 
  29   2.0000      -0.714325       -19.4378 
  30   2.0000      -0.673356       -18.3230 
  31   2.0000      -0.649436       -17.6721 
  32   2.0000      -0.644469       -17.5369 
  33   2.0000      -0.637089       -17.3361 
  34   2.0000      -0.620601       -16.8874 
  35   2.0000      -0.606951       -16.5160 
  36   2.0000      -0.598916       -16.2973 
  37   2.0000      -0.591398       -16.0928 
  38   2.0000      -0.579619       -15.7722 
  39   2.0000      -0.565891       -15.3987 
  40   2.0000      -0.560067       -15.2402 
  41   2.0000      -0.545193       -14.8355 
  42   2.0000      -0.539409       -14.6781 
  43   2.0000      -0.530830       -14.4446 
  44   2.0000      -0.524114       -14.2619 
  45   2.0000      -0.518197       -14.1008 
  46   2.0000      -0.514363       -13.9965 
  47   2.0000      -0.511407       -13.9161 
  48   2.0000      -0.506586       -13.7849 
  49   2.0000      -0.495568       -13.4851 
  50   2.0000      -0.489780       -13.3276 
  51   2.0000      -0.487123       -13.2553 
  52   2.0000      -0.480401       -13.0724 
  53   2.0000      -0.473956       -12.8970 
  54   2.0000      -0.464716       -12.6456 
  55   2.0000      -0.394210       -10.7270 
  56   2.0000      -0.379778       -10.3343 
  57   2.0000      -0.366275        -9.9668 
  58   2.0000      -0.363405        -9.8888 
  59   0.0000      -0.148760        -4.0480 
  60   0.0000      -0.119305        -3.2465 
  61   0.0000      -0.110549        -3.0082 
  62   0.0000      -0.104872        -2.8537 
  63   0.0000      -0.098347        -2.6762 
  64   0.0000      -0.093087        -2.5330 
  65   0.0000      -0.078883        -2.1465 
  66   0.0000      -0.074845        -2.0366 
  67   0.0000      -0.073111        -1.9894 
  68   0.0000      -0.067567        -1.8386 
  69   0.0000      -0.059280        -1.6131 
  70   0.0000      -0.049720        -1.3529 
  71   0.0000      -0.049316        -1.3420 
  72   0.0000      -0.041271        -1.1230 
  73   0.0000      -0.039156        -1.0655 
  74   0.0000      -0.036536        -0.9942 
  75   0.0000      -0.030789        -0.8378 
  76   0.0000      -0.026343        -0.7168 
  77   0.0000      -0.024031        -0.6539 
  78   0.0000      -0.018594        -0.5060 
  79   0.0000      -0.018011        -0.4901 
  80   0.0000      -0.013612        -0.3704 
  81   0.0000      -0.006689        -0.1820 
  82   0.0000      -0.004095        -0.1114 
  83   0.0000       0.000369         0.0101 
  84   0.0000       0.004966         0.1351 
  85   0.0000       0.006599         0.1796 
  86   0.0000       0.015051         0.4095 
  87   0.0000       0.015856         0.4315 
  88   0.0000       0.019046         0.5183 
  89   0.0000       0.031649         0.8612 
  90   0.0000       0.032501         0.8844 
  91   0.0000       0.037278         1.0144 
  92   0.0000       0.038537         1.0487 
  93   0.0000       0.045119         1.2277 
  94   0.0000       0.049293         1.3413 
  95   0.0000       0.057458         1.5635 
  96   0.0000       0.059171         1.6101 
  97   0.0000       0.063897         1.7387 
  98   0.0000       0.066861         1.8194 
  99   0.0000       0.067620         1.8400 
 100   0.0000       0.075874         2.0646 
 101   0.0000       0.078181         2.1274 
 102   0.0000       0.082723         2.2510 
 103   0.0000       0.083774         2.2796 
 104   0.0000       0.090199         2.4545 
 105   0.0000       0.093001         2.5307 
 106   0.0000       0.098042         2.6679 
 107   0.0000       0.102148         2.7796 
 108   0.0000       0.104875         2.8538 
 109   0.0000       0.107586         2.9276 
 110   0.0000       0.110082         2.9955 
 111   0.0000       0.113383         3.0853 
 112   0.0000       0.115814         3.1515 
 113   0.0000       0.121870         3.3162 
 114   0.0000       0.125017         3.4019 
 115   0.0000       0.130087         3.5399 
 116   0.0000       0.131736         3.5847 
 117   0.0000       0.137653         3.7457 
 118   0.0000       0.140205         3.8152 
 119   0.0000       0.147762         4.0208 
 120   0.0000       0.155786         4.2392 
 121   0.0000       0.160656         4.3717 
 122   0.0000       0.167774         4.5654 
 123   0.0000       0.174618         4.7516 
 124   0.0000       0.177451         4.8287 
 125   0.0000       0.179908         4.8955 
 126   0.0000       0.182463         4.9651 
 127   0.0000       0.187547         5.1034 
 128   0.0000       0.197961         5.3868 
 129   0.0000       0.203385         5.5344 
 130   0.0000       0.209530         5.7016 
 131   0.0000       0.214087         5.8256 
 132   0.0000       0.217673         5.9232 
 133   0.0000       0.226362         6.1596 
 134   0.0000       0.231304         6.2941 
 135   0.0000       0.233250         6.3470 
 136   0.0000       0.238624         6.4933 
 137   0.0000       0.245739         6.6869 
 138   0.0000       0.252111         6.8603 
 139   0.0000       0.263139         7.1604 
 140   0.0000       0.265889         7.2352 
 141   0.0000       0.277810         7.5596 
 142   0.0000       0.284539         7.7427 
 143   0.0000       0.287467         7.8224 
 144   0.0000       0.299307         8.1445 
 145   0.0000       0.301376         8.2009 
 146   0.0000       0.308446         8.3932 
 147   0.0000       0.315826         8.5941 
 148   0.0000       0.323293         8.7972 
 149   0.0000       0.336716         9.1625 
 150   0.0000       0.341078         9.2812 
 151   0.0000       0.355897         9.6844 
 152   0.0000       0.362466         9.8632 
 153   0.0000       0.388387        10.5686 
 154   0.0000       0.395086        10.7508 
 155   0.0000       0.422439        11.4951 
 156   0.0000       0.430074        11.7029 
 157   0.0000       0.490708        13.3528 
 158   0.0000       0.510753        13.8983 
 159   0.0000       0.523531        14.2460 
 160   0.0000       0.537414        14.6238 
 161   0.0000       0.558439        15.1959 
 162   0.0000       0.563799        15.3418 
 163   0.0000       0.575487        15.6598 
 164   0.0000       0.584571        15.9070 
 165   0.0000       0.591624        16.0989 
 166   0.0000       0.598456        16.2848 
 167   0.0000       0.614186        16.7129 
 168   0.0000       0.619274        16.8513 
 169   0.0000       0.626422        17.0458 
 170   0.0000       0.637369        17.3437 
 171   0.0000       0.646944        17.6042 
 172   0.0000       0.659821        17.9546 
 173   0.0000       0.667559        18.1652 
 174   0.0000       0.684485        18.6258 
 175   0.0000       0.692678        18.8487 
 176   0.0000       0.703998        19.1568 
 177   0.0000       0.711808        19.3693 
 178   0.0000       0.722628        19.6637 
 179   0.0000       0.730241        19.8709 
 180   0.0000       0.746458        20.3122 
 181   0.0000       0.757510        20.6129 
 182   0.0000       0.760289        20.6885 
 183   0.0000       0.778931        21.1958 
 184   0.0000       0.786667        21.4063 
 185   0.0000       0.801278        21.8039 
 186   0.0000       0.820278        22.3209 
 187   0.0000       0.825729        22.4692 
 188   0.0000       0.838555        22.8183 
 189   0.0000       0.846428        23.0325 
 190   0.0000       0.853971        23.2377 
 191   0.0000       0.862941        23.4818 
 192   0.0000       0.879624        23.9358 
 193   0.0000       0.884824        24.0773 
 194   0.0000       0.892210        24.2783 
 195   0.0000       0.899653        24.4808 
 196   0.0000       0.907873        24.7045 
 197   0.0000       0.920422        25.0460 
 198   0.0000       0.922269        25.0962 
 199   0.0000       0.923261        25.1232 
 200   0.0000       0.929350        25.2889 
 201   0.0000       0.938211        25.5300 
 202   0.0000       0.949769        25.8445 
 203   0.0000       0.976516        26.5724 
 204   0.0000       0.992852        27.0169 
 205   0.0000       1.000402        27.2223 
 206   0.0000       1.010301        27.4917 
 207   0.0000       1.026759        27.9395 
 208   0.0000       1.032602        28.0985 
 209   0.0000       1.038170        28.2500 
 210   0.0000       1.054177        28.6856 
 211   0.0000       1.072148        29.1746 
 212   0.0000       1.085084        29.5266 
 213   0.0000       1.102470        29.9997 
 214   0.0000       1.112741        30.2792 
 215   0.0000       1.121483        30.5171 
 216   0.0000       1.139092        30.9963 
 217   0.0000       1.145256        31.1640 
 218   0.0000       1.156780        31.4776 
 219   0.0000       1.176501        32.0142 
 220   0.0000       1.185373        32.2557 
 221   0.0000       1.221100        33.2278 
 222   0.0000       1.239868        33.7385 
 223   0.0000       1.245018        33.8787 
 224   0.0000       1.249642        34.0045 
 225   0.0000       1.265232        34.4287 
 226   0.0000       1.285299        34.9748 
 227   0.0000       1.302430        35.4409 
 228   0.0000       1.313802        35.7504 
 229   0.0000       1.323971        36.0271 
 230   0.0000       1.336760        36.3751 
 231   0.0000       1.345505        36.6131 
 232   0.0000       1.359953        37.0062 
 233   0.0000       1.371115        37.3099 
 234   0.0000       1.375535        37.4302 
 235   0.0000       1.422183        38.6996 
 236   0.0000       1.451199        39.4891 
 237   0.0000       1.502989        40.8984 
 238   0.0000       1.511965        41.1427 
 239   0.0000       1.532612        41.7045 
 240   0.0000       1.554154        42.2907 
 241   0.0000       1.577415        42.9236 
 242   0.0000       1.586323        43.1661 
 243   0.0000       1.592616        43.3373 
 244   0.0000       1.633108        44.4391 
 245   0.0000       1.655725        45.0546 
 246   0.0000       1.676387        45.6168 
 247   0.0000       1.685151        45.8553 
 248   0.0000       1.695871        46.1470 
 249   0.0000       1.704678        46.3866 
 250   0.0000       1.728545        47.0361 
 251   0.0000       1.744673        47.4750 
 252   0.0000       1.755971        47.7824 
 253   0.0000       1.763959        47.9998 
 254   0.0000       1.777249        48.3614 
 255   0.0000       1.797458        48.9113 
 256   0.0000       1.807352        49.1806 
 257   0.0000       1.812259        49.3141 
 258   0.0000       1.828709        49.7617 
 259   0.0000       1.850768        50.3620 
 260   0.0000       1.860524        50.6274 
 261   0.0000       1.864856        50.7453 
 262   0.0000       1.878235        51.1094 
 263   0.0000       1.899727        51.6942 
 264   0.0000       1.908672        51.9376 
 265   0.0000       1.924112        52.3577 
 266   0.0000       1.933884        52.6237 
 267   0.0000       1.962375        53.3989 
 268   0.0000       1.967102        53.5276 
 269   0.0000       1.979188        53.8564 
 270   0.0000       1.995038        54.2878 
 271   0.0000       2.005104        54.5616 
 272   0.0000       2.025760        55.1237 
 273   0.0000       2.038522        55.4710 
 274   0.0000       2.055600        55.9357 
 275   0.0000       2.091003        56.8991 
 276   0.0000       2.104486        57.2660 
 277   0.0000       2.135684        58.1149 
 278   0.0000       2.137028        58.1515 
 279   0.0000       2.162666        58.8491 
 280   0.0000       2.171375        59.0861 
 281   0.0000       2.197115        59.7865 
 282   0.0000       2.207766        60.0764 
 283   0.0000       2.233956        60.7890 
 284   0.0000       2.240481        60.9666 
 285   0.0000       2.242554        61.0230 
 286   0.0000       2.268714        61.7349 
 287   0.0000       2.276675        61.9515 
 288   0.0000       2.293343        62.4050 
 289   0.0000       2.311234        62.8919 
 290   0.0000       2.323170        63.2167 
 291   0.0000       2.332631        63.4741 
 292   0.0000       2.349513        63.9335 
 293   0.0000       2.373648        64.5902 
 294   0.0000       2.387782        64.9748 
 295   0.0000       2.397088        65.2281 
 296   0.0000       2.461455        66.9796 
 297   0.0000       2.486340        67.6567 
 298   0.0000       2.506815        68.2139 
 299   0.0000       2.537831        69.0579 
 300   0.0000       2.547066        69.3092 
 301   0.0000       2.573966        70.0412 
 302   0.0000       2.593185        70.5641 
 303   0.0000       2.611322        71.0577 
 304   0.0000       2.622317        71.3569 
 305   0.0000       2.668997        72.6271 
 306   0.0000       2.686140        73.0936 
 307   0.0000       2.737666        74.4957 
 308   0.0000       2.835900        77.1688 
 309   0.0000       2.879936        78.3670 
 310   0.0000       3.016872        82.0933 
 311   0.0000       3.051398        83.0328 
 312   0.0000       3.101217        84.3884 
 313   0.0000       3.144820        85.5749 

                    ********************************
                    * MULLIKEN POPULATION ANALYSIS *
                    ********************************

-----------------------
MULLIKEN ATOMIC CHARGES
-----------------------
   0 C :   -0.959262
   1 H :    0.215141
   2 H :    0.252508
   3 H :    0.260223
   4 C :    0.809011
   5 O :   -0.459267
   6 N :   -0.209092
   7 C :   -0.800015
   8 H :    0.229090
   9 H :    0.240937
  10 C :   -0.351130
  11 H :    0.228720
  12 H :    0.219630
  13 C :   -0.400460
  14 H :    0.210571
  15 H :    0.234133
  16 C :    0.547621
  17 N :    0.037692
  18 O :   -0.722036
  19 C :   -0.513567
  20 H :    0.224311
  21 H :    0.227220
  22 H :    0.273152
  23 C :   -0.506290
  24 H :    0.237758
  25 H :    0.237655
  26 H :    0.227206
  27 C :   -0.345790
  28 H :    0.223690
  29 H :    0.233385
  30 C :   -0.145611
  31 H :    0.283784
  32 H :    0.246778
  33 N :   -1.061752
  34 H :    0.485394
  35 H :    0.475683
  36 H :    0.612981
Sum of atomic charges:    1.0000000

--------------------------------
MULLIKEN REDUCED ORBITAL CHARGES
--------------------------------
  0 C s       :     3.750006  s :     3.750006
      pz      :     1.063991  p :     3.177958
      px      :     1.019390
      py      :     1.094578
      dz2     :     0.008461  d :     0.031298
      dxz     :     0.005113
      dyz     :     0.004441
      dx2y2   :     0.009727
      dxy     :     0.003556
  1 H s       :     0.784859  s :     0.784859
  2 H s       :     0.747492  s :     0.747492
  3 H s       :     0.739777  s :     0.739777
  4 C s       :     2.886966  s :     2.886966
      pz      :     0.699684  p :     2.191581
      px      :     0.733000
      py      :     0.758897
      dz2     :     0.029247  d :     0.112442
      dxz     :     0.029091
      dyz     :     0.021107
      dx2y2   :     0.017163
      dxy     :     0.015834
  5 O s       :     3.928510  s :     3.928510
      pz      :     1.742255  p :     4.504516
      px      :     1.349163
      py      :     1.413097
      dz2     :     0.003416  d :     0.026240
      dxz     :     0.005209
      dyz     :     0.003545
      dx2y2   :     0.008335
      dxy     :     0.005736
  6 N s       :     3.269603  s :     3.269603
      pz      :     1.117287  p :     3.903709
      px      :     1.360758
      py      :     1.425665
      dz2     :     0.009717  d :     0.035780
      dxz     :     0.008816
      dyz     :     0.006732
      dx2y2   :     0.005247
      dxy     :     0.005269
  7 C s       :     3.910057  s :     3.910057
      pz      :     1.016647  p :     2.837120
      px      :     0.978418
      py      :     0.842055
      dz2     :     0.013059  d :     0.052838
      dxz     :     0.008705
      dyz     :     0.005642
      dx2y2   :     0.013406
      dxy     :     0.012026
  8 H s       :     0.770910  s :     0.770910
  9 H s       :     0.759063  s :     0.759063
 10 C s       :     3.432539  s :     3.432539
      pz      :     1.061229  p :     2.864770
      px      :     0.874979
      py      :     0.928563
      dz2     :     0.008003  d :     0.053820
      dxz     :     0.010615
      dyz     :     0.009685
      dx2y2   :     0.014946
      dxy     :     0.010571
 11 H s       :     0.771280  s :     0.771280
 12 H s       :     0.780370  s :     0.780370
 13 C s       :     3.464406  s :     3.464406
      pz      :     1.080946  p :     2.897112
      px      :     0.910560
      py      :     0.905606
      dz2     :     0.005867  d :     0.038942
      dxz     :     0.009663
      dyz     :     0.007635
      dx2y2   :     0.008488
      dxy     :     0.007288
 14 H s       :     0.789429  s :     0.789429
[...]
     90      -0.000053  -0.001597   0.000597
     91      -0.000021  -0.000579   0.000529
     92       0.000038   0.000989  -0.001077
     93       0.000352   0.009247  -0.008566
     94       0.000219   0.007209  -0.007128
     95      -0.000535  -0.014100   0.013694
     96       0.000207   0.007337   0.000572
     97       0.000048   0.002155   0.000214
     98       0.000062   0.002309   0.001013
     99       0.000085  -0.030451   0.011404
    100       0.000014  -0.049679  -0.019510
    101       0.000024   0.008140  -0.078016
    102       0.000043   0.120305   0.132784
    103      -0.000019   0.482105   0.491925
    104       0.000054   0.498857   0.489436
    105       0.000052   0.281034  -0.288306
    106       0.000007   0.208235  -0.219884
    107      -0.000119  -0.614573   0.601863
    108      -0.001413   0.015959  -0.001137
    109      -0.000273  -0.006867  -0.003458
    110      -0.000215   0.004458  -0.013089


-----------
IR SPECTRUM
-----------

 Mode   freq       eps      Int      T**2         TX        TY        TZ
       cm**-1   L/(mol*cm) km/mol    a.u.
----------------------------------------------------------------------------
  6:     42.64   0.001286    6.50  0.009410  ( 0.015621 -0.015387 -0.094497)
  7:     50.06   0.001790    9.04  0.011157  ( 0.044893  0.086395 -0.040960)
  8:     69.67   0.001010    5.10  0.004524  ( 0.005876  0.046106 -0.048623)
  9:     77.92   0.000933    4.72  0.003738  (-0.031086 -0.045783 -0.025992)
 10:     91.68   0.000273    1.38  0.000929  (-0.003902  0.028101 -0.011162)
 11:    101.68   0.000486    2.46  0.001492  ( 0.032727  0.008829  0.018518)
 12:    111.53   0.001042    5.27  0.002916  (-0.018385 -0.007963 -0.050147)
 13:    122.38   0.000219    1.11  0.000558  (-0.020256 -0.001333  0.012095)
 14:    134.13   0.000684    3.46  0.001592  (-0.010197  0.009309 -0.037440)
 15:    145.37   0.000071    0.36  0.000152  (-0.000997 -0.007689 -0.009606)
 16:    158.14   0.001043    5.27  0.002058  (-0.044320 -0.005466  0.007969)
 17:    203.04   0.001697    8.57  0.002608  ( 0.036064  0.025971 -0.025153)
 18:    230.71   0.008251   41.70  0.011161  (-0.101860 -0.025266  0.012120)
 19:    270.54   0.002101   10.62  0.002424  (-0.039658  0.006348 -0.028474)
 20:    280.06   0.001097    5.54  0.001222  (-0.034264 -0.001324 -0.006813)
 21:    295.90   0.000794    4.01  0.000838  ( 0.021833  0.018368  0.004855)
 22:    311.63   0.003372   17.04  0.003377  (-0.057593 -0.005116 -0.005816)
 23:    320.87   0.001874    9.47  0.001823  (-0.024438 -0.015816  0.031234)
 24:    366.57   0.001610    8.14  0.001371  ( 0.036812  0.003876  0.000799)
 25:    388.56   0.001390    7.03  0.001117  (-0.008189 -0.018344 -0.026704)
 26:    418.91   0.002955   14.93  0.002201  ( 0.034051 -0.031286  0.007919)
 27:    437.45   0.002486   12.56  0.001773  ( 0.030900 -0.028567 -0.001544)
 28:    460.55   0.002018   10.20  0.001367  (-0.033849 -0.012224  0.008501)
 29:    480.40   0.003340   16.88  0.002170  ( 0.044387  0.014032 -0.001626)
 30:    504.39   0.004538   22.93  0.002807  (-0.034338  0.010961 -0.038835)
 31:    598.09   0.003532   17.85  0.001843  ( 0.039380  0.000609 -0.017081)
 32:    602.48   0.000341    1.72  0.000177  ( 0.010921 -0.005513 -0.005183)
 33:    622.19   0.000752    3.80  0.000377  ( 0.001303 -0.018645 -0.005282)
 34:    675.05   0.007060   35.68  0.003264  (-0.056633  0.004738 -0.005821)
 35:    733.46   0.001719    8.69  0.000731  (-0.005290 -0.013926  0.022574)
 36:    777.82   0.003514   17.76  0.001410  ( 0.037534  0.000795  0.000583)
 37:    828.82   0.006393   32.31  0.002407  (-0.035757 -0.018615  0.027967)
 38:    859.79   0.001178    5.95  0.000428  (-0.018387 -0.001420 -0.009356)
 39:    879.75   0.000317    1.60  0.000112  (-0.002344 -0.002170 -0.010110)
 40:    924.48   0.000651    3.29  0.000220  ( 0.001543 -0.007862 -0.012477)
 41:    960.29   0.007312   36.95  0.002376  (-0.041866 -0.022584  0.010653)
 42:    988.71   0.001918    9.69  0.000605  (-0.024395  0.001195  0.002945)
 43:   1001.83   0.001032    5.22  0.000322  (-0.001843 -0.016257  0.007338)
 44:   1007.64   0.003716   18.78  0.001151  ( 0.009681 -0.020216 -0.025466)
 45:   1022.70   0.000498    2.52  0.000152  (-0.002268  0.006058 -0.010494)
 46:   1038.53   0.001088    5.50  0.000327  ( 0.006020  0.014991 -0.008113)
 47:   1063.03   0.000852    4.31  0.000250  (-0.005799 -0.013652  0.005483)
 48:   1085.42   0.000459    2.32  0.000132  (-0.004689 -0.006371  0.008333)
 49:   1086.55   0.003319   16.77  0.000953  ( 0.018840  0.024462 -0.000039)
 50:   1104.61   0.001743    8.81  0.000492  ( 0.013978  0.011222  0.013082)
 51:   1126.14   0.002116   10.69  0.000586  (-0.022038  0.009212 -0.003983)
 52:   1143.95   0.006554   33.12  0.001788  ( 0.037893 -0.018616  0.002359)
 53:   1169.52   0.002823   14.27  0.000753  ( 0.024652 -0.008063  0.008975)
 54:   1176.06   0.008587   43.39  0.002278  ( 0.036336 -0.024550  0.018855)
 55:   1195.28   0.005216   26.36  0.001362  (-0.026942  0.024580  0.005626)
 56:   1223.64   0.001086    5.49  0.000277  ( 0.012541 -0.002422 -0.010664)
 57:   1263.29   0.004837   24.44  0.001195  (-0.019191 -0.008977  0.027313)
 58:   1281.76   0.005062   25.58  0.001232  ( 0.025365 -0.024259  0.000678)
 59:   1298.67   0.000974    4.92  0.000234  (-0.001685  0.002552  0.014989)
 60:   1314.99   0.005552   28.06  0.001318  ( 0.003733  0.011869 -0.034100)
 61:   1326.24   0.005248   26.52  0.001235  (-0.001618 -0.007730 -0.034242)
 62:   1356.47   0.000861    4.35  0.000198  (-0.005222 -0.006981 -0.011051)
 63:   1368.11   0.011432   57.77  0.002608  (-0.004778  0.002478 -0.050781)
 64:   1378.22   0.000227    1.15  0.000051  (-0.004005  0.000230 -0.005937)
 65:   1401.17   0.005389   27.23  0.001200  ( 0.023068 -0.015366 -0.020783)
 66:   1411.13   0.001459    7.37  0.000323  (-0.014439  0.008780  0.006081)
 67:   1423.37   0.005703   28.82  0.001250  (-0.000761 -0.010469  0.033767)
 68:   1439.80   0.003618   18.28  0.000784  ( 0.026717 -0.008259  0.001444)
 69:   1456.92   0.011305   57.13  0.002421  (-0.021674  0.004162  0.043982)
 70:   1457.32   0.004320   21.83  0.000925  (-0.028867 -0.009196  0.002683)
 71:   1472.97   0.006032   30.48  0.001278  (-0.025550  0.013457 -0.021071)
 72:   1489.77   0.002307   11.66  0.000483  (-0.013837  0.010750  0.013274)
 73:   1494.42   0.016392   82.84  0.003423  (-0.027282 -0.049032  0.016564)
 74:   1503.63   0.001925    9.73  0.000400  (-0.000243  0.010661  0.016907)
 75:   1504.81   0.001793    9.06  0.000372  (-0.001014 -0.015355 -0.011623)
 76:   1514.27   0.003289   16.62  0.000678  ( 0.011218  0.005358  0.022872)
 77:   1517.65   0.000786    3.97  0.000162  (-0.012664 -0.000585 -0.000945)
 78:   1523.71   0.003388   17.12  0.000694  ( 0.026319 -0.000709 -0.000765)
 79:   1526.68   0.000966    4.88  0.000197  (-0.000411 -0.006524  0.012435)
 80:   1528.01   0.003079   15.56  0.000629  (-0.002287 -0.006738  0.024046)
 81:   1531.40   0.002032   10.27  0.000414  (-0.004375 -0.015756  0.012109)
 82:   1536.66   0.006493   32.81  0.001319  ( 0.013660  0.016980  0.029046)
 83:   1553.38   0.014099   71.25  0.002832  ( 0.013366  0.051240 -0.005305)
 84:   1592.38   0.040414  204.24  0.007920  (-0.066739 -0.053891  0.023702)
 85:   1663.44   0.093903  474.55  0.017616  ( 0.131620 -0.006055 -0.015994)
 86:   1695.59   0.031972  161.57  0.005884  ( 0.073016  0.023505 -0.000699)
 87:   1724.65   0.001777    8.98  0.000321  (-0.004975  0.015800 -0.006863)
 88:   1733.38   0.072084  364.28  0.012977  (-0.087028  0.048522  0.055218)
 89:   2567.88   0.408905  2066.44  0.049692  ( 0.221680  0.023286 -0.002842)
 90:   3050.10   0.001189    6.01  0.000122  (-0.000614 -0.004980  0.009823)
 91:   3056.42   0.003017   15.25  0.000308  ( 0.007899 -0.009261  0.012643)
 92:   3057.86   0.004750   24.01  0.000485  ( 0.004799 -0.019512 -0.009001)
 93:   3060.45   0.001311    6.62  0.000134  (-0.009661  0.005614 -0.002970)
 94:   3066.69   0.003591   18.15  0.000365  ( 0.018157  0.005771  0.001547)
 95:   3073.21   0.002794   14.12  0.000284  (-0.000842  0.016821 -0.000297)
 96:   3088.22   0.001132    5.72  0.000114  (-0.001785  0.004641  0.009468)
 97:   3089.81   0.003944   19.93  0.000398  ( 0.017481  0.007827  0.005614)
 98:   3096.55   0.004629   23.39  0.000467  ( 0.008554 -0.014891 -0.013100)
 99:   3109.24   0.001947    9.84  0.000195  (-0.011554  0.000207 -0.007865)
100:   3117.89   0.003840   19.41  0.000384  (-0.007763  0.003396 -0.017679)
101:   3128.66   0.002937   14.84  0.000293  (-0.016892 -0.001462 -0.002341)
102:   3130.82   0.002734   13.82  0.000273  ( 0.007317 -0.005004  0.013927)
103:   3133.86   0.001999   10.10  0.000199  ( 0.012284  0.006012 -0.003461)
104:   3144.32   0.001018    5.14  0.000101  (-0.004606  0.005833  0.006767)
105:   3170.90   0.001126    5.69  0.000111  (-0.008828 -0.000875  0.005663)
106:   3171.53   0.000658    3.32  0.000065  (-0.005165  0.006109  0.000843)
107:   3173.93   0.000583    2.95  0.000057  (-0.006251  0.000499  0.004241)
108:   3195.88   0.000481    2.43  0.000047  ( 0.003130  0.005431 -0.002779)
109:   3449.01   0.012126   61.28  0.001097  ( 0.022007  0.024585 -0.002905)
110:   3517.45   0.010488   53.00  0.000931  (-0.003508  0.007801  0.029281)

* The epsilon (eps) is given for a Dirac delta lineshape.
** The dipole moment derivative (T) already includes vibrational overlap.

The first frequency considered to be a vibration is 6
The total number of vibrations considered is 105


--------------------------
THERMOCHEMISTRY AT 298.15K
--------------------------

Temperature         ... 298.15 K
Pressure            ... 1.00 atm
Total Mass          ... 216.31 AMU

Throughout the following assumptions are being made:
  (1) The electronic state is orbitally nondegenerate
  (2) There are no thermally accessible electronically excited states
  (3) Hindered rotations indicated by low frequency modes are not
      treated as such but are treated as vibrations and this may
      cause some error
  (4) All equations used are the standard statistical mechanics
      equations for an ideal gas
  (5) All vibrations are strictly harmonic

freq.      42.64  E(vib)   ...       0.53 
freq.      50.06  E(vib)   ...       0.52 
freq.      69.67  E(vib)   ...       0.50 
freq.      77.92  E(vib)   ...       0.49 
freq.      91.68  E(vib)   ...       0.47 
freq.     101.68  E(vib)   ...       0.46 
freq.     111.53  E(vib)   ...       0.45 
freq.     122.38  E(vib)   ...       0.43 
freq.     134.13  E(vib)   ...       0.42 
freq.     145.37  E(vib)   ...       0.41 
freq.     158.14  E(vib)   ...       0.39 
freq.     203.04  E(vib)   ...       0.35 
freq.     230.71  E(vib)   ...       0.32 
freq.     270.54  E(vib)   ...       0.29 
freq.     280.06  E(vib)   ...       0.28 
freq.     295.90  E(vib)   ...       0.27 
freq.     311.63  E(vib)   ...       0.25 
freq.     320.87  E(vib)   ...       0.25 
freq.     366.57  E(vib)   ...       0.22 
freq.     388.56  E(vib)   ...       0.20 
freq.     418.91  E(vib)   ...       0.18 
freq.     437.45  E(vib)   ...       0.17 
freq.     460.55  E(vib)   ...       0.16 
freq.     480.40  E(vib)   ...       0.15 
freq.     504.39  E(vib)   ...       0.14 
freq.     598.09  E(vib)   ...       0.10 
freq.     602.48  E(vib)   ...       0.10 
freq.     622.19  E(vib)   ...       0.09 
freq.     675.05  E(vib)   ...       0.08 
freq.     733.46  E(vib)   ...       0.06 
freq.     777.82  E(vib)   ...       0.05 
freq.     828.82  E(vib)   ...       0.04 
freq.     859.79  E(vib)   ...       0.04 
freq.     879.75  E(vib)   ...       0.04 
freq.     924.48  E(vib)   ...       0.03 
freq.     960.29  E(vib)   ...       0.03 
freq.     988.71  E(vib)   ...       0.02 
freq.    1001.83  E(vib)   ...       0.02 
freq.    1007.64  E(vib)   ...       0.02 
freq.    1022.70  E(vib)   ...       0.02 
freq.    1038.53  E(vib)   ...       0.02 
freq.    1063.03  E(vib)   ...       0.02 
freq.    1085.42  E(vib)   ...       0.02 
freq.    1086.55  E(vib)   ...       0.02 
freq.    1104.61  E(vib)   ...       0.02 
freq.    1126.14  E(vib)   ...       0.01 
freq.    1143.95  E(vib)   ...       0.01 
freq.    1169.52  E(vib)   ...       0.01 
freq.    1176.06  E(vib)   ...       0.01 
freq.    1195.28  E(vib)   ...       0.01 
freq.    1223.64  E(vib)   ...       0.01 
freq.    1263.29  E(vib)   ...       0.01 
freq.    1281.76  E(vib)   ...       0.01 
freq.    1298.67  E(vib)   ...       0.01 
freq.    1314.99  E(vib)   ...       0.01 
freq.    1326.24  E(vib)   ...       0.01 
freq.    1356.47  E(vib)   ...       0.01 
freq.    1368.11  E(vib)   ...       0.01 
freq.    1378.22  E(vib)   ...       0.01 
freq.    1401.17  E(vib)   ...       0.00 
freq.    1411.13  E(vib)   ...       0.00 
freq.    1423.37  E(vib)   ...       0.00 
freq.    1439.80  E(vib)   ...       0.00 
freq.    1456.92  E(vib)   ...       0.00 
freq.    1457.32  E(vib)   ...       0.00 
freq.    1472.97  E(vib)   ...       0.00 
freq.    1489.77  E(vib)   ...       0.00 
freq.    1494.42  E(vib)   ...       0.00 
freq.    1503.63  E(vib)   ...       0.00 
freq.    1504.81  E(vib)   ...       0.00 
freq.    1514.27  E(vib)   ...       0.00 
freq.    1517.65  E(vib)   ...       0.00 
freq.    1523.71  E(vib)   ...       0.00 
freq.    1526.68  E(vib)   ...       0.00 
freq.    1528.01  E(vib)   ...       0.00 
freq.    1531.40  E(vib)   ...       0.00 
freq.    1536.66  E(vib)   ...       0.00 
freq.    1553.38  E(vib)   ...       0.00 
freq.    1592.38  E(vib)   ...       0.00 
freq.    1663.44  E(vib)   ...       0.00 
freq.    1695.59  E(vib)   ...       0.00 
freq.    1724.65  E(vib)   ...       0.00 
freq.    1733.38  E(vib)   ...       0.00 
freq.    2567.88  E(vib)   ...       0.00 
freq.    3050.10  E(vib)   ...       0.00 
freq.    3056.42  E(vib)   ...       0.00 
freq.    3057.86  E(vib)   ...       0.00 
freq.    3060.45  E(vib)   ...       0.00 
freq.    3066.69  E(vib)   ...       0.00 
freq.    3073.21  E(vib)   ...       0.00 
freq.    3088.22  E(vib)   ...       0.00 
freq.    3089.81  E(vib)   ...       0.00 
freq.    3096.55  E(vib)   ...       0.00 
freq.    3109.24  E(vib)   ...       0.00 
freq.    3117.89  E(vib)   ...       0.00 
freq.    3128.66  E(vib)   ...       0.00 
freq.    3130.82  E(vib)   ...       0.00 
freq.    3133.86  E(vib)   ...       0.00 
freq.    3144.32  E(vib)   ...       0.00 
freq.    3170.90  E(vib)   ...       0.00 
freq.    3171.53  E(vib)   ...       0.00 
freq.    3173.93  E(vib)   ...       0.00 
freq.    3195.88  E(vib)   ...       0.00 
freq.    3449.01  E(vib)   ...       0.00 
freq.    3517.45  E(vib)   ...       0.00 

------------
INNER ENERGY
------------

The inner energy is: U= E(el) + E(ZPE) + E(vib) + E(rot) + E(trans)
    E(el)   - is the total energy from the electronic structure calculation
              = E(kin-el) + E(nuc-el) + E(el-el) + E(nuc-nuc)
    E(ZPE)  - the the zero temperature vibrational energy from the frequency calculation
    E(vib)  - the the finite temperature correction to E(ZPE) due to population
              of excited vibrational states
    E(rot)  - is the rotational thermal energy
    E(trans)- is the translational thermal energy

Summary of contributions to the inner energy U:
Electronic energy                ...   -708.46418201 Eh
Zero point energy                ...      0.33467543 Eh     210.01 kcal/mol
Thermal vibrational correction   ...      0.01489107 Eh       9.34 kcal/mol
Thermal rotational correction    ...      0.00141627 Eh       0.89 kcal/mol
Thermal translational correction ...      0.00141627 Eh       0.89 kcal/mol
-----------------------------------------------------------------------
Total thermal energy                   -708.11178297 Eh


Summary of corrections to the electronic energy:
(perhaps to be used in another calculation)
Total thermal correction                  0.01772361 Eh      11.12 kcal/mol
Non-thermal (ZPE) correction              0.33467543 Eh     210.01 kcal/mol
-----------------------------------------------------------------------
Total correction                          0.35239904 Eh     221.13 kcal/mol


--------
ENTHALPY
--------

The enthalpy is H = U + kB*T
                kB is Boltzmann's constant
Total free energy                 ...   -708.11178297 Eh 
Thermal Enthalpy correction       ...      0.00094421 Eh       0.59 kcal/mol
-----------------------------------------------------------------------
Total Enthalpy                    ...   -708.11083876 Eh


Note: Only C1 symmetry has been detected, increase convergence thresholds 
      if your molecule has a higher symmetry. Symmetry factor of 1.0 is   
      used for the rotational entropy correction. 
 

Note: Rotational entropy computed according to Herzberg 
Infrared and Raman Spectra, Chapter V,1, Van Nostrand Reinhold, 1945 
Point Group:  C1, Symmetry Number:   1  
Rotational constants in cm-1:     0.026361     0.014667     0.011676 

Vibrational entropy computed according to the QRRHO of S. Grimme
Chem.Eur.J. 2012 18 9955


-------
ENTROPY
-------

The entropy contributions are T*S = T*(S(el)+S(vib)+S(rot)+S(trans))
     S(el)   - electronic entropy
     S(vib)  - vibrational entropy
     S(rot)  - rotational entropy
     S(trans)- translational entropy
The entropies will be listed as multiplied by the temperature to get
units of energy

Electronic entropy                ...      0.00000000 Eh      0.00 kcal/mol
Vibrational entropy               ...      0.02661835 Eh     16.70 kcal/mol
Rotational entropy                ...      0.01532140 Eh      9.61 kcal/mol
Translational entropy             ...      0.01996392 Eh     12.53 kcal/mol
-----------------------------------------------------------------------
Final entropy term                ...      0.06190367 Eh     38.85 kcal/mol

In case the symmetry of your molecule has not been determined correctly
or in case you have a reason to use a different symmetry number we print 
out the resulting rotational entropy values for sn=1,12 :
 --------------------------------------------------------
|  sn= 1 | S(rot)=       0.01532140 Eh      9.61 kcal/mol|
|  sn= 2 | S(rot)=       0.01466694 Eh      9.20 kcal/mol|
|  sn= 3 | S(rot)=       0.01428411 Eh      8.96 kcal/mol|
|  sn= 4 | S(rot)=       0.01401249 Eh      8.79 kcal/mol|
|  sn= 5 | S(rot)=       0.01380180 Eh      8.66 kcal/mol|
|  sn= 6 | S(rot)=       0.01362966 Eh      8.55 kcal/mol|
|  sn= 7 | S(rot)=       0.01348411 Eh      8.46 kcal/mol|
|  sn= 8 | S(rot)=       0.01335803 Eh      8.38 kcal/mol|
|  sn= 9 | S(rot)=       0.01324682 Eh      8.31 kcal/mol|
|  sn=10 | S(rot)=       0.01314734 Eh      8.25 kcal/mol|
|  sn=11 | S(rot)=       0.01305735 Eh      8.19 kcal/mol|
|  sn=12 | S(rot)=       0.01297520 Eh      8.14 kcal/mol|
 --------------------------------------------------------


-------------------
GIBBS FREE ENERGY
-------------------

The Gibbs free energy is G = H - T*S

Total enthalpy                    ...   -708.11083876 Eh 
Total entropy correction          ...     -0.06190367 Eh    -38.85 kcal/mol
-----------------------------------------------------------------------
Final Gibbs free energy         ...   -708.17274244 Eh

For completeness - the Gibbs free energy minus the electronic energy
G-E(el)                           ...      0.29143958 Eh    182.88 kcal/mol


Timings for individual modules:

Sum of individual times         ...     3550.987 sec (=  59.183 min)
GTO integral calculation        ...       27.314 sec (=   0.455 min)   0.8 %
SCF iterations                  ...     1945.859 sec (=  32.431 min)  54.8 %
SCF Gradient evaluation         ...      491.792 sec (=   8.197 min)  13.8 %
Geometry relaxation             ...        1.443 sec (=   0.024 min)   0.0 %
Analytical frequency calculation...     1084.578 sec (=  18.076 min)  30.5 %
                             ****ORCA TERMINATED NORMALLY****
TOTAL RUN TIME: 0 days 0 hours 59 minutes 18 seconds 126 msec
