
                                 *****************
                                 * O   R   C   A *
                                 *****************

                                            #,                                       
                                            ###                                      
                                            ####                                     
                                            #####                                    
                                            ######                                   
                                           ########,                                 
                                     ,,################,,,,,                         
                               ,,#################################,,                 
                          ,,##########################################,,             
                       ,#########################################, ''#####,          
                    ,#############################################,,   '####,        
                  ,##################################################,,,,####,       
                ,###########''''           ''''###############################       
              ,#####''   ,,,,##########,,,,          '''####'''          '####       
            ,##' ,,,,###########################,,,                        '##       
           ' ,,###''''                  '''############,,,                           
         ,,##''                                '''############,,,,        ,,,,,,###''
      ,#''                                            '''#######################'''  
     '                                                          ''''####''''         
             ,#######,   #######,   ,#######,      ##                                
            ,#'     '#,  ##    ##  ,#'     '#,    #''#        ######   ,####,        
            ##       ##  ##   ,#'  ##            #'  '#       #        #'  '#        
            ##       ##  #######   ##           ,######,      #####,   #    #        
            '#,     ,#'  ##    ##  '#,     ,#' ,#      #,         ##   #,  ,#        
             '#######'   ##     ##  '#######'  #'      '#     #####' # '####'        



                  #######################################################
                  #                        -***-                        #
                  #          Department of theory and spectroscopy      #
                  #    Directorship and core code : Frank Neese         #
                  #        Max Planck Institute fuer Kohlenforschung    #
                  #                Kaiser Wilhelm Platz 1               #
                  #                 D-45470 Muelheim/Ruhr               #
                  #                      Germany                        #
                  #                                                     #
                  #                  All rights reserved                #
                  #                        -***-                        #
                  #######################################################


                         Program Version 5.0.4 -  RELEASE  -


 With contributions from (in alphabetic order):
   Daniel Aravena         : Magnetic Suceptibility
   Michael Atanasov       : Ab Initio Ligand Field Theory (pilot matlab implementation)
   Alexander A. Auer      : GIAO ZORA, VPT2 properties, NMR spectrum
   Ute Becker             : Parallelization
   Giovanni Bistoni       : ED, misc. LED, open-shell LED, HFLD
   Martin Brehm           : Molecular dynamics
   Dmytro Bykov           : SCF Hessian
   Vijay G. Chilkuri      : MRCI spin determinant printing, contributions to CSF-ICE
   Dipayan Datta          : RHF DLPNO-CCSD density
   Achintya Kumar Dutta   : EOM-CC, STEOM-CC
   Dmitry Ganyushin       : Spin-Orbit,Spin-Spin,Magnetic field MRCI
   Miquel Garcia          : C-PCM and meta-GGA Hessian, CC/C-PCM, Gaussian charge scheme
   Yang Guo               : DLPNO-NEVPT2, F12-NEVPT2, CIM, IAO-localization
   Andreas Hansen         : Spin unrestricted coupled pair/coupled cluster methods
   Benjamin Helmich-Paris : MC-RPA, TRAH-SCF, COSX integrals
   Lee Huntington         : MR-EOM, pCC
   Robert Izsak           : Overlap fitted RIJCOSX, COSX-SCS-MP3, EOM
   Marcus Kettner         : VPT2
   Christian Kollmar      : KDIIS, OOCD, Brueckner-CCSD(T), CCSD density, CASPT2, CASPT2-K
   Simone Kossmann        : Meta GGA functionals, TD-DFT gradient, OOMP2, MP2 Hessian
   Martin Krupicka        : Initial AUTO-CI
   Lucas Lang             : DCDCAS
   Marvin Lechner         : AUTO-CI (C++ implementation), FIC-MRCC
   Dagmar Lenk            : GEPOL surface, SMD
   Dimitrios Liakos       : Extrapolation schemes; Compound Job, initial MDCI parallelization
   Dimitrios Manganas     : Further ROCIS development; embedding schemes
   Dimitrios Pantazis     : SARC Basis sets
   Anastasios Papadopoulos: AUTO-CI, single reference methods and gradients
   Taras Petrenko         : DFT Hessian,TD-DFT gradient, ASA, ECA, R-Raman, ABS, FL, XAS/XES, NRVS
   Peter Pinski           : DLPNO-MP2, DLPNO-MP2 Gradient
   Christoph Reimann      : Effective Core Potentials
   Marius Retegan         : Local ZFS, SOC
   Christoph Riplinger    : Optimizer, TS searches, QM/MM, DLPNO-CCSD(T), (RO)-DLPNO pert. Triples
   Tobias Risthaus        : Range-separated hybrids, TD-DFT gradient, RPA, STAB
   Michael Roemelt        : Original ROCIS implementation
   Masaaki Saitow         : Open-shell DLPNO-CCSD energy and density
   Barbara Sandhoefer     : DKH picture change effects
   Avijit Sen             : IP-ROCIS
   Kantharuban Sivalingam : CASSCF convergence, NEVPT2, FIC-MRCI
   Bernardo de Souza      : ESD, SOC TD-DFT
   Georgi Stoychev        : AutoAux, RI-MP2 NMR, DLPNO-MP2 response
   Willem Van den Heuvel  : Paramagnetic NMR
   Boris Wezisla          : Elementary symmetry handling
   Frank Wennmohs         : Technical directorship


 We gratefully acknowledge several colleagues who have allowed us to
 interface, adapt or use parts of their codes:
   Stefan Grimme, W. Hujo, H. Kruse, P. Pracht,  : VdW corrections, initial TS optimization,
                  C. Bannwarth, S. Ehlert          DFT functionals, gCP, sTDA/sTD-DF
   Ed Valeev, F. Pavosevic, A. Kumar             : LibInt (2-el integral package), F12 methods
   Garnet Chan, S. Sharma, J. Yang, R. Olivares  : DMRG
   Ulf Ekstrom                                   : XCFun DFT Library
   Mihaly Kallay                                 : mrcc  (arbitrary order and MRCC methods)
   Jiri Pittner, Ondrej Demel                    : Mk-CCSD
   Frank Weinhold                                : gennbo (NPA and NBO analysis)
   Christopher J. Cramer and Donald G. Truhlar   : smd solvation model
   Lars Goerigk                                  : TD-DFT with DH, B97 family of functionals
   V. Asgeirsson, H. Jonsson                     : NEB implementation
   FAccTs GmbH                                   : IRC, NEB, NEB-TS, DLPNO-Multilevel, CI-OPT
                                                   MM, QMMM, 2- and 3-layer-ONIOM, Crystal-QMMM,
                                                   LR-CPCM, SF, NACMEs, symmetry and pop. for TD-DFT,
                                                   nearIR, NL-DFT gradient (VV10), updates on ESD,
                                                   ML-optimized integration grids
   S Lehtola, MJT Oliveira, MAL Marques          : LibXC Library
   Liviu Ungur et al                             : ANISO software


 Your calculation uses the libint2 library for the computation of 2-el integrals
 For citations please refer to: http://libint.valeyev.net

 Your ORCA version has been built with support for libXC version: 5.1.0
 For citations please refer to: https://tddft.org/programs/libxc/

 This ORCA versions uses:
   CBLAS   interface :  Fast vector & matrix operations
   LAPACKE interface :  Fast linear algebra routines
   SCALAPACK package :  Parallel linear algebra routines
   Shared memory     :  Shared parallel matrices
   BLAS/LAPACK       :  OpenBLAS 0.3.15  USE64BITINT DYNAMIC_ARCH NO_AFFINITY SkylakeX SINGLE_THREADED
        Core in use  :  SkylakeX
   Copyright (c) 2011-2014, The OpenBLAS Project




***************************************
The coordinates will be read from file: /users/fjb15167/WWenergy/structures/Nt.xyz
***************************************


Your calculation utilizes the atom-pairwise dispersion correction
based on tight binding partial charges (D4)
Cite in your paper:
E.Caldeweyher, C.Bannwarth, S.Grimme, J.Chem.Phys., (2017), 147, 034112.
E.Caldeweyher, S.Ehlert, A.Hansen, H.Neugebauer, S.Grimme, J.Chem.Phys., (2018), in progress.
   

================================================================================

----- Orbital basis set information -----
Your calculation utilizes the basis: 6-31G(d)
   H-He, Li-Ne : W. J. Hehre, R. Ditchfield and J.A. Pople, J. Chem. Phys. 56, 2257 (1972).
                 Note: He and Ne are unpublished basis sets taken from the Gaussian program.
                 Note: Li and B from J. D. Dill and J. A. Pople, J. Chem. Phys. 62, 2921 (1975).
   Na - Ar     : M. M. Francl, W. J. Pietro, W. J. Hehre, J. S. Binkley, M. S. Gordon, 
                 D. J. DeFrees and J. A. Pople, J. Chem. Phys. 77, 3654 (1982).
   K - Zn      : V. A. Rassolov, J. A. Pople, M. A. Ratner, and T. L. Windus, J. Chem. Phys. 109, 1223 (1998).

----- AuxJ basis set information -----
Your calculation utilizes the AutoAux generation procedure.
  G. L. Stoychev, A. A. Auer, F. Neese, J. Chem. Theory Comput. 13, 554 (2017)

----- AuxC basis set information -----
Your calculation utilizes the AutoAux generation procedure.
  G. L. Stoychev, A. A. Auer, F. Neese, J. Chem. Theory Comput. 13, 554 (2017)

----- AuxJK basis set information -----
Your calculation utilizes the AutoAux generation procedure.
  G. L. Stoychev, A. A. Auer, F. Neese, J. Chem. Theory Comput. 13, 554 (2017)

================================================================================
                                        WARNINGS
                       Please study these warnings very carefully!
================================================================================


WARNING: Geometry Optimization
  ===> : Switching off AutoStart
         For restart on a previous wavefunction, please use MOREAD

INFO   : the flag for use of the SHARK integral package has been found!

================================================================================
                                       INPUT FILE
================================================================================
NAME = Nt_gas.inp
|  1> ! OPT FREQ B3LYP 6-31G(d) D4 AUTOAUX
|  2> 
|  3> %PAL NPROCS 4 END
|  4> 
|  5> %maxcore 3375
|  6> 
|  7> *xyzfile 0 1 /users/fjb15167/WWenergy/structures/Nt.xyz
|  8> 
|  9>                          ****END OF INPUT****
================================================================================

                       *****************************
                       * Geometry Optimization Run *
                       *****************************

Geometry optimization settings:
Update method            Update   .... BFGS
Choice of coordinates    CoordSys .... Z-matrix Internals
Initial Hessian          InHess   .... Almoef's Model

Convergence Tolerances:
Energy Change            TolE     ....  5.0000e-06 Eh
Max. Gradient            TolMAXG  ....  3.0000e-04 Eh/bohr
RMS Gradient             TolRMSG  ....  1.0000e-04 Eh/bohr
Max. Displacement        TolMAXD  ....  4.0000e-03 bohr
RMS Displacement         TolRMSD  ....  2.0000e-03 bohr
Strict Convergence                ....  False
------------------------------------------------------------------------------
                        ORCA OPTIMIZATION COORDINATE SETUP
------------------------------------------------------------------------------

The optimization will be done in new redundant internal coordinates
Making redundant internal coordinates   ...  (new redundants) done
Evaluating the initial hessian          ...  (Almloef) done
Evaluating the coordinates              ...  done
Calculating the B-matrix                .... done
Calculating the G-matrix                .... done
Diagonalizing the G-matrix              .... done
Small eigenvalue found = 7.750e-03
Small eigenvalue found = 1.223e-02
Small eigenvalue found = 1.751e-02
Small eigenvalue found = 2.373e-02
Small eigenvalue found = 2.757e-02
The first mode is                       ....   52
The number of degrees of freedom        ....   81

    -----------------------------------------------------------------
                    Redundant Internal Coordinates


    -----------------------------------------------------------------
         Definition                    Initial Value    Approx d2E/dq
    -----------------------------------------------------------------
      1. B(H   1,C   0)                  1.0883         0.362413   
      2. B(H   2,C   0)                  1.0914         0.358200   
      3. B(H   3,C   0)                  1.0937         0.355254   
      4. B(C   4,C   0)                  1.5110         0.400620   
      5. B(O   5,C   4)                  1.2363         0.984146   
      6. B(N   6,C   4)                  1.3827         0.574861   
      7. B(C   7,N   6)                  1.4485         0.451388   
      8. B(H   8,C   7)                  1.0960         0.352268   
      9. B(H   9,C   7)                  1.0901         0.359939   
     10. B(C  10,N   6)                  1.4499         0.449096   
     11. B(H  11,C  10)                  1.0979         0.349844   
     12. B(C  12,C  10)                  1.5236         0.382456   
     13. B(H  13,C  12)                  1.0904         0.359566   
     14. B(H  14,C  12)                  1.0890         0.361425   
     15. B(C  15,C   7)                  1.5327         0.369950   
     16. B(N  16,C  15)                  1.3669         0.609199   
     17. B(O  17,C  15)                  1.2364         0.983959   
     18. B(C  18,N  16)                  1.4552         0.440454   
     19. B(H  19,C  18)                  1.0934         0.355600   
     20. B(H  20,C  18)                  1.0900         0.360084   
     21. B(H  21,C  18)                  1.0970         0.350908   
     22. B(C  22,N  16)                  1.4563         0.438652   
     23. B(H  23,C  22)                  1.0962         0.352019   
     24. B(H  24,C  22)                  1.0884         0.362180   
     25. B(H  25,C  22)                  1.0936         0.355381   
     26. B(O  26,C  10)                  1.4329         0.477938   
     27. B(H  27,O  26)                  0.9735         0.494830   
     28. B(H  28,C  12)                  1.0964         0.351757   
     29. A(H   3,C   0,C   4)          109.6315         0.327339   
     30. A(H   1,C   0,C   4)          112.5007         0.328418   
     31. A(H   2,C   0,H   3)          107.6690         0.289981   
     32. A(H   2,C   0,C   4)          106.7008         0.327785   
     33. A(H   1,C   0,H   3)          109.9803         0.290513   
     34. A(H   1,C   0,H   2)          110.1987         0.290890   
     35. A(C   0,C   4,O   5)          120.7592         0.433196   
     36. A(O   5,C   4,N   6)          120.0810         0.459436   
     37. A(C   0,C   4,N   6)          119.1328         0.393759   
     38. A(C   4,N   6,C  10)          126.5402         0.399167   
     39. A(C   7,N   6,C  10)          118.2126         0.382648   
     40. A(C   4,N   6,C   7)          114.4465         0.399525   
     41. A(H   8,C   7,H   9)          108.3830         0.289817   
     42. A(N   6,C   7,H   9)          107.7190         0.332570   
     43. A(H   9,C   7,C  15)          110.6830         0.323776   
     44. A(N   6,C   7,C  15)          111.1170         0.372374   
     45. A(N   6,C   7,H   8)          108.9885         0.331385   
     46. A(H   8,C   7,C  15)          109.8737         0.322634   
     47. A(H  11,C  10,O  26)          109.2597         0.334157   
     48. A(C  12,C  10,O  26)          112.3166         0.378231   
     49. A(H  11,C  10,C  12)          107.4664         0.324031   
     50. A(N   6,C  10,C  12)          115.3715         0.374185   
     51. A(N   6,C  10,O  26)          107.4327         0.386472   
     52. A(N   6,C  10,H  11)          104.6130         0.330728   
     53. A(H  14,C  12,H  28)          108.2113         0.289938   
     54. A(H  13,C  12,H  28)          108.9474         0.289704   
     55. A(C  10,C  12,H  28)          109.3111         0.324322   
     56. A(H  13,C  12,H  14)          109.9105         0.290939   
     57. A(C  10,C  12,H  14)          111.6493         0.325770   
     58. A(C  10,C  12,H  13)          108.7709         0.325494   
     59. A(N  16,C  15,O  17)          122.8250         0.464317   
     60. A(C   7,C  15,O  17)          120.6063         0.427032   
     61. A(C   7,C  15,N  16)          116.5140         0.392271   
     62. A(C  15,N  16,C  18)          123.2249         0.401888   
     63. A(C  18,N  16,C  22)          116.0807         0.379472   
     64. A(C  15,N  16,C  22)          118.3989         0.401598   
     65. A(H  19,C  18,H  20)          107.5533         0.290264   
     66. A(N  16,C  18,H  20)          111.1381         0.331244   
     67. A(N  16,C  18,H  19)          108.1013         0.330557   
     68. A(H  20,C  18,H  21)          109.2173         0.289660   
     69. A(H  19,C  18,H  21)          108.5976         0.289091   
     70. A(N  16,C  18,H  21)          112.0914         0.329832   
     71. A(H  24,C  22,H  25)          109.9345         0.290500   
     72. A(H  23,C  22,H  25)          109.0001         0.289207   
     73. A(N  16,C  22,H  25)          109.6033         0.330300   
     74. A(H  23,C  22,H  24)          109.2267         0.290067   
     75. A(N  16,C  22,H  24)          108.1727         0.331337   
     76. A(N  16,C  22,H  23)          110.8923         0.329781   
     77. A(C  10,O  26,H  27)          106.9960         0.351081   
     78. D(O   5,C   4,C   0,H   2)     31.7783         0.011909   
     79. D(O   5,C   4,C   0,H   1)    152.7400         0.011909   
     80. D(N   6,C   4,C   0,H   1)    -25.3705         0.011909   
     81. D(N   6,C   4,C   0,H   2)   -146.3322         0.011909   
     82. D(O   5,C   4,C   0,H   3)    -84.5468         0.011909   
     83. D(N   6,C   4,C   0,H   3)     97.3427         0.011909   
     84. D(C   7,N   6,C   4,C   0)    176.8767         0.026475   
     85. D(C  10,N   6,C   4,C   0)    -13.6324         0.026475   
     86. D(C   7,N   6,C   4,O   5)     -1.2469         0.026475   
     87. D(C  10,N   6,C   4,O   5)    168.2440         0.026475   
     88. D(C  15,C   7,N   6,C   4)     83.4428         0.017383   
     89. D(H   9,C   7,N   6,C   4)    -37.9482         0.017383   
     90. D(H   8,C   7,N   6,C  10)     34.2327         0.017383   
     91. D(H   9,C   7,N   6,C  10)    151.6243         0.017383   
     92. D(H   8,C   7,N   6,C   4)   -155.3398         0.017383   
     93. D(C  15,C   7,N   6,C  10)    -86.9847         0.017383   
     94. D(O  26,C  10,N   6,C   7)   -117.7961         0.017205   
     95. D(O  26,C  10,N   6,C   4)     73.0647         0.017205   
     96. D(C  12,C  10,N   6,C   7)    116.0893         0.017205   
     97. D(C  12,C  10,N   6,C   4)    -53.0499         0.017205   
     98. D(H  11,C  10,N   6,C   7)     -1.7461         0.017205   
     99. D(H  11,C  10,N   6,C   4)   -170.8852         0.017205   
    100. D(H  28,C  12,C  10,H  11)    -54.7800         0.011650   
    101. D(H  28,C  12,C  10,N   6)   -171.0073         0.011650   
    102. D(H  14,C  12,C  10,O  26)    -54.2792         0.011650   
    103. D(H  14,C  12,C  10,H  11)   -174.4744         0.011650   
    104. D(H  14,C  12,C  10,N   6)     69.2984         0.011650   
    105. D(H  13,C  12,C  10,O  26)   -175.7376         0.011650   
    106. D(H  13,C  12,C  10,H  11)     64.0673         0.011650   
    107. D(H  28,C  12,C  10,O  26)     65.4152         0.011650   
    108. D(H  13,C  12,C  10,N   6)    -52.1600         0.011650   
    109. D(O  17,C  15,C   7,H   9)    135.4131         0.010249   
    110. D(O  17,C  15,C   7,H   8)   -104.9232         0.010249   
    111. D(O  17,C  15,C   7,N   6)     15.7736         0.010249   
    112. D(N  16,C  15,C   7,H   9)    -47.2029         0.010249   
    113. D(N  16,C  15,C   7,H   8)     72.4607         0.010249   
    114. D(N  16,C  15,C   7,N   6)   -166.8424         0.010249   
    115. D(C  22,N  16,C  15,O  17)     -8.8929         0.029971   
    116. D(C  22,N  16,C  15,C   7)    173.7865         0.029971   
    117. D(C  18,N  16,C  15,O  17)   -170.9924         0.029971   
    118. D(C  18,N  16,C  15,C   7)     11.6871         0.029971   
    119. D(H  21,C  18,N  16,C  15)     80.9272         0.016543   
    120. D(H  20,C  18,N  16,C  22)    155.9137         0.016543   
    121. D(H  20,C  18,N  16,C  15)    -41.6057         0.016543   
    122. D(H  19,C  18,N  16,C  22)     38.1020         0.016543   
    123. D(H  21,C  18,N  16,C  22)    -81.5534         0.016543   
    124. D(H  19,C  18,N  16,C  15)   -159.4174         0.016543   
    125. D(H  25,C  22,N  16,C  18)    -58.8018         0.016407   
    126. D(H  25,C  22,N  16,C  15)    137.8329         0.016407   
    127. D(H  24,C  22,N  16,C  18)   -178.6584         0.016407   
    128. D(H  24,C  22,N  16,C  15)     17.9763         0.016407   
    129. D(H  23,C  22,N  16,C  18)     61.5872         0.016407   
    130. D(H  23,C  22,N  16,C  15)   -101.7781         0.016407   
    131. D(H  27,O  26,C  10,C  12)    -41.9179         0.018016   
    132. D(H  27,O  26,C  10,H  11)     77.2324         0.018016   
    133. D(H  27,O  26,C  10,N   6)   -169.8238         0.018016   
    -----------------------------------------------------------------

Number of atoms                         .... 29
Number of degrees of freedom            .... 133

         *************************************************************
         *                GEOMETRY OPTIMIZATION CYCLE   1            *
         *************************************************************
---------------------------------
CARTESIAN COORDINATES (ANGSTROEM)
---------------------------------
  C      2.670000    1.500000   -0.811000
  H      3.410000    0.952000   -0.231000
  H      2.876000    2.571000   -0.769000
  H      2.716000    1.194000   -1.860000
  C      1.266000    1.307000   -0.287000
  O      0.403000    2.176000   -0.456000
  N      0.964000    0.159000    0.422000
  C     -0.389000    0.111000    0.937000
  H     -0.416000   -0.555000    1.807000
  H     -0.655000    1.116000    1.265000
  C      1.772000   -1.042000    0.505000
  H      1.129000   -1.774000    1.011000
  C      2.186000   -1.644000   -0.832000
  H      1.296000   -1.776000   -1.448000
  H      2.906000   -1.013000   -1.351000
  C     -1.369000   -0.387000   -0.131000
  N     -2.699000   -0.216000    0.134000
  O     -0.956000   -0.956000   -1.148000
  C     -3.195000    0.612000    1.223000
  H     -4.218000    0.299000    1.449000
  H     -2.601000    0.471000    2.126000
  H     -3.205000    1.677000    0.960000
  C     -3.661000   -0.547000   -0.908000
  H     -4.024000    0.359000   -1.407000
  H     -3.165000   -1.184000   -1.638000
  H     -4.511000   -1.076000   -0.468000
  O      2.898000   -0.745000    1.340000
  H      3.516000   -1.493000    1.261000
  H      2.649000   -2.623000   -0.661000

----------------------------
CARTESIAN COORDINATES (A.U.)
----------------------------
  NO LB      ZA    FRAG     MASS         X           Y           Z
   0 C     6.0000    0    12.011    5.045569    2.834589   -1.532568
   1 H     1.0000    0     1.008    6.443966    1.799019   -0.436527
   2 H     1.0000    0     1.008    5.434852    4.858486   -1.453199
   3 H     1.0000    0     1.008    5.132496    2.256333   -3.514891
   4 C     6.0000    0    12.011    2.392393    2.469872   -0.542351
   5 O     8.0000    0    15.999    0.761560    4.112044   -0.861715
   6 N     7.0000    0    14.007    1.821696    0.300466    0.797464
   7 C     6.0000    0    12.011   -0.735103    0.209760    1.770673
   8 H     1.0000    0     1.008   -0.786126   -1.048798    3.414735
   9 H     1.0000    0     1.008   -1.237771    2.108934    2.390504
  10 C     6.0000    0    12.011    3.348595   -1.969095    0.954312
  11 H     1.0000    0     1.008    2.133501   -3.352374    1.910513
  12 C     6.0000    0    12.011    4.130941   -3.106710   -1.572252
  13 H     1.0000    0     1.008    2.449085   -3.356154   -2.736323
  14 H     1.0000    0     1.008    5.491544   -1.914293   -2.553020
  15 C     6.0000    0    12.011   -2.587035   -0.731324   -0.247554
  16 N     7.0000    0    14.007   -5.100371   -0.408181    0.253223
  17 O     8.0000    0    15.999   -1.806578   -1.806578   -2.169406
  18 C     6.0000    0    12.011   -6.037675    1.156512    2.311135
  19 H     1.0000    0     1.008   -7.970865    0.565028    2.738213
  20 H     1.0000    0     1.008   -4.915178    0.890061    4.017558
  21 H     1.0000    0     1.008   -6.056572    3.169071    1.814137
  22 C     6.0000    0    12.011   -6.918287   -1.033680   -1.715871
  23 H     1.0000    0     1.008   -7.604258    0.678412   -2.658845
  24 H     1.0000    0     1.008   -5.980983   -2.237436   -3.095371
  25 H     1.0000    0     1.008   -8.524555   -2.033345   -0.884392
  26 O     8.0000    0    15.999    5.476426   -1.407846    2.532233
  27 H     1.0000    0     1.008    6.644277   -2.821361    2.382945
  28 H     1.0000    0     1.008    5.005885   -4.956752   -1.249109

--------------------------------
INTERNAL COORDINATES (ANGSTROEM)
--------------------------------
 C      0   0   0     0.000000000000     0.00000000     0.00000000
 H      1   0   0     1.088257322512     0.00000000     0.00000000
 H      1   2   0     1.091439874661   110.19866586     0.00000000
 H      1   2   3     1.093687798231   109.98027420   118.54715066
 C      1   2   3     1.510973527233   112.50071339   241.06407238
 O      5   1   2     1.236321560113   120.75922201   152.74000593
 N      5   1   2     1.382674582105   119.13275954   334.62950036
 C      7   5   1     1.448495081110   114.44651803   176.87668186
 H      8   7   5     1.095985857573   108.98853953   204.66018424
 H      8   7   5     1.090121552855   107.71900483   322.05177906
 C      7   5   1     1.449880684746   126.54018410   346.36763133
 H     11   7   5     1.097865656627   104.61296306   189.11476060
 C     11   7   5     1.523603951163   115.37147597   306.95014147
 H     13  11   7     1.090403595005   108.77093293   307.83999981
 H     13  11   7     1.089000459137   111.64928425    69.29837385
 C      8   7   5     1.532653907443   111.11704406    83.44276663
 N     16   8   7     1.366881852978   116.51396233   193.15762100
 O     16   8   7     1.236373325497   120.60628549    15.77364699
 C     17  16   8     1.455170436753   123.22494540    11.68706681
 H     19  17  16     1.093423065423   108.10134400   200.58263000
 H     19  17  16     1.090011926540   111.13814004   318.39429378
 H     19  17  16     1.097038741340   112.09135156    80.92720111
 C     17  16   8     1.456286029597   118.39886351   173.78651300
 H     23  17  16     1.096177905269   110.89230879   258.22189524
 H     23  17  16     1.088432358946   108.17270654    17.97630131
 H     23  17  16     1.093590874139   109.60325248   137.83287427
 O     11   7   5     1.432937542254   107.43272695    73.06467797
 H     27  11   7     0.973482922295   106.99596044   190.17617553
 H     13  11   7     1.096380864481   109.31109053   188.99270113

---------------------------
INTERNAL COORDINATES (A.U.)
---------------------------
 C      0   0   0     0.000000000000     0.00000000     0.00000000
 H      1   0   0     2.056508302781     0.00000000     0.00000000
 H      1   2   0     2.062522454751   110.19866586     0.00000000
 H      1   2   3     2.066770414668   109.98027420   118.54715066
 C      1   2   3     2.855326162076   112.50071339   241.06407238
 O      5   1   2     2.336309162076   120.75922201   152.74000593
 N      5   1   2     2.612876292513   119.13275954   334.62950036
 C      7   5   1     2.737259009630   114.44651803   176.87668186
 H      8   7   5     2.071113117464   108.98853953   204.66018424
 H      8   7   5     2.060031187582   107.71900483   322.05177906
 C      7   5   1     2.739877421032   126.54018410   346.36763133
 H     11   7   5     2.074665422862   104.61296306   189.11476060
 C     11   7   5     2.879194204259   115.37147597   306.95014147
 H     13  11   7     2.060564170003   108.77093293   307.83999981
 H     13  11   7     2.057912627483   111.64928425    69.29837385
 C      8   7   5     2.896296143151   111.11704406    83.44276663
 N     16   8   7     2.583032359555   116.51396233   193.15762100
 O     16   8   7     2.336406984474   120.60628549    15.77364699
 C     17  16   8     2.749873603642   123.22494540    11.68706681
 H     19  17  16     2.066270142163   108.10134400   200.58263000
 H     19  17  16     2.059824023869   111.13814004   318.39429378
 H     19  17  16     2.073102779434   112.09135156    80.92720111
 C     17  16   8     2.751981768594   118.39886351   173.78651300
 H     23  17  16     2.071476035014   110.89230879   258.22189524
 H     23  17  16     2.056839073705   108.17270654    17.97630131
 H     23  17  16     2.066587254678   109.60325248   137.83287427
 O     11   7   5     2.707859521874   107.43272695    73.06467797
 H     27  11   7     1.839616119187   106.99596044   190.17617553
 H     13  11   7     2.071859572341   109.31109053   188.99270113

---------------------
BASIS SET INFORMATION
---------------------
There are 4 groups of distinct atoms

 Group   1 Type C   : 10s4p1d contracted to 3s2p1d pattern {631/31/1}
 Group   2 Type H   : 4s contracted to 2s pattern {31}
 Group   3 Type O   : 10s4p1d contracted to 3s2p1d pattern {631/31/1}
 Group   4 Type N   : 10s4p1d contracted to 3s2p1d pattern {631/31/1}

Atom   0C    basis set group =>   1
Atom   1H    basis set group =>   2
Atom   2H    basis set group =>   2
Atom   3H    basis set group =>   2
Atom   4C    basis set group =>   1
Atom   5O    basis set group =>   3
Atom   6N    basis set group =>   4
Atom   7C    basis set group =>   1
Atom   8H    basis set group =>   2
Atom   9H    basis set group =>   2
Atom  10C    basis set group =>   1
Atom  11H    basis set group =>   2
Atom  12C    basis set group =>   1
Atom  13H    basis set group =>   2
Atom  14H    basis set group =>   2
Atom  15C    basis set group =>   1
Atom  16N    basis set group =>   4
Atom  17O    basis set group =>   3
Atom  18C    basis set group =>   1
Atom  19H    basis set group =>   2
Atom  20H    basis set group =>   2
Atom  21H    basis set group =>   2
Atom  22C    basis set group =>   1
Atom  23H    basis set group =>   2
Atom  24H    basis set group =>   2
Atom  25H    basis set group =>   2
Atom  26O    basis set group =>   3
Atom  27H    basis set group =>   2
Atom  28H    basis set group =>   2
---------------------------------
AUXILIARY/J BASIS SET INFORMATION
---------------------------------
There are 4 groups of distinct atoms

 Group   1 Type C   : 13s11p10d2f contracted to 13s11p10d2f pattern {1111111111111/11111111111/1111111111/11}
 Group   2 Type H   : 9s2p contracted to 9s2p pattern {111111111/11}
 Group   3 Type O   : 14s11p10d2f contracted to 14s11p10d2f pattern {11111111111111/11111111111/1111111111/11}
 Group   4 Type N   : 14s11p10d2f contracted to 14s11p10d2f pattern {11111111111111/11111111111/1111111111/11}

Atom   0C    basis set group =>   1
Atom   1H    basis set group =>   2
Atom   2H    basis set group =>   2
Atom   3H    basis set group =>   2
Atom   4C    basis set group =>   1
Atom   5O    basis set group =>   3
Atom   6N    basis set group =>   4
Atom   7C    basis set group =>   1
Atom   8H    basis set group =>   2
Atom   9H    basis set group =>   2
Atom  10C    basis set group =>   1
Atom  11H    basis set group =>   2
Atom  12C    basis set group =>   1
Atom  13H    basis set group =>   2
Atom  14H    basis set group =>   2
Atom  15C    basis set group =>   1
Atom  16N    basis set group =>   4
Atom  17O    basis set group =>   3
Atom  18C    basis set group =>   1
Atom  19H    basis set group =>   2
Atom  20H    basis set group =>   2
Atom  21H    basis set group =>   2
Atom  22C    basis set group =>   1
Atom  23H    basis set group =>   2
Atom  24H    basis set group =>   2
Atom  25H    basis set group =>   2
Atom  26O    basis set group =>   3
Atom  27H    basis set group =>   2
Atom  28H    basis set group =>   2
---------------------------------
AUXILIARY/C BASIS SET INFORMATION
---------------------------------
There are 4 groups of distinct atoms

 Group   1 Type C   : 13s11p10d2f contracted to 13s11p10d2f pattern {1111111111111/11111111111/1111111111/11}
 Group   2 Type H   : 9s2p contracted to 9s2p pattern {111111111/11}
 Group   3 Type O   : 14s11p10d2f contracted to 14s11p10d2f pattern {11111111111111/11111111111/1111111111/11}
 Group   4 Type N   : 14s11p10d2f contracted to 14s11p10d2f pattern {11111111111111/11111111111/1111111111/11}

Atom   0C    basis set group =>   1
Atom   1H    basis set group =>   2
Atom   2H    basis set group =>   2
Atom   3H    basis set group =>   2
Atom   4C    basis set group =>   1
Atom   5O    basis set group =>   3
Atom   6N    basis set group =>   4
Atom   7C    basis set group =>   1
Atom   8H    basis set group =>   2
Atom   9H    basis set group =>   2
Atom  10C    basis set group =>   1
Atom  11H    basis set group =>   2
Atom  12C    basis set group =>   1
Atom  13H    basis set group =>   2
Atom  14H    basis set group =>   2
Atom  15C    basis set group =>   1
Atom  16N    basis set group =>   4
Atom  17O    basis set group =>   3
Atom  18C    basis set group =>   1
Atom  19H    basis set group =>   2
Atom  20H    basis set group =>   2
Atom  21H    basis set group =>   2
Atom  22C    basis set group =>   1
Atom  23H    basis set group =>   2
Atom  24H    basis set group =>   2
Atom  25H    basis set group =>   2
Atom  26O    basis set group =>   3
Atom  27H    basis set group =>   2
Atom  28H    basis set group =>   2
----------------------------------
AUXILIARY/JK BASIS SET INFORMATION
----------------------------------
There are 4 groups of distinct atoms

 Group   1 Type C   : 13s11p10d2f contracted to 13s11p10d2f pattern {1111111111111/11111111111/1111111111/11}
 Group   2 Type H   : 9s2p contracted to 9s2p pattern {111111111/11}
 Group   3 Type O   : 14s11p10d2f contracted to 14s11p10d2f pattern {11111111111111/11111111111/1111111111/11}
 Group   4 Type N   : 14s11p10d2f contracted to 14s11p10d2f pattern {11111111111111/11111111111/1111111111/11}

Atom   0C    basis set group =>   1
Atom   1H    basis set group =>   2
Atom   2H    basis set group =>   2
Atom   3H    basis set group =>   2
Atom   4C    basis set group =>   1
Atom   5O    basis set group =>   3
Atom   6N    basis set group =>   4
Atom   7C    basis set group =>   1
Atom   8H    basis set group =>   2
Atom   9H    basis set group =>   2
Atom  10C    basis set group =>   1
Atom  11H    basis set group =>   2
Atom  12C    basis set group =>   1
Atom  13H    basis set group =>   2
Atom  14H    basis set group =>   2
Atom  15C    basis set group =>   1
Atom  16N    basis set group =>   4
Atom  17O    basis set group =>   3
Atom  18C    basis set group =>   1
Atom  19H    basis set group =>   2
Atom  20H    basis set group =>   2
Atom  21H    basis set group =>   2
Atom  22C    basis set group =>   1
Atom  23H    basis set group =>   2
Atom  24H    basis set group =>   2
Atom  25H    basis set group =>   2
Atom  26O    basis set group =>   3
Atom  27H    basis set group =>   2
Atom  28H    basis set group =>   2


           ************************************************************
           *        Program running with 4 parallel MPI-processes     *
           *              working on a common directory               *
           ************************************************************
------------------------------------------------------------------------------
                           ORCA GTO INTEGRAL CALCULATION
                           -- RI-GTO INTEGRALS CHOSEN --
------------------------------------------------------------------------------
------------------------------------------------------------------------------
                   ___                                                        
                  /   \      - P O W E R E D   B Y -                         
                 /     \                                                     
                 |  |  |   _    _      __       _____    __    __             
                 |  |  |  | |  | |    /  \     |  _  \  |  |  /  |          
                  \  \/   | |  | |   /    \    | | | |  |  | /  /          
                 / \  \   | |__| |  /  /\  \   | |_| |  |  |/  /          
                |  |  |   |  __  | /  /__\  \  |    /   |      \           
                |  |  |   | |  | | |   __   |  |    \   |  |\   \          
                \     /   | |  | | |  |  |  |  | |\  \  |  | \   \       
                 \___/    |_|  |_| |__|  |__|  |_| \__\ |__|  \__/        
                                                                              
                      - O R C A' S   B I G   F R I E N D -                    
                                      &                                       
                       - I N T E G R A L  F E E D E R -                       
                                                                              
 v1 FN, 2020, v2 2021                                                         
------------------------------------------------------------------------------


Reading SHARK input file Nt_gas.SHARKINP.tmp ... ok
----------------------
SHARK INTEGRAL PACKAGE
----------------------

Number of atoms                             ...     29
Number of basis functions                   ...    214
Number of shells                            ...    110
Maximum angular momentum                    ...      2
Integral batch strategy                     ... SHARK/LIBINT Hybrid
RI-J (if used) integral strategy            ... SPLIT-RIJ (Revised 2003 algorithm where possible)
Printlevel                                  ...      1
Contraction scheme used                     ... SEGMENTED contraction
Coulomb Range Separation                    ... NOT USED
Exchange Range Separation                   ... NOT USED
Finite Nucleus Model                        ... NOT USED
Auxiliary Coulomb fitting basis             ... AVAILABLE
   # of basis functions in Aux-J            ...   1675
   # of shells in Aux-J                     ...    649
   Maximum angular momentum in Aux-J        ...      3
Auxiliary J/K fitting basis                 ... AVAILABLE
   # of basis functions in Aux-JK           ...   1675
   # of shells in Aux-JK                    ...    649
   Maximum angular momentum in Aux-JK       ...      3
Auxiliary Correlation fitting basis         ... AVAILABLE
   # of basis functions in Aux-C            ...   1675
   # of shells in Aux-C                     ...    649
   Maximum angular momentum in Aux-C        ...      3
Auxiliary 'external' fitting basis          ... NOT available
Integral threshold                          ...     2.500000e-11
Primitive cut-off                           ...     2.500000e-12
Primitive pair pre-selection threshold      ...     2.500000e-12

Calculating pre-screening integrals         ... done (  0.0 sec) Dimension = 110
Organizing shell pair data                  ... done (  0.0 sec)
Shell pair information
Total number of shell pairs                 ...      6105
Shell pairs after pre-screening             ...      5287
Total number of primitive shell pairs       ...     33991
Primitive shell pairs kept                  ...     17604
          la=0 lb=0:   2123 shell pairs
          la=1 lb=0:   1683 shell pairs
          la=1 lb=1:    337 shell pairs
          la=2 lb=0:    758 shell pairs
          la=2 lb=1:    309 shell pairs
          la=2 lb=2:     77 shell pairs

Calculating one electron integrals          ... done (  0.0 sec)
Calculating RI/J V-Matrix + Cholesky decomp.... done (  0.2 sec)
Calculating RI/JK V-Matrix + Cholesky decomp... done (  0.2 sec)
Calculating RI/C V-Matrix + Cholesky decomp.... done (  0.2 sec)
Calculating Nuclear repulsion               ... done (  0.0 sec) ENN=    887.265069263206 Eh

SHARK setup successfully completed in   0.8 seconds

Maximum memory used throughout the entire GTOINT-calculation: 25.8 MB


           ************************************************************
           *        Program running with 4 parallel MPI-processes     *
           *              working on a common directory               *
           ************************************************************
-------------------------------------------------------------------------------
                                 ORCA SCF
-------------------------------------------------------------------------------

------------
SCF SETTINGS
------------
Hamiltonian:
 Density Functional     Method          .... DFT(GTOs)
 Exchange Functional    Exchange        .... B88
   X-Alpha parameter    XAlpha          ....  0.666667
   Becke's b parameter  XBeta           ....  0.004200
 Correlation Functional Correlation     .... LYP
 LDA part of GGA corr.  LDAOpt          .... VWN-5
 Gradients option       PostSCFGGA      .... off
 Hybrid DFT is turned on
   Fraction HF Exchange ScalHFX         ....  0.200000
   Scaling of DF-GGA-X  ScalDFX         ....  0.720000
   Scaling of DF-GGA-C  ScalDFC         ....  0.810000
   Scaling of DF-LDA-C  ScalLDAC        ....  1.000000
   Perturbative correction              ....  0.000000
   Density functional embedding theory  .... OFF
   NL short-range parameter             ....  4.800000
 RI-approximation to the Coulomb term is turned on
   Number of AuxJ basis functions       .... 1675
   RIJ-COSX (HFX calculated with COS-X)).... on


General Settings:
 Integral files         IntName         .... Nt_gas
 Hartree-Fock type      HFTyp           .... RHF
 Total Charge           Charge          ....    0
 Multiplicity           Mult            ....    1
 Number of Electrons    NEL             ....  102
 Basis Dimension        Dim             ....  214
 Nuclear Repulsion      ENuc            ....    887.2650692632 Eh

Convergence Acceleration:
 DIIS                   CNVDIIS         .... on
   Start iteration      DIISMaxIt       ....    12
   Startup error        DIISStart       ....  0.200000
   # of expansion vecs  DIISMaxEq       ....     5
   Bias factor          DIISBfac        ....   1.050
   Max. coefficient     DIISMaxC        ....  10.000
 Trust-Rad. Augm. Hess. CNVTRAH         .... auto
   Auto Start mean grad. ratio tolernc. ....  1.125000
   Auto Start start iteration           ....    20
   Auto Start num. interpolation iter.  ....    10
   Max. Number of Micro iterations      ....    16
   Max. Number of Macro iterations      .... Maxiter - #DIIS iter
   Number of Davidson start vectors     ....     2
   Converg. threshold I  (grad. norm)   ....   1.000e-05
   Converg. threshold II (energy diff.) ....   1.000e-08
   Grad. Scal. Fac. for Micro threshold ....   0.100
   Minimum threshold for Micro iter.    ....   0.010
   NR start threshold (gradient norm)   ....   0.001
   Initial trust radius                 ....   0.400
   Minimum AH scaling param. (alpha)    ....   1.000
   Maximum AH scaling param. (alpha)    .... 1000.000
   Orbital update algorithm             .... Taylor
   White noise on init. David. guess    .... on
   Maximum white noise                  ....   0.010
   Quad. conv. algorithm                .... NR
 SOSCF                  CNVSOSCF        .... on
   Start iteration      SOSCFMaxIt      ....   150
   Startup grad/error   SOSCFStart      ....  0.003300
 Level Shifting         CNVShift        .... on
   Level shift para.    LevelShift      ....    0.2500
   Turn off err/grad.   ShiftErr        ....    0.0010
 Zerner damping         CNVZerner       .... off
 Static damping         CNVDamp         .... on
   Fraction old density DampFac         ....    0.7000
   Max. Damping (<1)    DampMax         ....    0.9800
   Min. Damping (>=0)   DampMin         ....    0.0000
   Turn off err/grad.   DampErr         ....    0.1000
 Fernandez-Rico         CNVRico         .... off

SCF Procedure:
 Maximum # iterations   MaxIter         ....   125
 SCF integral mode      SCFMode         .... Direct
   Integral package                     .... SHARK and LIBINT hybrid scheme
 Reset frequency        DirectResetFreq ....    20
 Integral Threshold     Thresh          ....  2.500e-11 Eh
 Primitive CutOff       TCut            ....  2.500e-12 Eh

Convergence Tolerance:
 Convergence Check Mode ConvCheckMode   .... Total+1el-Energy
 Convergence forced     ConvForced      .... 0
 Energy Change          TolE            ....  1.000e-08 Eh
 1-El. energy change                    ....  1.000e-05 Eh
 Orbital Gradient       TolG            ....  1.000e-05
 Orbital Rotation angle TolX            ....  1.000e-05
 DIIS Error             TolErr          ....  5.000e-07


Diagonalization of the overlap matrix:
Smallest eigenvalue                        ... 2.848e-03
Time for diagonalization                   ...    0.014 sec
Threshold for overlap eigenvalues          ... 1.000e-08
Number of eigenvalues below threshold      ... 0
Time for construction of square roots      ...    0.004 sec
Total time needed                          ...    0.019 sec

Time for model grid setup =    0.298 sec

------------------------------
INITIAL GUESS: MODEL POTENTIAL
------------------------------
Loading Hartree-Fock densities                     ... done
Calculating cut-offs                               ... done
Initializing the effective Hamiltonian             ... done
Setting up the integral package (SHARK)            ... done
Starting the Coulomb interaction                   ... done (   0.7 sec)
Reading the grid                                   ... done
Mapping shells                                     ... done
Starting the XC term evaluation                    ... done (   0.2 sec)
  promolecular density results
     # of electrons  =    101.995633137
     EX              =    -83.655203836
     EC              =     -3.461994333
     EX+EC           =    -87.117198169
Transforming the Hamiltonian                       ... done (   0.0 sec)
Diagonalizing the Hamiltonian                      ... done (   0.0 sec)
Back transforming the eigenvectors                 ... done (   0.0 sec)
Now organizing SCF variables                       ... done
                      ------------------
                      INITIAL GUESS DONE (   1.2 sec)
                      ------------------
-------------------
DFT GRID GENERATION
-------------------

General Integration Accuracy     IntAcc      ... 4.388
Radial Grid Type                 RadialGrid  ... OptM3 with GC (2021)
Angular Grid (max. ang.)         AngularGrid ... 4 (Lebedev-302)
Angular grid pruning method      GridPruning ... 4 (adaptive)
Weight generation scheme         WeightScheme... Becke
Basis function cutoff            BFCut       ... 1.0000e-11
Integration weight cutoff        WCut        ... 1.0000e-14
Angular grids for H and He will be reduced by one unit
Partially contracted basis set               ... off
Rotationally invariant grid construction     ... off

Total number of grid points                  ...   129087
Total number of batches                      ...     2033
Average number of points per batch           ...       63
Average number of grid points per atom       ...     4451
Time for grid setup =    1.116 sec

--------------------
COSX GRID GENERATION
--------------------

GRIDX 1
-------
General Integration Accuracy     IntAcc      ... 3.816
Radial Grid Type                 RadialGrid  ... OptM3 with GC (2021)
Angular Grid (max. ang.)         AngularGrid ... 1 (Lebedev-50)
Angular grid pruning method      GridPruning ... 4 (adaptive)
Weight generation scheme         WeightScheme... Becke
Basis function cutoff            BFCut       ... 1.0000e-11
Integration weight cutoff        WCut        ... 1.0000e-14
Angular grids for H and He will be reduced by one unit
Partially contracted basis set               ... on
Rotationally invariant grid construction     ... off

Total number of grid points                  ...    16500
Total number of batches                      ...      277
Average number of points per batch           ...       59
Average number of grid points per atom       ...      569
UseSFitting                                  ... on

GRIDX 2
-------
General Integration Accuracy     IntAcc      ... 4.020
Radial Grid Type                 RadialGrid  ... OptM3 with GC (2021)
Angular Grid (max. ang.)         AngularGrid ... 2 (Lebedev-110)
Angular grid pruning method      GridPruning ... 4 (adaptive)
Weight generation scheme         WeightScheme... Becke
Basis function cutoff            BFCut       ... 1.0000e-11
Integration weight cutoff        WCut        ... 1.0000e-14
Angular grids for H and He will be reduced by one unit
Partially contracted basis set               ... on
Rotationally invariant grid construction     ... off

Total number of grid points                  ...    34969
Total number of batches                      ...      560
Average number of points per batch           ...       62
Average number of grid points per atom       ...     1206
UseSFitting                                  ... on

GRIDX 3
-------
General Integration Accuracy     IntAcc      ... 4.338
Radial Grid Type                 RadialGrid  ... OptM3 with GC (2021)
Angular Grid (max. ang.)         AngularGrid ... 3 (Lebedev-194)
Angular grid pruning method      GridPruning ... 4 (adaptive)
Weight generation scheme         WeightScheme... Becke
Basis function cutoff            BFCut       ... 1.0000e-11
Integration weight cutoff        WCut        ... 1.0000e-14
Angular grids for H and He will be reduced by one unit
Partially contracted basis set               ... on
Rotationally invariant grid construction     ... off

Total number of grid points                  ...    76321
Total number of batches                      ...     1207
Average number of points per batch           ...       63
Average number of grid points per atom       ...     2632
UseSFitting                                  ... on

Time for X-Grid setup             =    2.261 sec

--------------
SCF ITERATIONS
--------------
ITER       Energy         Delta-E        Max-DP      RMS-DP      [F,P]     Damp
               ***  Starting incremental Fock matrix formation  ***
  0   -648.8262989428   0.000000000000 0.10175862  0.00258837  0.2762671 0.7000
  1   -649.0423344135  -0.216035470719 0.05817152  0.00168543  0.1068908 0.7000
                               ***Turning on DIIS***
  2   -649.1211038287  -0.078769415163 0.06677200  0.00246128  0.0389825 0.0000
  3   -649.2514981938  -0.130394365127 0.03893851  0.00118696  0.0551479 0.0000
  4   -649.2774118603  -0.025913666545 0.01102217  0.00037519  0.0131717 0.0000
  5   -649.2795899919  -0.002178131558 0.00277073  0.00010504  0.0043194 0.0000
                      *** Initiating the SOSCF procedure ***
                           *** Shutting down DIIS ***
                      *** Re-Reading the Fockian *** 
                      *** Removing any level shift *** 
ITER      Energy       Delta-E        Grad      Rot      Max-DP    RMS-DP
  6   -649.27967354  -0.0000835438  0.000236  0.000236  0.001457  0.000050
               *** Restarting incremental Fock matrix formation ***
  7   -649.27966565   0.0000078809  0.000207  0.000785  0.001563  0.000030
  8   -649.27966027   0.0000053845  0.000441  0.000615  0.001049  0.000020
  9   -649.27966871  -0.0000084361  0.000074  0.000198  0.000350  0.000007
 10   -649.27966833   0.0000003787  0.000154  0.000135  0.000245  0.000005
 11   -649.27966883  -0.0000005033  0.000003  0.000007  0.000015  0.000000
 12   -649.27966883   0.0000000022  0.000004  0.000004  0.000010  0.000000
                  ***Gradient check signals convergence***
              ***Rediagonalizing the Fockian in SOSCF/NRSCF***

               *****************************************************
               *                     SUCCESS                       *
               *           SCF CONVERGED AFTER  13 CYCLES          *
               *****************************************************

Old exchange energy                            =    -17.034068204 Eh
New exchange energy                            =    -17.034052494 Eh
Exchange energy change after final integration =      0.000015710 Eh
Total energy after final integration           =   -649.279653126 Eh
Final COS-X integration done in                =     9.406 sec

----------------
TOTAL SCF ENERGY
----------------

Total Energy       :         -649.27965313 Eh          -17667.79758 eV

Components:
Nuclear Repulsion  :          887.26506926 Eh           24143.70998 eV
Electronic Energy  :        -1536.54472239 Eh          -41811.50755 eV
One Electron Energy:        -2646.46592583 Eh          -72013.99896 eV
Two Electron Energy:         1109.92120344 Eh           30202.49141 eV
Max COSX asymmetry :            0.00000253 Eh               0.00007 eV

Virial components:
Potential Energy   :        -1294.80112274 Eh          -35233.32978 eV
Kinetic Energy     :          645.52146962 Eh           17565.53220 eV
Virial Ratio       :            2.00582193


DFT components:
N(Alpha)           :       50.999847159343 electrons
N(Beta)            :       50.999847159343 electrons
N(Total)           :      101.999694318685 electrons
E(X)               :      -67.667052990754 Eh       
E(C)               :       -4.078939200824 Eh       
E(XC)              :      -71.745992191578 Eh       
DFET-embed. en.    :        0.000000000000 Eh       

---------------
SCF CONVERGENCE
---------------

  Last Energy change         ...   -7.4140e-09  Tolerance :   1.0000e-08
  Last MAX-Density change    ...    3.1086e-15  Tolerance :   1.0000e-07
  Last RMS-Density change    ...    4.2286e-17  Tolerance :   5.0000e-09
  Last Orbital Gradient      ...    1.4236e-06  Tolerance :   1.0000e-05
  Last Orbital Rotation      ...    3.1095e-06  Tolerance :   1.0000e-05

             **** THE GBW FILE WAS UPDATED (Nt_gas.gbw) ****
             **** DENSITY Nt_gas.scfp WAS UPDATED ****
             **** ENERGY FILE WAS UPDATED (Nt_gas.en.tmp) ****
             **** THE GBW FILE WAS UPDATED (Nt_gas.gbw) ****
             **** DENSITY Nt_gas.scfp WAS UPDATED ****
----------------
ORBITAL ENERGIES
----------------

  NO   OCC          E(Eh)            E(eV) 
   0   2.0000     -19.141985      -520.8799 
   1   2.0000     -19.101936      -519.7901 
   2   2.0000     -19.093468      -519.5597 
   3   2.0000     -14.356941      -390.6722 
   4   2.0000     -14.346606      -390.3910 
   5   2.0000     -10.274493      -279.5832 
   6   2.0000     -10.269703      -279.4528 
   7   2.0000     -10.267003      -279.3794 
   8   2.0000     -10.215726      -277.9840 
   9   2.0000     -10.213311      -277.9183 
  10   2.0000     -10.199964      -277.5551 
  11   2.0000     -10.163949      -276.5751 
  12   2.0000     -10.162201      -276.5275 
  13   2.0000      -1.033838       -28.1322 
  14   2.0000      -1.021833       -27.8055 
  15   2.0000      -1.008947       -27.4548 
  16   2.0000      -0.929870       -25.3030 
  17   2.0000      -0.915184       -24.9034 
  18   2.0000      -0.760315       -20.6892 
  19   2.0000      -0.737927       -20.0800 
  20   2.0000      -0.724885       -19.7251 
  21   2.0000      -0.708937       -19.2911 
  22   2.0000      -0.668979       -18.2039 
  23   2.0000      -0.644146       -17.5281 
  24   2.0000      -0.554466       -15.0878 
  25   2.0000      -0.522588       -14.2203 
  26   2.0000      -0.511446       -13.9172 
  27   2.0000      -0.505744       -13.7620 
  28   2.0000      -0.490090       -13.3360 
  29   2.0000      -0.473117       -12.8742 
  30   2.0000      -0.465397       -12.6641 
  31   2.0000      -0.457410       -12.4468 
  32   2.0000      -0.430988       -11.7278 
  33   2.0000      -0.424950       -11.5635 
  34   2.0000      -0.419300       -11.4097 
  35   2.0000      -0.407425       -11.0866 
  36   2.0000      -0.405482       -11.0337 
  37   2.0000      -0.402487       -10.9522 
  38   2.0000      -0.394450       -10.7335 
  39   2.0000      -0.388134       -10.5617 
  40   2.0000      -0.375810       -10.2263 
  41   2.0000      -0.372673       -10.1409 
  42   2.0000      -0.371714       -10.1148 
  43   2.0000      -0.349834        -9.5195 
  44   2.0000      -0.340313        -9.2604 
  45   2.0000      -0.330149        -8.9838 
  46   2.0000      -0.274831        -7.4785 
  47   2.0000      -0.249459        -6.7881 
  48   2.0000      -0.240635        -6.5480 
  49   2.0000      -0.234664        -6.3855 
  50   2.0000      -0.229742        -6.2516 
  51   0.0000       0.028196         0.7673 
  52   0.0000       0.030089         0.8188 
  53   0.0000       0.073121         1.9897 
  54   0.0000       0.089260         2.4289 
  55   0.0000       0.108345         2.9482 
  56   0.0000       0.120232         3.2717 
  57   0.0000       0.125281         3.4091 
  58   0.0000       0.144105         3.9213 
  59   0.0000       0.145667         3.9638 
  60   0.0000       0.153942         4.1890 
  61   0.0000       0.164044         4.4639 
  62   0.0000       0.171224         4.6593 
  63   0.0000       0.175126         4.7654 
  64   0.0000       0.180767         4.9189 
  65   0.0000       0.184739         5.0270 
  66   0.0000       0.186846         5.0843 
  67   0.0000       0.190722         5.1898 
  68   0.0000       0.203888         5.5481 
  69   0.0000       0.212324         5.7776 
  70   0.0000       0.221270         6.0211 
  71   0.0000       0.223710         6.0875 
  72   0.0000       0.228513         6.2182 
  73   0.0000       0.248507         6.7622 
  74   0.0000       0.267403         7.2764 
  75   0.0000       0.277481         7.5506 
  76   0.0000       0.299708         8.1555 
  77   0.0000       0.340891         9.2761 
  78   0.0000       0.366077         9.9615 
  79   0.0000       0.404573        11.0090 
  80   0.0000       0.412074        11.2131 
  81   0.0000       0.484216        13.1762 
  82   0.0000       0.500198        13.6111 
  83   0.0000       0.503133        13.6909 
  84   0.0000       0.516711        14.0604 
  85   0.0000       0.531741        14.4694 
  86   0.0000       0.544096        14.8056 
  87   0.0000       0.548952        14.9378 
  88   0.0000       0.570869        15.5341 
  89   0.0000       0.574010        15.6196 
  90   0.0000       0.591872        16.1057 
  91   0.0000       0.598429        16.2841 
  92   0.0000       0.621692        16.9171 
  93   0.0000       0.638338        17.3701 
  94   0.0000       0.649046        17.6615 
  95   0.0000       0.664109        18.0713 
  96   0.0000       0.683252        18.5922 
  97   0.0000       0.695182        18.9169 
  98   0.0000       0.699060        19.0224 
  99   0.0000       0.720233        19.5985 
 100   0.0000       0.740481        20.1495 
 101   0.0000       0.757061        20.6007 
 102   0.0000       0.762450        20.7473 
 103   0.0000       0.777250        21.1500 
 104   0.0000       0.802038        21.8246 
 105   0.0000       0.812873        22.1194 
 106   0.0000       0.820720        22.3329 
 107   0.0000       0.829213        22.5640 
 108   0.0000       0.842616        22.9287 
 109   0.0000       0.851358        23.1666 
 110   0.0000       0.865812        23.5599 
 111   0.0000       0.878164        23.8961 
 112   0.0000       0.885772        24.1031 
 113   0.0000       0.889913        24.2158 
 114   0.0000       0.894680        24.3455 
 115   0.0000       0.905674        24.6446 
 116   0.0000       0.914933        24.8966 
 117   0.0000       0.918970        25.0064 
 118   0.0000       0.938982        25.5510 
 119   0.0000       0.946615        25.7587 
 120   0.0000       0.952777        25.9264 
 121   0.0000       0.955913        26.0117 
 122   0.0000       0.965490        26.2723 
 123   0.0000       0.970840        26.4179 
 124   0.0000       1.004205        27.3258 
 125   0.0000       1.012892        27.5622 
 126   0.0000       1.013744        27.5854 
 127   0.0000       1.047209        28.4960 
 128   0.0000       1.056306        28.7435 
 129   0.0000       1.065628        28.9972 
 130   0.0000       1.074181        29.2300 
 131   0.0000       1.121183        30.5089 
 132   0.0000       1.131236        30.7825 
 133   0.0000       1.150028        31.2939 
 134   0.0000       1.170881        31.8613 
 135   0.0000       1.202586        32.7240 
 136   0.0000       1.208102        32.8741 
 137   0.0000       1.253312        34.1044 
 138   0.0000       1.315654        35.8008 
 139   0.0000       1.331116        36.2215 
 140   0.0000       1.347713        36.6731 
 141   0.0000       1.359137        36.9840 
 142   0.0000       1.380792        37.5733 
 143   0.0000       1.390543        37.8386 
 144   0.0000       1.415673        38.5224 
 145   0.0000       1.451111        39.4867 
 146   0.0000       1.467903        39.9437 
 147   0.0000       1.495984        40.7078 
 148   0.0000       1.544068        42.0162 
 149   0.0000       1.547476        42.1090 
 150   0.0000       1.603310        43.6283 
 151   0.0000       1.677596        45.6497 
 152   0.0000       1.692310        46.0501 
 153   0.0000       1.717706        46.7411 
 154   0.0000       1.725537        46.9542 
 155   0.0000       1.764839        48.0237 
 156   0.0000       1.779821        48.4314 
 157   0.0000       1.791250        48.7424 
 158   0.0000       1.811511        49.2937 
 159   0.0000       1.825408        49.6719 
 160   0.0000       1.838279        50.0221 
 161   0.0000       1.844822        50.2002 
 162   0.0000       1.867532        50.8181 
 163   0.0000       1.871133        50.9161 
 164   0.0000       1.910813        51.9959 
 165   0.0000       1.921494        52.2865 
 166   0.0000       1.941118        52.8205 
 167   0.0000       1.944680        52.9174 
 168   0.0000       1.970874        53.6302 
 169   0.0000       1.981872        53.9295 
 170   0.0000       1.985471        54.0274 
 171   0.0000       1.988208        54.1019 
 172   0.0000       2.021355        55.0039 
 173   0.0000       2.032400        55.3044 
 174   0.0000       2.049071        55.7581 
 175   0.0000       2.089207        56.8502 
 176   0.0000       2.101015        57.1715 
 177   0.0000       2.113348        57.5071 
 178   0.0000       2.123826        57.7922 
 179   0.0000       2.131483        58.0006 
 180   0.0000       2.159948        58.7752 
 181   0.0000       2.192686        59.6660 
 182   0.0000       2.217236        60.3340 
 183   0.0000       2.219954        60.4080 
 184   0.0000       2.232277        60.7433 
 185   0.0000       2.243966        61.0614 
 186   0.0000       2.267101        61.6910 
 187   0.0000       2.275286        61.9137 
 188   0.0000       2.317503        63.0625 
 189   0.0000       2.336041        63.5669 
 190   0.0000       2.345492        63.8241 
 191   0.0000       2.394542        65.1588 
 192   0.0000       2.410781        65.6007 
 193   0.0000       2.430038        66.1247 
 194   0.0000       2.461952        66.9931 
 195   0.0000       2.478858        67.4531 
 196   0.0000       2.511500        68.3414 
 197   0.0000       2.537630        69.0524 
 198   0.0000       2.548097        69.3372 
 199   0.0000       2.578630        70.1681 
 200   0.0000       2.618882        71.2634 
 201   0.0000       2.647482        72.0416 
 202   0.0000       2.657951        72.3265 
 203   0.0000       2.679104        72.9021 
 204   0.0000       2.729709        74.2791 
 205   0.0000       2.743975        74.6674 
 206   0.0000       2.763564        75.2004 
 207   0.0000       2.896860        78.8276 
 208   0.0000       2.949711        80.2657 
 209   0.0000       2.979202        81.0682 
 210   0.0000       3.035538        82.6012 
 211   0.0000       3.067392        83.4680 
 212   0.0000       3.177988        86.4775 
 213   0.0000       3.190849        86.8274 

                    ********************************
                    * MULLIKEN POPULATION ANALYSIS *
                    ********************************

-----------------------
MULLIKEN ATOMIC CHARGES
-----------------------
   0 C :   -0.552517
   1 H :    0.181634
   2 H :    0.178922
   3 H :    0.177232
   4 C :    0.544085
   5 O :   -0.485512
   6 N :   -0.367210
   7 C :   -0.275180
   8 H :    0.169015
   9 H :    0.196856
  10 C :    0.268758
  11 H :    0.127537
  12 C :   -0.496878
  13 H :    0.208613
  14 H :    0.157730
  15 C :    0.559714
  16 N :   -0.379383
  17 O :   -0.483420
  18 C :   -0.321617
  19 H :    0.160265
  20 H :    0.170545
  21 H :    0.174590
  22 C :   -0.321459
  23 H :    0.158479
  24 H :    0.201952
  25 H :    0.148147
  26 O :   -0.627694
  27 H :    0.396015
  28 H :    0.130778
Sum of atomic charges:   -0.0000000

--------------------------------
MULLIKEN REDUCED ORBITAL CHARGES
--------------------------------
  0 C s       :     3.312072  s :     3.312072
      pz      :     1.077027  p :     3.208158
      px      :     1.015914
      py      :     1.115217
      dz2     :     0.008427  d :     0.032286
      dxz     :     0.005882
      dyz     :     0.003586
      dx2y2   :     0.009105
      dxy     :     0.005286
  1 H s       :     0.818366  s :     0.818366
  2 H s       :     0.821078  s :     0.821078
  3 H s       :     0.822768  s :     0.822768
  4 C s       :     2.981779  s :     2.981779
      pz      :     0.786951  p :     2.366432
      px      :     0.824604
      py      :     0.754877
      dz2     :     0.012167  d :     0.107704
      dxz     :     0.013730
      dyz     :     0.020600
      dx2y2   :     0.037638
      dxy     :     0.023569
  5 O s       :     3.868719  s :     3.868719
      pz      :     1.513937  p :     4.590465
      px      :     1.550467
      py      :     1.526061
      dz2     :     0.002777  d :     0.026328
      dxz     :     0.004692
      dyz     :     0.004442
      dx2y2   :     0.006914
      dxy     :     0.007503
  6 N s       :     3.521037  s :     3.521037
      pz      :     1.493533  p :     3.811271
      px      :     1.166719
      py      :     1.151019
      dz2     :     0.004633  d :     0.034902
      dxz     :     0.005185
      dyz     :     0.006534
      dx2y2   :     0.009411
      dxy     :     0.009140
  7 C s       :     3.229444  s :     3.229444
      pz      :     1.023949  p :     2.992250
      px      :     0.847766
      py      :     1.120535
      dz2     :     0.007163  d :     0.053485
      dxz     :     0.014167
      dyz     :     0.010124
      dx2y2   :     0.014643
      dxy     :     0.007389
  8 H s       :     0.830985  s :     0.830985
  9 H s       :     0.803144  s :     0.803144
 10 C s       :     3.076759  s :     3.076759
      pz      :     0.897279  p :     2.568575
      px      :     0.779806
      py      :     0.891490
      dz2     :     0.015493  d :     0.085908
      dxz     :     0.021316
      dyz     :     0.013514
      dx2y2   :     0.012886
      dxy     :     0.022699
 11 H s       :     0.872463  s :     0.872463
 12 C s       :     3.306823  s :     3.306823
      pz      :     1.006267  p :     3.156867
      px      :     1.110775
      py      :     1.039825
      dz2     :     0.005590  d :     0.033189
      dxz     :     0.009266
      dyz     :     0.005648
      dx2y2   :     0.004903
      dxy     :     0.007781
 13 H s       :     0.791387  s :     0.791387
 14 H s       :     0.842270  s :     0.842270
 15 C s       :     2.974865  s :     2.974865
      pz      :     0.791121  p :     2.357894
      px      :     0.763210
      py      :     0.803564
      dz2     :     0.024367  d :     0.107527
      dxz     :     0.031151
      dyz     :     0.014984
      dx2y2   :     0.017431
      dxy     :     0.019594
 16 N s       :     3.536219  s :     3.536219
      pz      :     1.223969  p :     3.806061
      px      :     1.096747
      py      :     1.485345
      dz2     :     0.007356  d :     0.037103
      dxz     :     0.010250
      dyz     :     0.005601
      dx2y2   :     0.007435
      dxy     :     0.006462
 17 O s       :     3.875425  s :     3.875425
      pz      :     1.410549  p :     4.582062
      px      :     1.728623
      py      :     1.442890
      dz2     :     0.008235  d :     0.025933
      dxz     :     0.005621
      dyz     :     0.006938
      dx2y2   :     0.002745
      dxy     :     0.002393
 18 C s       :     3.258876  s :     3.258876
      pz      :     0.932866  p :     3.013721
      px      :     1.063866
      py      :     1.016989
      dz2     :     0.011642  d :     0.049020
      dxz     :     0.010091
      dyz     :     0.009175
      dx2y2   :     0.013587
      dxy     :     0.004525
 19 H s       :     0.839735  s :     0.839735
 20 H s       :     0.829455  s :     0.829455
 21 H s       :     0.825410  s :     0.825410
 22 C s       :     3.255512  s :     3.255512
      pz      :     0.963810  p :     3.017667
      px      :     0.966398
      py      :     1.087460
      dz2     :     0.005498  d :     0.048280
      dxz     :     0.014469
      dyz     :     0.011554
      dx2y2   :     0.005482
      dxy     :     0.011278
 23 H s       :     0.841521  s :     0.841521
 24 H s       :     0.798048  s :     0.798048
 25 H s       :     0.851853  s :     0.851853
 26 O s       :     3.890630  s :     3.890630
      pz      :     1.760756  p :     4.711049
      px      :     1.362453
      py      :     1.587840
      dz2     :     0.005187  d :     0.026015
      dxz     :     0.004617
      dyz     :     0.003464
      dx2y2   :     0.002747
      dxy     :     0.010001
 27 H s       :     0.603985  s :     0.603985
 28 H s       :     0.869222  s :     0.869222


                     *******************************
                     * LOEWDIN POPULATION ANALYSIS *
                     *******************************

----------------------
LOEWDIN ATOMIC CHARGES
----------------------
   0 C :   -0.396401
   1 H :    0.144196
   2 H :    0.151530
   3 H :    0.148711
   4 C :    0.132242
   5 O :   -0.287714
   6 N :   -0.063772
   7 C :   -0.188646
   8 H :    0.139643
   9 H :    0.155888
  10 C :    0.042583
  11 H :    0.115019
  12 C :   -0.394485
  13 H :    0.160072
  14 H :    0.132839
  15 C :    0.110528
  16 N :   -0.090516
  17 O :   -0.289171
  18 C :   -0.274796
  19 H :    0.132976
  20 H :    0.135516
  21 H :    0.130909
  22 C :   -0.276968
  23 H :    0.125288
  24 H :    0.156339
  25 H :    0.123237
  26 O :   -0.407850
  27 H :    0.311221
  28 H :    0.121581

-------------------------------
LOEWDIN REDUCED ORBITAL CHARGES
-------------------------------
  0 C s       :     2.981688  s :     2.981688
      pz      :     1.126984  p :     3.351092
      px      :     1.076133
      py      :     1.147975
      dz2     :     0.016004  d :     0.063621
      dxz     :     0.012332
      dyz     :     0.006044
      dx2y2   :     0.018820
      dxy     :     0.010420
  1 H s       :     0.855804  s :     0.855804
  2 H s       :     0.848470  s :     0.848470
  3 H s       :     0.851289  s :     0.851289
  4 C s       :     2.848809  s :     2.848809
      pz      :     0.840354  p :     2.766377
      px      :     1.003308
      py      :     0.922715
      dz2     :     0.026683  d :     0.252572
      dxz     :     0.028483
      dyz     :     0.049265
      dx2y2   :     0.092173
      dxy     :     0.055969
  5 O s       :     3.568088  s :     3.568088
      pz      :     1.505707  p :     4.666752
      px      :     1.601443
      py      :     1.559602
      dz2     :     0.006776  d :     0.052874
      dxz     :     0.007216
      dyz     :     0.006953
      dx2y2   :     0.012319
      dxy     :     0.019609
  6 N s       :     3.090994  s :     3.090994
      pz      :     1.469432  p :     3.880532
      px      :     1.202442
      py      :     1.208659
      dz2     :     0.010526  d :     0.092245
      dxz     :     0.012477
      dyz     :     0.017166
      dx2y2   :     0.027020
      dxy     :     0.025055
  7 C s       :     2.927405  s :     2.927405
      pz      :     1.071728  p :     3.147978
      px      :     0.943127
      py      :     1.133122
      dz2     :     0.014326  d :     0.113264
      dxz     :     0.033459
      dyz     :     0.019585
      dx2y2   :     0.030959
      dxy     :     0.014935
  8 H s       :     0.860357  s :     0.860357
  9 H s       :     0.844112  s :     0.844112
 10 C s       :     2.876332  s :     2.876332
      pz      :     1.010086  p :     2.890861
      px      :     0.906941
      py      :     0.973834
      dz2     :     0.034447  d :     0.190225
      dxz     :     0.047199
      dyz     :     0.029211
      dx2y2   :     0.028194
      dxy     :     0.051174
 11 H s       :     0.884981  s :     0.884981
 12 C s       :     2.985666  s :     2.985666
      pz      :     1.086162  p :     3.342997
      px      :     1.149190
      py      :     1.107645
      dz2     :     0.012677  d :     0.065823
      dxz     :     0.018165
      dyz     :     0.011929
      dx2y2   :     0.008782
      dxy     :     0.014269
 13 H s       :     0.839928  s :     0.839928
 14 H s       :     0.867161  s :     0.867161
 15 C s       :     2.851958  s :     2.851958
      pz      :     0.967233  p :     2.781986
      px      :     0.961154
      py      :     0.853600
      dz2     :     0.056906  d :     0.255528
      dxz     :     0.078111
      dyz     :     0.034192
      dx2y2   :     0.041248
      dxy     :     0.045070
 16 N s       :     3.092734  s :     3.092734
      pz      :     1.260738  p :     3.901187
      px      :     1.168647
      py      :     1.471802
      dz2     :     0.019133  d :     0.096594
      dxz     :     0.028609
      dyz     :     0.012695
      dx2y2   :     0.020691
      dxy     :     0.015467
 17 O s       :     3.564985  s :     3.564985
      pz      :     1.481526  p :     4.671170
      px      :     1.732515
      py      :     1.457130
      dz2     :     0.016120  d :     0.053016
      dxz     :     0.012113
      dyz     :     0.015383
      dx2y2   :     0.004545
      dxy     :     0.004855
 18 C s       :     2.961507  s :     2.961507
      pz      :     1.020071  p :     3.215839
      px      :     1.113693
      py      :     1.082075
      dz2     :     0.023708  d :     0.097450
      dxz     :     0.019847
      dyz     :     0.018522
      dx2y2   :     0.026984
      dxy     :     0.008390
 19 H s       :     0.867024  s :     0.867024
 20 H s       :     0.864484  s :     0.864484
 21 H s       :     0.869091  s :     0.869091
 22 C s       :     2.962458  s :     2.962458
      pz      :     1.042558  p :     3.218591
      px      :     1.040704
      py      :     1.135329
      dz2     :     0.011339  d :     0.095920
      dxz     :     0.029641
      dyz     :     0.022660
      dx2y2   :     0.009976
      dxy     :     0.022303
 23 H s       :     0.874712  s :     0.874712
 24 H s       :     0.843661  s :     0.843661
 25 H s       :     0.876763  s :     0.876763
 26 O s       :     3.577347  s :     3.577347
      pz      :     1.762951  p :     4.782614
      px      :     1.406695
      py      :     1.612968
      dz2     :     0.008969  d :     0.047890
      dxz     :     0.010545
      dyz     :     0.004564
      dx2y2   :     0.005868
      dxy     :     0.017944
 27 H s       :     0.688779  s :     0.688779
 28 H s       :     0.878419  s :     0.878419


                      *****************************
                      * MAYER POPULATION ANALYSIS *
                      *****************************

  NA   - Mulliken gross atomic population
  ZA   - Total nuclear charge
  QA   - Mulliken gross atomic charge
  VA   - Mayer's total valence
  BVA  - Mayer's bonded valence
  FA   - Mayer's free valence

  ATOM       NA         ZA         QA         VA         BVA        FA
  0 C      6.5525     6.0000    -0.5525     3.7878     3.7878    -0.0000
  1 H      0.8184     1.0000     0.1816     0.9471     0.9471     0.0000
  2 H      0.8211     1.0000     0.1789     0.9373     0.9373     0.0000
  3 H      0.8228     1.0000     0.1772     0.9288     0.9288    -0.0000
  4 C      5.4559     6.0000     0.5441     3.9533     3.9533     0.0000
  5 O      8.4855     8.0000    -0.4855     2.0477     2.0477     0.0000
  6 N      7.3672     7.0000    -0.3672     3.1226     3.1226    -0.0000
  7 C      6.2752     6.0000    -0.2752     3.8070     3.8070     0.0000
  8 H      0.8310     1.0000     0.1690     0.9273     0.9273    -0.0000
  9 H      0.8031     1.0000     0.1969     0.9415     0.9415    -0.0000
 10 C      5.7312     6.0000     0.2688     3.8935     3.8935    -0.0000
 11 H      0.8725     1.0000     0.1275     0.9335     0.9335    -0.0000
 12 C      6.4969     6.0000    -0.4969     3.7985     3.7985     0.0000
 13 H      0.7914     1.0000     0.2086     0.9442     0.9442     0.0000
 14 H      0.8423     1.0000     0.1577     0.9412     0.9412    -0.0000
 15 C      5.4403     6.0000     0.5597     3.8762     3.8762    -0.0000
 16 N      7.3794     7.0000    -0.3794     3.1105     3.1105    -0.0000
 17 O      8.4834     8.0000    -0.4834     2.0705     2.0705     0.0000
 18 C      6.3216     6.0000    -0.3216     3.8096     3.8096    -0.0000
 19 H      0.8397     1.0000     0.1603     0.9325     0.9325     0.0000
 20 H      0.8295     1.0000     0.1705     0.9302     0.9302    -0.0000
 21 H      0.8254     1.0000     0.1746     0.9206     0.9206     0.0000
 22 C      6.3215     6.0000    -0.3215     3.7921     3.7921    -0.0000
 23 H      0.8415     1.0000     0.1585     0.9269     0.9269     0.0000
 24 H      0.7980     1.0000     0.2020     0.9462     0.9462    -0.0000
 25 H      0.8519     1.0000     0.1481     0.9318     0.9318    -0.0000
 26 O      8.6277     8.0000    -0.6277     1.7883     1.7883    -0.0000
 27 H      0.6040     1.0000     0.3960     0.8107     0.8107     0.0000
 28 H      0.8692     1.0000     0.1308     0.9379     0.9379    -0.0000

  Mayer bond orders larger than 0.100000
B(  0-C ,  1-H ) :   0.9094 B(  0-C ,  2-H ) :   0.9377 B(  0-C ,  3-H ) :   0.9285 
B(  0-C ,  4-C ) :   0.9909 B(  4-C ,  5-O ) :   1.8223 B(  4-C ,  6-N ) :   1.1022 
B(  6-N ,  7-C ) :   0.9962 B(  6-N , 10-C ) :   0.9667 B(  7-C ,  8-H ) :   0.9151 
B(  7-C ,  9-H ) :   0.8984 B(  7-C , 15-C ) :   0.9062 B( 10-C , 11-H ) :   0.9239 
B( 10-C , 12-C ) :   1.0051 B( 10-C , 26-O ) :   0.9347 B( 12-C , 13-H ) :   0.9082 
B( 12-C , 14-H ) :   0.9356 B( 12-C , 28-H ) :   0.9409 B( 15-C , 16-N ) :   1.1333 
B( 15-C , 17-O ) :   1.8145 B( 16-N , 18-C ) :   0.9633 B( 16-N , 22-C ) :   0.9567 
B( 18-C , 19-H ) :   0.9413 B( 18-C , 20-H ) :   0.9363 B( 18-C , 21-H ) :   0.9288 
B( 22-C , 23-H ) :   0.9398 B( 22-C , 24-H ) :   0.9208 B( 22-C , 25-H ) :   0.9425 
B( 26-O , 27-H ) :   0.7806 

-------
TIMINGS
-------

[...]
                 84         85         86    
      0       0.040367  -0.000018  -0.000020
      1      -0.069249   0.000031  -0.000029
      2       0.045308  -0.000025   0.000022
      3      -0.583995   0.000264   0.000285
      4       0.435681  -0.000197   0.001108
      5      -0.442572   0.000201  -0.000523
      6       0.095782  -0.000064   0.000214
      7       0.458093  -0.000257  -0.000339
      8       0.021781  -0.000013   0.000158
      9       0.008400  -0.000020   0.000156
     10      -0.053417   0.000046  -0.000015
     11      -0.129630   0.000134   0.000036
     12       0.000045  -0.000005  -0.000074
     13      -0.001714   0.000025  -0.000174
     14       0.000796  -0.000009   0.000095
     15      -0.000236   0.000005   0.000003
     16       0.000577  -0.000009   0.000042
     17       0.000029   0.000008  -0.000005
     18       0.000167  -0.000009  -0.000061
     19       0.000333   0.000008  -0.000234
     20      -0.000333   0.000018  -0.000150
     21       0.000245   0.000004   0.000063
     22      -0.000787  -0.000286   0.000003
     23      -0.000168   0.000052  -0.000156
     24      -0.000019   0.000143  -0.000124
     25       0.001311   0.001056  -0.000311
     26      -0.001431  -0.001367   0.000646
     27      -0.002711  -0.000488   0.000072
     28       0.008460   0.001660  -0.000054
     29       0.003179   0.000367   0.000016
     30       0.000547  -0.000014  -0.000062
     31       0.000711  -0.000027   0.002142
     32      -0.000480   0.000011   0.001510
     33      -0.003819   0.000121   0.003942
     34      -0.004680   0.000156   0.003153
     35       0.004986  -0.000144   0.000383
     36       0.013155   0.000011   0.000539
     37       0.006806  -0.000009  -0.000143
     38       0.000067   0.000010   0.000097
     39      -0.092906  -0.000164   0.000003
     40      -0.016231   0.000002   0.000919
     41      -0.060067  -0.000034   0.002357
     42      -0.069068   0.000066  -0.000679
     43      -0.066760   0.000052  -0.000768
     44       0.058626  -0.000046  -0.000177
     45      -0.000015   0.000062  -0.000078
     46      -0.000051  -0.000404   0.000043
     47      -0.000046  -0.000878   0.000057
     48      -0.000012   0.000123   0.000022
     49       0.000006  -0.000221  -0.000011
     50       0.000005  -0.000292  -0.000020
     51       0.000055   0.000700   0.000021
     52       0.000005   0.000169  -0.000033
     53       0.000035   0.000452  -0.000023
     54      -0.000141  -0.000056  -0.000001
     55      -0.000010   0.000539   0.000006
     56      -0.000121  -0.000292   0.000006
     57       0.000728  -0.002490   0.000030
     58       0.000272  -0.000212   0.000004
     59      -0.000153   0.001878  -0.000012
     60       0.001096   0.004074  -0.000020
     61      -0.000237  -0.001042   0.000008
     62       0.001592   0.007199  -0.000017
     63      -0.000088  -0.000189   0.000009
     64       0.000118  -0.002144  -0.000062
     65      -0.000016   0.000855   0.000003
     66       0.000025   0.052100  -0.000008
     67      -0.000034  -0.046810   0.000001
     68      -0.000015  -0.055847  -0.000002
     69      -0.000107  -0.042035   0.000021
     70       0.000202   0.118059  -0.000041
     71      -0.000116  -0.072175   0.000026
     72      -0.000179  -0.444591  -0.000034
     73       0.000228   0.552963   0.000010
     74       0.000285   0.652743   0.000002
     75      -0.000023  -0.147895   0.000017
     76      -0.000012  -0.110547   0.000015
     77       0.000011   0.085867  -0.000020
     78      -0.000010  -0.000003  -0.043652
     79      -0.000567   0.000003   0.043333
     80       0.000409  -0.000001   0.008513
     81      -0.000567  -0.000010   0.683901
     82      -0.000450   0.000001  -0.710423
     83       0.000220  -0.000010  -0.153877
     84       0.002210  -0.000048   0.000967
     85      -0.001035   0.000104   0.000237
     86       0.000086   0.000001  -0.000705


-----------
IR SPECTRUM
-----------

 Mode   freq       eps      Int      T**2         TX        TY        TZ
       cm**-1   L/(mol*cm) km/mol    a.u.
----------------------------------------------------------------------------
  7:     31.49   0.000376    1.90  0.003731  ( 0.010823 -0.044790  0.040098)
  8:     78.79   0.000901    4.55  0.003569  (-0.026876 -0.025923 -0.046631)
  9:     93.06   0.000161    0.81  0.000540  (-0.004869  0.016053 -0.016066)
 10:     99.09   0.000042    0.21  0.000131  (-0.011370  0.001095  0.000630)
 11:    117.24   0.000629    3.18  0.001675  (-0.035230  0.020839 -0.000231)
 12:    122.73   0.001057    5.34  0.002688  (-0.042447 -0.000957 -0.029756)
 13:    135.34   0.000160    0.81  0.000368  (-0.016519 -0.006544 -0.007246)
 14:    188.13   0.001388    7.02  0.002303  (-0.017039 -0.022421  0.038861)
 15:    214.92   0.000500    2.53  0.000726  (-0.018832 -0.016050  0.010649)
 16:    225.19   0.000109    0.55  0.000152  (-0.008189 -0.008229 -0.004092)
 17:    240.96   0.009901   50.03  0.012822  (-0.022374 -0.061836  0.092184)
 18:    255.53   0.009601   48.52  0.011725  ( 0.046209  0.047332 -0.085727)
 19:    274.47   0.000491    2.48  0.000558  ( 0.004015 -0.013261  0.019143)
 20:    295.83   0.000088    0.45  0.000093  ( 0.003351 -0.009057 -0.000110)
 21:    356.18   0.001715    8.67  0.001503  ( 0.033602  0.019319 -0.000761)
 22:    384.29   0.001205    6.09  0.000978  ( 0.014313 -0.020890  0.018358)
 23:    402.85   0.001739    8.79  0.001347  ( 0.033993  0.013096  0.004519)
 24:    450.08   0.000646    3.26  0.000448  (-0.016983 -0.011440  0.005330)
 25:    453.93   0.000800    4.04  0.000550  ( 0.014643  0.015076  0.010414)
 26:    497.08   0.003837   19.39  0.002409  ( 0.039717  0.010119 -0.027000)
 27:    537.16   0.002562   12.95  0.001488  (-0.017204 -0.026464  0.022180)
 28:    571.97   0.001123    5.68  0.000613  ( 0.023775  0.002544 -0.006405)
 29:    614.98   0.000635    3.21  0.000322  (-0.001225  0.014623  0.010347)
 30:    630.82   0.004050   20.47  0.002004  (-0.039961  0.005816 -0.019315)
 31:    690.32   0.004895   24.74  0.002213  ( 0.044621 -0.013871  0.005432)
 32:    735.03   0.000161    0.82  0.000068  (-0.007436 -0.002235 -0.002864)
 33:    829.41   0.002026   10.24  0.000762  ( 0.014015 -0.016846 -0.016796)
 34:    901.17   0.002352   11.88  0.000814  (-0.022815 -0.003815 -0.016710)
 35:    956.40   0.006349   32.08  0.002072  (-0.019368  0.020773 -0.035566)
 36:    982.26   0.001032    5.21  0.000328  (-0.011955 -0.009371  0.009852)
 37:   1022.59   0.002169   10.96  0.000662  ( 0.017904 -0.015454  0.010128)
 38:   1036.13   0.003359   16.97  0.001012  ( 0.009954 -0.029765  0.005157)
 39:   1077.11   0.001130    5.71  0.000327  ( 0.005023 -0.000989  0.017355)
 40:   1090.96   0.001902    9.61  0.000544  (-0.006639  0.016828  0.014728)
 41:   1094.09   0.000349    1.76  0.000100  ( 0.004029 -0.000825 -0.009090)
 42:   1135.09   0.000444    2.24  0.000122  (-0.006623  0.006636  0.005847)
 43:   1137.47   0.025447  128.60  0.006981  (-0.067462  0.010142 -0.048243)
 44:   1161.11   0.019740   99.76  0.005305  (-0.071465  0.011833 -0.007626)
 45:   1170.62   0.018875   95.38  0.005032  (-0.070359  0.004674  0.007703)
 46:   1183.50   0.003602   18.20  0.000950  ( 0.027723 -0.004334  0.012744)
 47:   1222.60   0.006377   32.23  0.001628  (-0.024274  0.026664 -0.018095)
 48:   1299.19   0.005698   28.80  0.001369  ( 0.034077  0.010127  0.010239)
 49:   1305.37   0.010377   52.44  0.002481  (-0.021449 -0.012152 -0.043279)
 50:   1319.99   0.030769  155.49  0.007274  ( 0.058199  0.056103 -0.027193)
 51:   1378.17   0.007514   37.97  0.001701  (-0.038113 -0.001295 -0.015718)
 52:   1386.99   0.011710   59.18  0.002635  ( 0.026449 -0.042239 -0.012289)
 53:   1405.25   0.010003   50.55  0.002221  (-0.027300 -0.038343  0.002411)
 54:   1422.48   0.017624   89.06  0.003866  ( 0.033659  0.044060 -0.028145)
 55:   1431.42   0.013019   65.79  0.002838  (-0.009984  0.050217  0.014730)
 56:   1449.67   0.006524   32.97  0.001404  ( 0.033982 -0.014784 -0.005572)
 57:   1458.41   0.007476   37.78  0.001600  ( 0.036234  0.001566  0.016865)
 58:   1472.40   0.005135   25.95  0.001088  ( 0.028226 -0.017020  0.001367)
 59:   1497.96   0.003523   17.81  0.000734  (-0.017733 -0.015469 -0.013425)
 60:   1503.24   0.003984   20.13  0.000827  ( 0.015416  0.006736 -0.023323)
 61:   1512.55   0.008552   43.22  0.001764  ( 0.028082  0.015403 -0.027178)
 62:   1523.75   0.002423   12.25  0.000496  (-0.011313 -0.018468 -0.005215)
 63:   1525.73   0.000675    3.41  0.000138  ( 0.009570 -0.005780 -0.003621)
 64:   1528.45   0.002083   10.53  0.000425  (-0.014068 -0.002201 -0.014920)
 65:   1531.68   0.004263   21.54  0.000869  ( 0.018523  0.015786 -0.016621)
 66:   1535.21   0.002182   11.03  0.000444  ( 0.016306 -0.008489 -0.010274)
 67:   1545.43   0.003711   18.75  0.000749  (-0.017723 -0.013252  0.016113)
 68:   1559.24   0.009710   49.07  0.001943  ( 0.043620 -0.004113 -0.004877)
 69:   1758.00   0.070104  354.28  0.012444  ( 0.069189 -0.087383 -0.004608)
 70:   1766.05   0.035603  179.92  0.006291  ( 0.051415 -0.014211 -0.058699)
 71:   3026.65   0.006486   32.78  0.000669  ( 0.019104  0.007977 -0.015497)
 72:   3026.86   0.007821   39.52  0.000806  (-0.014413 -0.019668 -0.014552)
 73:   3033.41   0.013708   69.28  0.001410  ( 0.032500 -0.018340  0.004198)
 74:   3049.97   0.007447   37.64  0.000762  (-0.016959  0.021663  0.002255)
 75:   3066.87   0.004329   21.88  0.000440  (-0.012215 -0.005281  0.016229)
 76:   3067.39   0.001961    9.91  0.000200  (-0.007419 -0.009344  0.007562)
 77:   3084.21   0.007854   39.69  0.000795  (-0.013689 -0.021032  0.012842)
 78:   3103.34   0.005137   25.96  0.000517  ( 0.015499  0.010658 -0.012760)
 79:   3134.99   0.005312   26.85  0.000529  (-0.008870 -0.019435  0.008508)
 80:   3140.54   0.001097    5.54  0.000109  ( 0.003618  0.005666  0.007990)
 81:   3147.01   0.003839   19.40  0.000381  ( 0.017325 -0.003838  0.008114)
 82:   3161.76   0.001040    5.25  0.000103  ( 0.000955  0.001925  0.009900)
 83:   3178.53   0.000660    3.34  0.000065  ( 0.002494  0.005886 -0.004894)
 84:   3184.95   0.000497    2.51  0.000049  ( 0.005887 -0.003742  0.000033)
 85:   3190.77   0.000265    1.34  0.000026  (-0.001491 -0.002489 -0.004181)
 86:   3738.24   0.002730   13.79  0.000228  ( 0.013306 -0.006923  0.001698)

* The epsilon (eps) is given for a Dirac delta lineshape.
** The dipole moment derivative (T) already includes vibrational overlap.

The first frequency considered to be a vibration is 7
The total number of vibrations considered is 80


--------------------------
THERMOCHEMISTRY AT 298.15K
--------------------------

Temperature         ... 298.15 K
Pressure            ... 1.00 atm
Total Mass          ... 188.23 AMU

Throughout the following assumptions are being made:
  (1) The electronic state is orbitally nondegenerate
  (2) There are no thermally accessible electronically excited states
  (3) Hindered rotations indicated by low frequency modes are not
      treated as such but are treated as vibrations and this may
      cause some error
  (4) All equations used are the standard statistical mechanics
      equations for an ideal gas
  (5) All vibrations are strictly harmonic

freq.      31.49  E(vib)   ...       0.55 
freq.      78.79  E(vib)   ...       0.49 
freq.      93.06  E(vib)   ...       0.47 
freq.      99.09  E(vib)   ...       0.46 
freq.     117.24  E(vib)   ...       0.44 
freq.     122.73  E(vib)   ...       0.43 
freq.     135.34  E(vib)   ...       0.42 
freq.     188.13  E(vib)   ...       0.36 
freq.     214.92  E(vib)   ...       0.34 
freq.     225.19  E(vib)   ...       0.33 
freq.     240.96  E(vib)   ...       0.31 
freq.     255.53  E(vib)   ...       0.30 
freq.     274.47  E(vib)   ...       0.28 
freq.     295.83  E(vib)   ...       0.27 
freq.     356.18  E(vib)   ...       0.22 
freq.     384.29  E(vib)   ...       0.20 
freq.     402.85  E(vib)   ...       0.19 
freq.     450.08  E(vib)   ...       0.17 
freq.     453.93  E(vib)   ...       0.16 
freq.     497.08  E(vib)   ...       0.14 
freq.     537.16  E(vib)   ...       0.12 
freq.     571.97  E(vib)   ...       0.11 
freq.     614.98  E(vib)   ...       0.10 
freq.     630.82  E(vib)   ...       0.09 
freq.     690.32  E(vib)   ...       0.07 
freq.     735.03  E(vib)   ...       0.06 
freq.     829.41  E(vib)   ...       0.04 
freq.     901.17  E(vib)   ...       0.03 
freq.     956.40  E(vib)   ...       0.03 
freq.     982.26  E(vib)   ...       0.02 
freq.    1022.59  E(vib)   ...       0.02 
freq.    1036.13  E(vib)   ...       0.02 
freq.    1077.11  E(vib)   ...       0.02 
freq.    1090.96  E(vib)   ...       0.02 
freq.    1094.09  E(vib)   ...       0.02 
freq.    1135.09  E(vib)   ...       0.01 
freq.    1137.47  E(vib)   ...       0.01 
freq.    1161.11  E(vib)   ...       0.01 
freq.    1170.62  E(vib)   ...       0.01 
freq.    1183.50  E(vib)   ...       0.01 
freq.    1222.60  E(vib)   ...       0.01 
freq.    1299.19  E(vib)   ...       0.01 
freq.    1305.37  E(vib)   ...       0.01 
freq.    1319.99  E(vib)   ...       0.01 
freq.    1378.17  E(vib)   ...       0.01 
freq.    1386.99  E(vib)   ...       0.00 
freq.    1405.25  E(vib)   ...       0.00 
freq.    1422.48  E(vib)   ...       0.00 
freq.    1431.42  E(vib)   ...       0.00 
freq.    1449.67  E(vib)   ...       0.00 
freq.    1458.41  E(vib)   ...       0.00 
freq.    1472.40  E(vib)   ...       0.00 
freq.    1497.96  E(vib)   ...       0.00 
freq.    1503.24  E(vib)   ...       0.00 
freq.    1512.55  E(vib)   ...       0.00 
freq.    1523.75  E(vib)   ...       0.00 
freq.    1525.73  E(vib)   ...       0.00 
freq.    1528.45  E(vib)   ...       0.00 
freq.    1531.68  E(vib)   ...       0.00 
freq.    1535.21  E(vib)   ...       0.00 
freq.    1545.43  E(vib)   ...       0.00 
freq.    1559.24  E(vib)   ...       0.00 
freq.    1758.00  E(vib)   ...       0.00 
freq.    1766.05  E(vib)   ...       0.00 
freq.    3026.65  E(vib)   ...       0.00 
freq.    3026.86  E(vib)   ...       0.00 
freq.    3033.41  E(vib)   ...       0.00 
freq.    3049.97  E(vib)   ...       0.00 
freq.    3066.87  E(vib)   ...       0.00 
freq.    3067.39  E(vib)   ...       0.00 
freq.    3084.21  E(vib)   ...       0.00 
freq.    3103.34  E(vib)   ...       0.00 
freq.    3134.99  E(vib)   ...       0.00 
freq.    3140.54  E(vib)   ...       0.00 
freq.    3147.01  E(vib)   ...       0.00 
freq.    3161.76  E(vib)   ...       0.00 
freq.    3178.53  E(vib)   ...       0.00 
freq.    3184.95  E(vib)   ...       0.00 
freq.    3190.77  E(vib)   ...       0.00 
freq.    3738.24  E(vib)   ...       0.00 

------------
INNER ENERGY
------------

The inner energy is: U= E(el) + E(ZPE) + E(vib) + E(rot) + E(trans)
    E(el)   - is the total energy from the electronic structure calculation
              = E(kin-el) + E(nuc-el) + E(el-el) + E(nuc-nuc)
    E(ZPE)  - the the zero temperature vibrational energy from the frequency calculation
    E(vib)  - the the finite temperature correction to E(ZPE) due to population
              of excited vibrational states
    E(rot)  - is the rotational thermal energy
    E(trans)- is the translational thermal energy

Summary of contributions to the inner energy U:
Electronic energy                ...   -649.32691268 Eh
Zero point energy                ...      0.24866216 Eh     156.04 kcal/mol
Thermal vibrational correction   ...      0.01191727 Eh       7.48 kcal/mol
Thermal rotational correction    ...      0.00141627 Eh       0.89 kcal/mol
Thermal translational correction ...      0.00141627 Eh       0.89 kcal/mol
-----------------------------------------------------------------------
Total thermal energy                   -649.06350070 Eh


Summary of corrections to the electronic energy:
(perhaps to be used in another calculation)
Total thermal correction                  0.01474981 Eh       9.26 kcal/mol
Non-thermal (ZPE) correction              0.24866216 Eh     156.04 kcal/mol
-----------------------------------------------------------------------
Total correction                          0.26341198 Eh     165.29 kcal/mol


--------
ENTHALPY
--------

The enthalpy is H = U + kB*T
                kB is Boltzmann's constant
Total free energy                 ...   -649.06350070 Eh 
Thermal Enthalpy correction       ...      0.00094421 Eh       0.59 kcal/mol
-----------------------------------------------------------------------
Total Enthalpy                    ...   -649.06255649 Eh


Note: Only C1 symmetry has been detected, increase convergence thresholds 
      if your molecule has a higher symmetry. Symmetry factor of 1.0 is   
      used for the rotational entropy correction. 
 

Note: Rotational entropy computed according to Herzberg 
Infrared and Raman Spectra, Chapter V,1, Van Nostrand Reinhold, 1945 
Point Group:  C1, Symmetry Number:   1  
Rotational constants in cm-1:     0.044284     0.015862     0.014448 

Vibrational entropy computed according to the QRRHO of S. Grimme
Chem.Eur.J. 2012 18 9955


-------
ENTROPY
-------

The entropy contributions are T*S = T*(S(el)+S(vib)+S(rot)+S(trans))
     S(el)   - electronic entropy
     S(vib)  - vibrational entropy
     S(rot)  - rotational entropy
     S(trans)- translational entropy
The entropies will be listed as multiplied by the temperature to get
units of energy

Electronic entropy                ...      0.00000000 Eh      0.00 kcal/mol
Vibrational entropy               ...      0.02113715 Eh     13.26 kcal/mol
Rotational entropy                ...      0.01493896 Eh      9.37 kcal/mol
Translational entropy             ...      0.01976700 Eh     12.40 kcal/mol
-----------------------------------------------------------------------
Final entropy term                ...      0.05584311 Eh     35.04 kcal/mol

In case the symmetry of your molecule has not been determined correctly
or in case you have a reason to use a different symmetry number we print 
out the resulting rotational entropy values for sn=1,12 :
 --------------------------------------------------------
|  sn= 1 | S(rot)=       0.01493896 Eh      9.37 kcal/mol|
|  sn= 2 | S(rot)=       0.01428451 Eh      8.96 kcal/mol|
|  sn= 3 | S(rot)=       0.01390167 Eh      8.72 kcal/mol|
|  sn= 4 | S(rot)=       0.01363005 Eh      8.55 kcal/mol|
|  sn= 5 | S(rot)=       0.01341936 Eh      8.42 kcal/mol|
|  sn= 6 | S(rot)=       0.01324722 Eh      8.31 kcal/mol|
|  sn= 7 | S(rot)=       0.01310167 Eh      8.22 kcal/mol|
|  sn= 8 | S(rot)=       0.01297559 Eh      8.14 kcal/mol|
|  sn= 9 | S(rot)=       0.01286438 Eh      8.07 kcal/mol|
|  sn=10 | S(rot)=       0.01276491 Eh      8.01 kcal/mol|
|  sn=11 | S(rot)=       0.01267492 Eh      7.95 kcal/mol|
|  sn=12 | S(rot)=       0.01259276 Eh      7.90 kcal/mol|
 --------------------------------------------------------


-------------------
GIBBS FREE ENERGY
-------------------

The Gibbs free energy is G = H - T*S

Total enthalpy                    ...   -649.06255649 Eh 
Total entropy correction          ...     -0.05584311 Eh    -35.04 kcal/mol
-----------------------------------------------------------------------
Final Gibbs free energy         ...   -649.11839961 Eh

For completeness - the Gibbs free energy minus the electronic energy
G-E(el)                           ...      0.20851307 Eh    130.84 kcal/mol


Timings for individual modules:

Sum of individual times         ...      900.393 sec (=  15.007 min)
GTO integral calculation        ...       11.736 sec (=   0.196 min)   1.3 %
SCF iterations                  ...      398.376 sec (=   6.640 min)  44.2 %
SCF Gradient evaluation         ...      118.010 sec (=   1.967 min)  13.1 %
Geometry relaxation             ...        0.903 sec (=   0.015 min)   0.1 %
Analytical frequency calculation...      371.369 sec (=   6.189 min)  41.2 %
                             ****ORCA TERMINATED NORMALLY****
TOTAL RUN TIME: 0 days 0 hours 15 minutes 4 seconds 429 msec
