
                                 *****************
                                 * O   R   C   A *
                                 *****************

                                            #,                                       
                                            ###                                      
                                            ####                                     
                                            #####                                    
                                            ######                                   
                                           ########,                                 
                                     ,,################,,,,,                         
                               ,,#################################,,                 
                          ,,##########################################,,             
                       ,#########################################, ''#####,          
                    ,#############################################,,   '####,        
                  ,##################################################,,,,####,       
                ,###########''''           ''''###############################       
              ,#####''   ,,,,##########,,,,          '''####'''          '####       
            ,##' ,,,,###########################,,,                        '##       
           ' ,,###''''                  '''############,,,                           
         ,,##''                                '''############,,,,        ,,,,,,###''
      ,#''                                            '''#######################'''  
     '                                                          ''''####''''         
             ,#######,   #######,   ,#######,      ##                                
            ,#'     '#,  ##    ##  ,#'     '#,    #''#        ######   ,####,        
            ##       ##  ##   ,#'  ##            #'  '#       #        #'  '#        
            ##       ##  #######   ##           ,######,      #####,   #    #        
            '#,     ,#'  ##    ##  '#,     ,#' ,#      #,         ##   #,  ,#        
             '#######'   ##     ##  '#######'  #'      '#     #####' # '####'        



                  #######################################################
                  #                        -***-                        #
                  #          Department of theory and spectroscopy      #
                  #    Directorship and core code : Frank Neese         #
                  #        Max Planck Institute fuer Kohlenforschung    #
                  #                Kaiser Wilhelm Platz 1               #
                  #                 D-45470 Muelheim/Ruhr               #
                  #                      Germany                        #
                  #                                                     #
                  #                  All rights reserved                #
                  #                        -***-                        #
                  #######################################################


                         Program Version 5.0.4 -  RELEASE  -


 With contributions from (in alphabetic order):
   Daniel Aravena         : Magnetic Suceptibility
   Michael Atanasov       : Ab Initio Ligand Field Theory (pilot matlab implementation)
   Alexander A. Auer      : GIAO ZORA, VPT2 properties, NMR spectrum
   Ute Becker             : Parallelization
   Giovanni Bistoni       : ED, misc. LED, open-shell LED, HFLD
   Martin Brehm           : Molecular dynamics
   Dmytro Bykov           : SCF Hessian
   Vijay G. Chilkuri      : MRCI spin determinant printing, contributions to CSF-ICE
   Dipayan Datta          : RHF DLPNO-CCSD density
   Achintya Kumar Dutta   : EOM-CC, STEOM-CC
   Dmitry Ganyushin       : Spin-Orbit,Spin-Spin,Magnetic field MRCI
   Miquel Garcia          : C-PCM and meta-GGA Hessian, CC/C-PCM, Gaussian charge scheme
   Yang Guo               : DLPNO-NEVPT2, F12-NEVPT2, CIM, IAO-localization
   Andreas Hansen         : Spin unrestricted coupled pair/coupled cluster methods
   Benjamin Helmich-Paris : MC-RPA, TRAH-SCF, COSX integrals
   Lee Huntington         : MR-EOM, pCC
   Robert Izsak           : Overlap fitted RIJCOSX, COSX-SCS-MP3, EOM
   Marcus Kettner         : VPT2
   Christian Kollmar      : KDIIS, OOCD, Brueckner-CCSD(T), CCSD density, CASPT2, CASPT2-K
   Simone Kossmann        : Meta GGA functionals, TD-DFT gradient, OOMP2, MP2 Hessian
   Martin Krupicka        : Initial AUTO-CI
   Lucas Lang             : DCDCAS
   Marvin Lechner         : AUTO-CI (C++ implementation), FIC-MRCC
   Dagmar Lenk            : GEPOL surface, SMD
   Dimitrios Liakos       : Extrapolation schemes; Compound Job, initial MDCI parallelization
   Dimitrios Manganas     : Further ROCIS development; embedding schemes
   Dimitrios Pantazis     : SARC Basis sets
   Anastasios Papadopoulos: AUTO-CI, single reference methods and gradients
   Taras Petrenko         : DFT Hessian,TD-DFT gradient, ASA, ECA, R-Raman, ABS, FL, XAS/XES, NRVS
   Peter Pinski           : DLPNO-MP2, DLPNO-MP2 Gradient
   Christoph Reimann      : Effective Core Potentials
   Marius Retegan         : Local ZFS, SOC
   Christoph Riplinger    : Optimizer, TS searches, QM/MM, DLPNO-CCSD(T), (RO)-DLPNO pert. Triples
   Tobias Risthaus        : Range-separated hybrids, TD-DFT gradient, RPA, STAB
   Michael Roemelt        : Original ROCIS implementation
   Masaaki Saitow         : Open-shell DLPNO-CCSD energy and density
   Barbara Sandhoefer     : DKH picture change effects
   Avijit Sen             : IP-ROCIS
   Kantharuban Sivalingam : CASSCF convergence, NEVPT2, FIC-MRCI
   Bernardo de Souza      : ESD, SOC TD-DFT
   Georgi Stoychev        : AutoAux, RI-MP2 NMR, DLPNO-MP2 response
   Willem Van den Heuvel  : Paramagnetic NMR
   Boris Wezisla          : Elementary symmetry handling
   Frank Wennmohs         : Technical directorship


 We gratefully acknowledge several colleagues who have allowed us to
 interface, adapt or use parts of their codes:
   Stefan Grimme, W. Hujo, H. Kruse, P. Pracht,  : VdW corrections, initial TS optimization,
                  C. Bannwarth, S. Ehlert          DFT functionals, gCP, sTDA/sTD-DF
   Ed Valeev, F. Pavosevic, A. Kumar             : LibInt (2-el integral package), F12 methods
   Garnet Chan, S. Sharma, J. Yang, R. Olivares  : DMRG
   Ulf Ekstrom                                   : XCFun DFT Library
   Mihaly Kallay                                 : mrcc  (arbitrary order and MRCC methods)
   Jiri Pittner, Ondrej Demel                    : Mk-CCSD
   Frank Weinhold                                : gennbo (NPA and NBO analysis)
   Christopher J. Cramer and Donald G. Truhlar   : smd solvation model
   Lars Goerigk                                  : TD-DFT with DH, B97 family of functionals
   V. Asgeirsson, H. Jonsson                     : NEB implementation
   FAccTs GmbH                                   : IRC, NEB, NEB-TS, DLPNO-Multilevel, CI-OPT
                                                   MM, QMMM, 2- and 3-layer-ONIOM, Crystal-QMMM,
                                                   LR-CPCM, SF, NACMEs, symmetry and pop. for TD-DFT,
                                                   nearIR, NL-DFT gradient (VV10), updates on ESD,
                                                   ML-optimized integration grids
   S Lehtola, MJT Oliveira, MAL Marques          : LibXC Library
   Liviu Ungur et al                             : ANISO software


 Your calculation uses the libint2 library for the computation of 2-el integrals
 For citations please refer to: http://libint.valeyev.net

 Your ORCA version has been built with support for libXC version: 5.1.0
 For citations please refer to: https://tddft.org/programs/libxc/

 This ORCA versions uses:
   CBLAS   interface :  Fast vector & matrix operations
   LAPACKE interface :  Fast linear algebra routines
   SCALAPACK package :  Parallel linear algebra routines
   Shared memory     :  Shared parallel matrices
   BLAS/LAPACK       :  OpenBLAS 0.3.15  USE64BITINT DYNAMIC_ARCH NO_AFFINITY SkylakeX SINGLE_THREADED
        Core in use  :  SkylakeX
   Copyright (c) 2011-2014, The OpenBLAS Project




***************************************
The coordinates will be read from file: /users/fjb15167/WWenergy/structures/Nfn.xyz
***************************************


Your calculation utilizes the atom-pairwise dispersion correction
based on tight binding partial charges (D4)
Cite in your paper:
E.Caldeweyher, C.Bannwarth, S.Grimme, J.Chem.Phys., (2017), 147, 034112.
E.Caldeweyher, S.Ehlert, A.Hansen, H.Neugebauer, S.Grimme, J.Chem.Phys., (2018), in progress.
   

================================================================================

----- Orbital basis set information -----
Your calculation utilizes the basis: 6-31G(d)
   H-He, Li-Ne : W. J. Hehre, R. Ditchfield and J.A. Pople, J. Chem. Phys. 56, 2257 (1972).
                 Note: He and Ne are unpublished basis sets taken from the Gaussian program.
                 Note: Li and B from J. D. Dill and J. A. Pople, J. Chem. Phys. 62, 2921 (1975).
   Na - Ar     : M. M. Francl, W. J. Pietro, W. J. Hehre, J. S. Binkley, M. S. Gordon, 
                 D. J. DeFrees and J. A. Pople, J. Chem. Phys. 77, 3654 (1982).
   K - Zn      : V. A. Rassolov, J. A. Pople, M. A. Ratner, and T. L. Windus, J. Chem. Phys. 109, 1223 (1998).

----- AuxJ basis set information -----
Your calculation utilizes the AutoAux generation procedure.
  G. L. Stoychev, A. A. Auer, F. Neese, J. Chem. Theory Comput. 13, 554 (2017)

----- AuxC basis set information -----
Your calculation utilizes the AutoAux generation procedure.
  G. L. Stoychev, A. A. Auer, F. Neese, J. Chem. Theory Comput. 13, 554 (2017)

----- AuxJK basis set information -----
Your calculation utilizes the AutoAux generation procedure.
  G. L. Stoychev, A. A. Auer, F. Neese, J. Chem. Theory Comput. 13, 554 (2017)

================================================================================
                                        WARNINGS
                       Please study these warnings very carefully!
================================================================================


WARNING: Geometry Optimization
  ===> : Switching off AutoStart
         For restart on a previous wavefunction, please use MOREAD

INFO   : the flag for use of the SHARK integral package has been found!

================================================================================
                                       INPUT FILE
================================================================================
NAME = Nfn_water.inp
|  1> ! OPT FREQ B3LYP 6-31G(d) D4 AUTOAUX CPCM(water)
|  2> 
|  3> %PAL NPROCS 4 END
|  4> 
|  5> %maxcore 3375
|  6> 
|  7> *xyzfile 0 1 /users/fjb15167/WWenergy/structures/Nfn.xyz
|  8> 
|  9>                          ****END OF INPUT****
================================================================================

                       *****************************
                       * Geometry Optimization Run *
                       *****************************

Geometry optimization settings:
Update method            Update   .... BFGS
Choice of coordinates    CoordSys .... Z-matrix Internals
Initial Hessian          InHess   .... Almoef's Model

Convergence Tolerances:
Energy Change            TolE     ....  5.0000e-06 Eh
Max. Gradient            TolMAXG  ....  3.0000e-04 Eh/bohr
RMS Gradient             TolRMSG  ....  1.0000e-04 Eh/bohr
Max. Displacement        TolMAXD  ....  4.0000e-03 bohr
RMS Displacement         TolRMSD  ....  2.0000e-03 bohr
Strict Convergence                ....  False
------------------------------------------------------------------------------
                        ORCA OPTIMIZATION COORDINATE SETUP
------------------------------------------------------------------------------

The optimization will be done in new redundant internal coordinates
Making redundant internal coordinates   ...  (new redundants) done
Evaluating the initial hessian          ...  (Almloef) done
Evaluating the coordinates              ...  done
Calculating the B-matrix                .... done
Calculating the G-matrix                .... done
Diagonalizing the G-matrix              .... done
Small eigenvalue found = 6.153e-03
Small eigenvalue found = 8.165e-03
Small eigenvalue found = 1.112e-02
Small eigenvalue found = 1.965e-02
Small eigenvalue found = 2.415e-02
The first mode is                       ....   62
The number of degrees of freedom        ....   90

    -----------------------------------------------------------------
                    Redundant Internal Coordinates


    -----------------------------------------------------------------
         Definition                    Initial Value    Approx d2E/dq
    -----------------------------------------------------------------
      1. B(H   1,C   0)                  1.0920         0.357454   
      2. B(H   2,C   0)                  1.0902         0.359851   
      3. B(H   3,C   0)                  1.0925         0.356760   
      4. B(C   4,C   0)                  1.5105         0.401320   
      5. B(N   5,C   4)                  1.3741         0.593165   
      6. B(C   6,N   5)                  1.4287         0.485437   
      7. B(C   7,C   6)                  1.3990         0.604474   
      8. B(C   8,C   6)                  1.3993         0.603822   
      9. B(C   9,C   7)                  1.3951         0.613140   
     10. B(H  10,C   7)                  1.0876         0.363332   
     11. B(C  11,C   8)                  1.3966         0.609767   
     12. B(H  12,C   8)                  1.0868         0.364317   
     13. B(C  13,C  11)                  1.3976         0.607485   
     14. B(C  13,C   9)                  1.3975         0.607772   
     15. B(H  14,C   9)                  1.0879         0.362882   
     16. B(H  15,C  11)                  1.0874         0.363497   
     17. B(H  16,C  13)                  1.0873         0.363717   
     18. B(C  17,N   5)                  1.4574         0.436789   
     19. B(H  18,C  17)                  1.0949         0.353645   
     20. B(H  19,C  17)                  1.0910         0.358743   
     21. B(C  20,C  17)                  1.5319         0.370923   
     22. B(N  21,C  20)                  1.3635         0.616853   
     23. B(O  22,C  20)                  1.2386         0.975848   
     24. B(O  23,C   4)                  1.2388         0.975077   
     25. B(C  24,N  21)                  1.4634         0.427271   
     26. B(H  25,C  24)                  1.0926         0.356647   
     27. B(H  26,C  24)                  1.0912         0.358548   
     28. B(H  27,C  24)                  1.0933         0.355794   
     29. B(C  28,N  21)                  1.4588         0.434598   
     30. B(H  29,C  28)                  1.0924         0.356943   
     31. B(H  30,C  28)                  1.0965         0.351617   
     32. B(H  31,C  28)                  1.0884         0.362251   
     33. A(H   2,C   0,C   4)          107.4238         0.328128   
     34. A(H   2,C   0,H   3)          109.9256         0.290383   
     35. A(H   1,C   0,C   4)          111.4727         0.327767   
     36. A(H   3,C   0,C   4)          110.9598         0.327662   
     37. A(H   1,C   0,H   3)          107.7604         0.290078   
     38. A(H   1,C   0,H   2)          109.2937         0.290471   
     39. A(C   0,C   4,N   5)          117.3589         0.396050   
     40. A(C   0,C   4,O  23)          122.5524         0.432611   
     41. A(N   5,C   4,O  23)          120.0881         0.461293   
     42. A(C   4,N   5,C   6)          123.7540         0.406926   
     43. A(C   4,N   5,C  17)          115.1920         0.399417   
     44. A(C   6,N   5,C  17)          120.0815         0.385650   
     45. A(C   7,C   6,C   8)          120.6596         0.430044   
     46. A(N   5,C   6,C   8)          119.9052         0.410858   
     47. A(N   5,C   6,C   7)          119.4157         0.410937   
     48. A(C   9,C   7,H  10)          120.9614         0.352778   
     49. A(C   6,C   7,H  10)          119.3946         0.351930   
     50. A(C   6,C   7,C   9)          119.6405         0.431228   
     51. A(C   6,C   8,C  11)          119.1763         0.430718   
     52. A(C  11,C   8,H  12)          122.2862         0.352610   
     53. A(C   6,C   8,H  12)          118.5366         0.352027   
     54. A(C  13,C   9,H  14)          120.0716         0.352180   
     55. A(C   7,C   9,H  14)          119.7883         0.352704   
     56. A(C   7,C   9,C  13)          120.1339         0.431650   
     57. A(C  13,C  11,H  15)          119.9806         0.352253   
     58. A(C   8,C  11,H  15)          119.4941         0.352476   
     59. A(C   8,C  11,C  13)          120.5237         0.431186   
     60. A(C  11,C  13,H  16)          120.0817         0.352289   
     61. A(C   9,C  13,H  16)          120.0652         0.352317   
     62. A(C   9,C  13,C  11)          119.8527         0.430932   
     63. A(H  18,C  17,H  19)          108.5118         0.289843   
     64. A(N   5,C  17,H  19)          109.0213         0.330582   
     65. A(N   5,C  17,H  18)          107.7206         0.329800   
     66. A(H  19,C  17,C  20)          113.0870         0.323739   
     67. A(H  18,C  17,C  20)          107.9717         0.322980   
     68. A(N   5,C  17,C  20)          110.3692         0.370440   
     69. A(N  21,C  20,O  22)          122.8766         0.464674   
     70. A(C  17,C  20,O  22)          119.2314         0.426600   
     71. A(C  17,C  20,N  21)          117.7426         0.393310   
     72. A(C  24,N  21,C  28)          116.6560         0.376875   
     73. A(C  20,N  21,C  28)          116.9008         0.401824   
     74. A(C  20,N  21,C  24)          122.4252         0.400623   
     75. A(H  26,C  24,H  27)          107.4741         0.290094   
     76. A(H  25,C  24,H  27)          109.9353         0.289852   
     77. A(N  21,C  24,H  27)          111.3721         0.328931   
     78. A(H  25,C  24,H  26)          109.2935         0.290203   
     79. A(N  21,C  24,H  26)          107.7388         0.329350   
     80. A(N  21,C  24,H  25)          110.9200         0.329061   
     81. A(H  30,C  28,H  31)          108.7283         0.290024   
     82. A(H  29,C  28,H  31)          109.9441         0.290709   
     83. A(N  21,C  28,H  31)          108.5096         0.330839   
     84. A(H  29,C  28,H  30)          109.3792         0.289354   
     85. A(N  21,C  28,H  30)          111.1901         0.329214   
     86. A(N  21,C  28,H  29)          109.0760         0.330032   
     87. D(O  23,C   4,C   0,H   2)     -7.1613         0.011949   
     88. D(N   5,C   4,C   0,H   1)    -67.7155         0.011949   
     89. D(O  23,C   4,C   0,H   3)   -127.3411         0.011949   
     90. D(O  23,C   4,C   0,H   1)    112.5466         0.011949   
     91. D(N   5,C   4,C   0,H   3)     52.3968         0.011949   
     92. D(N   5,C   4,C   0,H   2)    172.5766         0.011949   
     93. D(C   6,N   5,C   4,O  23)    174.8681         0.028305   
     94. D(C  17,N   5,C   4,O  23)      6.1791         0.028305   
     95. D(C   6,N   5,C   4,C   0)     -4.8765         0.028305   
     96. D(C  17,N   5,C   4,C   0)   -173.5656         0.028305   
     97. D(C   8,C   6,N   5,C  17)     63.7793         0.018599   
     98. D(C   7,C   6,N   5,C  17)   -114.6264         0.018599   
     99. D(C   7,C   6,N   5,C   4)     77.2092         0.018599   
    100. D(C   8,C   6,N   5,C   4)   -104.3851         0.018599   
    101. D(C   9,C   7,C   6,N   5)    179.7118         0.025209   
    102. D(H  10,C   7,C   6,C   8)   -178.0045         0.025209   
    103. D(H  10,C   7,C   6,N   5)      0.3889         0.025209   
    104. D(C   9,C   7,C   6,C   8)      1.3184         0.025209   
    105. D(H  12,C   8,C   6,C   7)    179.7729         0.025152   
    106. D(H  12,C   8,C   6,N   5)      1.3874         0.025152   
    107. D(C  11,C   8,C   6,C   7)     -0.5693         0.025152   
    108. D(C  11,C   8,C   6,N   5)   -178.9549         0.025152   
    109. D(H  14,C   9,C   7,H  10)     -0.9071         0.025980   
    110. D(H  14,C   9,C   7,C   6)    179.7808         0.025980   
    111. D(C  13,C   9,C   7,H  10)    178.1884         0.025980   
    112. D(C  13,C   9,C   7,C   6)     -1.1236         0.025980   
    113. D(H  15,C  11,C   8,H  12)     -0.2650         0.025678   
    114. D(H  15,C  11,C   8,C   6)   -179.9094         0.025678   
    115. D(C  13,C  11,C   8,H  12)    179.2694         0.025678   
    116. D(C  13,C  11,C   8,C   6)     -0.3749         0.025678   
    117. D(C  11,C  13,C   9,C   7)      0.1924         0.025501   
    118. D(H  16,C  13,C  11,H  15)     -0.1180         0.025475   
    119. D(H  16,C  13,C  11,C   8)   -179.6502         0.025475   
    120. D(C   9,C  13,C  11,H  15)   -179.9040         0.025475   
    121. D(C   9,C  13,C  11,C   8)      0.5638         0.025475   
    122. D(H  16,C  13,C   9,H  14)     -0.5006         0.025501   
    123. D(H  16,C  13,C   9,C   7)   -179.5936         0.025501   
    124. D(C  11,C  13,C   9,H  14)    179.2854         0.025501   
    125. D(C  20,C  17,N   5,C   6)   -107.0034         0.016267   
    126. D(C  20,C  17,N   5,C   4)     62.1340         0.016267   
    127. D(H  19,C  17,N   5,C   6)    128.2156         0.016267   
    128. D(H  19,C  17,N   5,C   4)    -62.6470         0.016267   
    129. D(H  18,C  17,N   5,C   6)     10.6525         0.016267   
    130. D(H  18,C  17,N   5,C   4)    179.7899         0.016267   
    131. D(O  22,C  20,C  17,H  19)    168.2872         0.010299   
    132. D(O  22,C  20,C  17,H  18)    -71.6390         0.010299   
    133. D(O  22,C  20,C  17,N   5)     45.8622         0.010299   
    134. D(N  21,C  20,C  17,H  19)    -16.0276         0.010299   
    135. D(N  21,C  20,C  17,H  18)    104.0463         0.010299   
    136. D(N  21,C  20,C  17,N   5)   -138.4526         0.010299   
    137. D(C  28,N  21,C  20,O  22)     -6.1834         0.030787   
    138. D(C  28,N  21,C  20,C  17)    178.3002         0.030787   
    139. D(C  24,N  21,C  20,O  22)   -162.8582         0.030787   
    140. D(C  24,N  21,C  20,C  17)     21.6254         0.030787   
    141. D(H  27,C  24,N  21,C  28)    133.7089         0.015565   
    142. D(H  27,C  24,N  21,C  20)    -69.5631         0.015565   
    143. D(H  26,C  24,N  21,C  28)     16.0810         0.015565   
    144. D(H  26,C  24,N  21,C  20)    172.8090         0.015565   
    145. D(H  25,C  24,N  21,C  28)   -103.5006         0.015565   
    146. D(H  25,C  24,N  21,C  20)     53.2274         0.015565   
    147. D(H  30,C  28,N  21,C  20)    -90.1369         0.016104   
    148. D(H  29,C  28,N  21,C  24)    -52.8025         0.016104   
    149. D(H  29,C  28,N  21,C  20)    149.1578         0.016104   
    150. D(H  31,C  28,N  21,C  24)   -172.5634         0.016104   
    151. D(H  31,C  28,N  21,C  20)     29.3969         0.016104   
    152. D(H  30,C  28,N  21,C  24)     67.9028         0.016104   
    -----------------------------------------------------------------

Number of atoms                         .... 32
Number of degrees of freedom            .... 152

         *************************************************************
         *                GEOMETRY OPTIMIZATION CYCLE   1            *
         *************************************************************
---------------------------------
CARTESIAN COORDINATES (ANGSTROEM)
---------------------------------
  C      0.884000    2.330000   -1.316000
  H      1.640000    2.842000   -0.717000
  H      0.355000    3.060000   -1.929000
  H      1.398000    1.609000   -1.956000
  C     -0.141000    1.644000   -0.444000
  N      0.282000    0.571000    0.303000
  C      1.596000    0.016000    0.222000
  C      2.659000    0.672000    0.852000
  C      1.803000   -1.191000   -0.455000
  C      3.943000    0.131000    0.781000
  H      2.469000    1.592000    1.400000
  C      3.090000   -1.731000   -0.506000
  H      0.952000   -1.673000   -0.929000
  C      4.161000   -1.072000    0.104000
  H      4.772000    0.641000    1.267000
  H      3.257000   -2.668000   -1.032000
  H      5.161000   -1.496000    0.055000
  C     -0.771000   -0.145000    1.012000
  H     -0.303000   -0.970000    1.559000
  H     -1.236000    0.529000    1.733000
  C     -1.771000   -0.744000    0.018000
  N     -3.097000   -0.663000    0.325000
  O     -1.347000   -1.346000   -0.978000
  O     -1.323000    2.011000   -0.390000
  C     -3.626000    0.327000    1.264000
  H     -3.314000    1.336000    0.984000
  H     -4.715000    0.265000    1.234000
  H     -3.313000    0.111000    2.289000
  C     -4.035000   -1.205000   -0.652000
  H     -4.916000   -1.584000   -0.129000
  H     -4.342000   -0.439000   -1.374000
  H     -3.545000   -2.015000   -1.189000

----------------------------
CARTESIAN COORDINATES (A.U.)
----------------------------
  NO LB      ZA    FRAG     MASS         X           Y           Z
   0 C     6.0000    0    12.011    1.670518    4.403062   -2.486880
   1 H     1.0000    0     1.008    3.099151    5.370602   -1.354934
   2 H     1.0000    0     1.008    0.670853    5.782562   -3.645282
   3 H     1.0000    0     1.008    2.641837    3.040569   -3.696304
   4 C     6.0000    0    12.011   -0.266451    3.106710   -0.839038
   5 N     7.0000    0    14.007    0.532903    1.079034    0.572587
   6 C     6.0000    0    12.011    3.016003    0.030236    0.419519
   7 C     6.0000    0    12.011    5.024782    1.269896    1.610047
   8 C     6.0000    0    12.011    3.407176   -2.250664   -0.859825
   9 C     6.0000    0    12.011    7.451190    0.247554    1.475876
  10 H     1.0000    0     1.008    4.665734    3.008444    2.645617
  11 C     6.0000    0    12.011    5.839254   -3.271116   -0.956201
  12 H     1.0000    0     1.008    1.799019   -3.161512   -1.755556
  13 C     6.0000    0    12.011    7.863150   -2.025786    0.196532
  14 H     1.0000    0     1.008    9.017773    1.211314    2.394283
  15 H     1.0000    0     1.008    6.154838   -5.041789   -1.950197
  16 H     1.0000    0     1.008    9.752877   -2.827030    0.103935
  17 C     6.0000    0    12.011   -1.456979   -0.274010    1.912403
  18 H     1.0000    0     1.008   -0.572587   -1.833034    2.946083
  19 H     1.0000    0     1.008   -2.335702    0.999665    3.274895
  20 C     6.0000    0    12.011   -3.346705   -1.405956    0.034015
  21 N     7.0000    0    14.007   -5.852482   -1.252888    0.614161
  22 O     8.0000    0    15.999   -2.545461   -2.543571   -1.848152
  23 O     8.0000    0    15.999   -2.500108    3.800239   -0.736993
  24 C     6.0000    0    12.011   -6.852147    0.617940    2.388614
  25 H     1.0000    0     1.008   -6.262552    2.524674    1.859491
  26 H     1.0000    0     1.008   -8.910059    0.500777    2.331922
  27 H     1.0000    0     1.008   -6.260663    0.209760    4.325583
  28 C     6.0000    0    12.011   -7.625045   -2.277120   -1.232101
  29 H     1.0000    0     1.008   -9.289894   -2.993326   -0.243775
  30 H     1.0000    0     1.008   -8.205191   -0.829590   -2.596484
  31 H     1.0000    0     1.008   -6.699079   -3.807798   -2.246884

--------------------------------
INTERNAL COORDINATES (ANGSTROEM)
--------------------------------
 C      0   0   0     0.000000000000     0.00000000     0.00000000
 H      1   0   0     1.092007783855     0.00000000     0.00000000
 H      1   2   0     1.090188057172   109.29365908     0.00000000
 H      1   2   3     1.092536955897   107.76043554   119.42456556
 C      1   2   3     1.510498262164   111.47271453   241.40461264
 N      5   1   2     1.374142277932   117.35890837   292.28454173
 C      6   5   1     1.428699408553   123.75401458   355.12346433
 C      7   6   5     1.399001429592   119.41569237    77.20916896
 C      7   6   5     1.399295179724   119.90519623   255.61487315
 C      8   7   6     1.395126517560   119.64046038   179.71177910
 H      8   7   6     1.087567928913   119.39461782     0.38885654
 C      9   7   6     1.396628082204   119.17630234   181.04514991
 H      9   7   6     1.086830713589   118.53659151     1.38736873
 C     10   8   7     1.397519946190   120.13390237   358.87637801
 H     10   8   7     1.087904867164   119.78827026   179.78082205
 H     12   9   7     1.087443791651   119.49412623   180.09058451
 H     14  10   8     1.087279632845   120.06522381   180.40637917
 C      6   5   1     1.457445024692   115.19203675   186.43444148
 H     18   6   5     1.094923741637   107.72056885   179.78992373
 H     18   6   5     1.091027955646   109.02133306   297.35296511
 C     18   6   5     1.531938967453   110.36921051    62.13400373
 N     21  18   6     1.363483039865   117.74256310   221.54741880
 O     21  18   6     1.238626658844   119.23141636    45.86217448
 O      5   1   2     1.238841797810   122.55244701   112.54664408
 C     22  21  18     1.463441833487   122.42516760    21.62544138
 H     25  22  21     1.092622990789   110.92000167    53.22737547
 H     25  22  21     1.091175971143   107.73875730   172.80897196
 H     25  22  21     1.093274896812   111.37213621   290.43687949
 C     22  21  18     1.458813559027   116.90076885   178.30023748
 H     29  22  21     1.092396905891   109.07600998   149.15779960
 H     29  22  21     1.096489398034   111.19012207   269.86312359
 H     29  22  21     1.088379069994   108.50955243    29.39686649

---------------------------
INTERNAL COORDINATES (A.U.)
---------------------------
 C      0   0   0     0.000000000000     0.00000000     0.00000000
 H      1   0   0     2.063595647596     0.00000000     0.00000000
 H      1   2   0     2.060156862526   109.29365908     0.00000000
 H      1   2   3     2.064595637833   107.76043554   119.42456556
 C      1   2   3     2.854428041254   111.47271453   241.40461264
 N      5   1   2     2.596752574334   117.35890837   292.28454173
 C      6   5   1     2.699850609861   123.75401458   355.12346433
 C      7   6   5     2.643729562893   119.41569237    77.20916896
 C      7   6   5     2.644284670195   119.90519623   255.61487315
 C      8   7   6     2.636407040360   119.64046038   179.71177910
 H      8   7   6     2.055205537681   119.39461782     0.38885654
 C      9   7   6     2.639244586309   119.17630234   181.04514991
 H      9   7   6     2.053812402617   118.53659151     1.38736873
 C     10   8   7     2.640929964992   120.13390237   358.87637801
 H     10   8   7     2.055842258701   119.78827026   179.78082205
 H     12   9   7     2.054970952253   119.49412623   180.09058451
 H     14  10   8     2.054660737068   120.06522381   180.40637917
 C      6   5   1     2.754171951914   115.19203675   186.43444148
 H     18   6   5     2.069106009222   107.72056885   179.78992373
 H     18   6   5     2.061744040622   109.02133306   297.35296511
 C     18   6   5     2.894945102368   110.36921051    62.13400373
 N     21  18   6     2.576609533592   117.74256310   221.54741880
 O     21  18   6     2.340665167390   119.23141636    45.86217448
 O      5   1   2     2.341071721115   122.55244701   112.54664408
 C     22  21  18     2.765504278214   122.42516760    21.62544138
 H     25  22  21     2.064758220217   110.92000167    53.22737547
 H     25  22  21     2.062023749376   107.73875730   172.80897196
 H     25  22  21     2.065990144066   111.37213621   290.43687949
 C     22  21  18     2.756758107011   116.90076885   178.30023748
 H     29  22  21     2.064330981677   109.07600998   149.15779960
 H     29  22  21     2.072064671032   111.19012207   269.86312359
 H     29  22  21     2.056738372180   108.50955243    29.39686649

---------------------
BASIS SET INFORMATION
---------------------
There are 4 groups of distinct atoms

 Group   1 Type C   : 10s4p1d contracted to 3s2p1d pattern {631/31/1}
 Group   2 Type H   : 4s contracted to 2s pattern {31}
 Group   3 Type N   : 10s4p1d contracted to 3s2p1d pattern {631/31/1}
 Group   4 Type O   : 10s4p1d contracted to 3s2p1d pattern {631/31/1}

Atom   0C    basis set group =>   1
Atom   1H    basis set group =>   2
Atom   2H    basis set group =>   2
Atom   3H    basis set group =>   2
Atom   4C    basis set group =>   1
Atom   5N    basis set group =>   3
Atom   6C    basis set group =>   1
Atom   7C    basis set group =>   1
Atom   8C    basis set group =>   1
Atom   9C    basis set group =>   1
Atom  10H    basis set group =>   2
Atom  11C    basis set group =>   1
Atom  12H    basis set group =>   2
Atom  13C    basis set group =>   1
Atom  14H    basis set group =>   2
Atom  15H    basis set group =>   2
Atom  16H    basis set group =>   2
Atom  17C    basis set group =>   1
Atom  18H    basis set group =>   2
Atom  19H    basis set group =>   2
Atom  20C    basis set group =>   1
Atom  21N    basis set group =>   3
Atom  22O    basis set group =>   4
Atom  23O    basis set group =>   4
Atom  24C    basis set group =>   1
Atom  25H    basis set group =>   2
Atom  26H    basis set group =>   2
Atom  27H    basis set group =>   2
Atom  28C    basis set group =>   1
Atom  29H    basis set group =>   2
Atom  30H    basis set group =>   2
Atom  31H    basis set group =>   2
---------------------------------
AUXILIARY/J BASIS SET INFORMATION
---------------------------------
There are 4 groups of distinct atoms

 Group   1 Type C   : 13s11p10d2f contracted to 13s11p10d2f pattern {1111111111111/11111111111/1111111111/11}
 Group   2 Type H   : 9s2p contracted to 9s2p pattern {111111111/11}
 Group   3 Type N   : 14s11p10d2f contracted to 14s11p10d2f pattern {11111111111111/11111111111/1111111111/11}
 Group   4 Type O   : 14s11p10d2f contracted to 14s11p10d2f pattern {11111111111111/11111111111/1111111111/11}

Atom   0C    basis set group =>   1
Atom   1H    basis set group =>   2
Atom   2H    basis set group =>   2
Atom   3H    basis set group =>   2
Atom   4C    basis set group =>   1
Atom   5N    basis set group =>   3
Atom   6C    basis set group =>   1
Atom   7C    basis set group =>   1
Atom   8C    basis set group =>   1
Atom   9C    basis set group =>   1
Atom  10H    basis set group =>   2
Atom  11C    basis set group =>   1
Atom  12H    basis set group =>   2
Atom  13C    basis set group =>   1
Atom  14H    basis set group =>   2
Atom  15H    basis set group =>   2
Atom  16H    basis set group =>   2
Atom  17C    basis set group =>   1
Atom  18H    basis set group =>   2
Atom  19H    basis set group =>   2
Atom  20C    basis set group =>   1
Atom  21N    basis set group =>   3
Atom  22O    basis set group =>   4
Atom  23O    basis set group =>   4
Atom  24C    basis set group =>   1
Atom  25H    basis set group =>   2
Atom  26H    basis set group =>   2
Atom  27H    basis set group =>   2
Atom  28C    basis set group =>   1
Atom  29H    basis set group =>   2
Atom  30H    basis set group =>   2
Atom  31H    basis set group =>   2
---------------------------------
AUXILIARY/C BASIS SET INFORMATION
---------------------------------
There are 4 groups of distinct atoms

 Group   1 Type C   : 13s11p10d2f contracted to 13s11p10d2f pattern {1111111111111/11111111111/1111111111/11}
 Group   2 Type H   : 9s2p contracted to 9s2p pattern {111111111/11}
 Group   3 Type N   : 14s11p10d2f contracted to 14s11p10d2f pattern {11111111111111/11111111111/1111111111/11}
 Group   4 Type O   : 14s11p10d2f contracted to 14s11p10d2f pattern {11111111111111/11111111111/1111111111/11}

Atom   0C    basis set group =>   1
Atom   1H    basis set group =>   2
Atom   2H    basis set group =>   2
Atom   3H    basis set group =>   2
Atom   4C    basis set group =>   1
Atom   5N    basis set group =>   3
Atom   6C    basis set group =>   1
Atom   7C    basis set group =>   1
Atom   8C    basis set group =>   1
Atom   9C    basis set group =>   1
Atom  10H    basis set group =>   2
Atom  11C    basis set group =>   1
Atom  12H    basis set group =>   2
Atom  13C    basis set group =>   1
Atom  14H    basis set group =>   2
Atom  15H    basis set group =>   2
Atom  16H    basis set group =>   2
Atom  17C    basis set group =>   1
Atom  18H    basis set group =>   2
Atom  19H    basis set group =>   2
Atom  20C    basis set group =>   1
Atom  21N    basis set group =>   3
Atom  22O    basis set group =>   4
Atom  23O    basis set group =>   4
Atom  24C    basis set group =>   1
Atom  25H    basis set group =>   2
Atom  26H    basis set group =>   2
Atom  27H    basis set group =>   2
Atom  28C    basis set group =>   1
Atom  29H    basis set group =>   2
Atom  30H    basis set group =>   2
Atom  31H    basis set group =>   2
----------------------------------
AUXILIARY/JK BASIS SET INFORMATION
----------------------------------
There are 4 groups of distinct atoms

 Group   1 Type C   : 13s11p10d2f contracted to 13s11p10d2f pattern {1111111111111/11111111111/1111111111/11}
 Group   2 Type H   : 9s2p contracted to 9s2p pattern {111111111/11}
 Group   3 Type N   : 14s11p10d2f contracted to 14s11p10d2f pattern {11111111111111/11111111111/1111111111/11}
 Group   4 Type O   : 14s11p10d2f contracted to 14s11p10d2f pattern {11111111111111/11111111111/1111111111/11}

Atom   0C    basis set group =>   1
Atom   1H    basis set group =>   2
Atom   2H    basis set group =>   2
Atom   3H    basis set group =>   2
Atom   4C    basis set group =>   1
Atom   5N    basis set group =>   3
Atom   6C    basis set group =>   1
Atom   7C    basis set group =>   1
Atom   8C    basis set group =>   1
Atom   9C    basis set group =>   1
Atom  10H    basis set group =>   2
Atom  11C    basis set group =>   1
Atom  12H    basis set group =>   2
Atom  13C    basis set group =>   1
Atom  14H    basis set group =>   2
Atom  15H    basis set group =>   2
Atom  16H    basis set group =>   2
Atom  17C    basis set group =>   1
Atom  18H    basis set group =>   2
Atom  19H    basis set group =>   2
Atom  20C    basis set group =>   1
Atom  21N    basis set group =>   3
Atom  22O    basis set group =>   4
Atom  23O    basis set group =>   4
Atom  24C    basis set group =>   1
Atom  25H    basis set group =>   2
Atom  26H    basis set group =>   2
Atom  27H    basis set group =>   2
Atom  28C    basis set group =>   1
Atom  29H    basis set group =>   2
Atom  30H    basis set group =>   2
Atom  31H    basis set group =>   2


           ************************************************************
           *        Program running with 4 parallel MPI-processes     *
           *              working on a common directory               *
           ************************************************************
------------------------------------------------------------------------------
                           ORCA GTO INTEGRAL CALCULATION
                           -- RI-GTO INTEGRALS CHOSEN --
------------------------------------------------------------------------------
------------------------------------------------------------------------------
                   ___                                                        
                  /   \      - P O W E R E D   B Y -                         
                 /     \                                                     
                 |  |  |   _    _      __       _____    __    __             
                 |  |  |  | |  | |    /  \     |  _  \  |  |  /  |          
                  \  \/   | |  | |   /    \    | | | |  |  | /  /          
                 / \  \   | |__| |  /  /\  \   | |_| |  |  |/  /          
                |  |  |   |  __  | /  /__\  \  |    /   |      \           
                |  |  |   | |  | | |   __   |  |    \   |  |\   \          
                \     /   | |  | | |  |  |  |  | |\  \  |  | \   \       
                 \___/    |_|  |_| |__|  |__|  |_| \__\ |__|  \__/        
                                                                              
                      - O R C A' S   B I G   F R I E N D -                    
                                      &                                       
                       - I N T E G R A L  F E E D E R -                       
                                                                              
 v1 FN, 2020, v2 2021                                                         
------------------------------------------------------------------------------


Reading SHARK input file Nfn_water.SHARKINP.tmp ... ok
----------------------
SHARK INTEGRAL PACKAGE
----------------------

Number of atoms                             ...     32
Number of basis functions                   ...    256
Number of shells                            ...    128
Maximum angular momentum                    ...      2
Integral batch strategy                     ... SHARK/LIBINT Hybrid
RI-J (if used) integral strategy            ... SPLIT-RIJ (Revised 2003 algorithm where possible)
Printlevel                                  ...      1
Contraction scheme used                     ... SEGMENTED contraction
Coulomb Range Separation                    ... NOT USED
Exchange Range Separation                   ... NOT USED
Finite Nucleus Model                        ... NOT USED
Auxiliary Coulomb fitting basis             ... AVAILABLE
   # of basis functions in Aux-J            ...   2004
   # of shells in Aux-J                     ...    756
   Maximum angular momentum in Aux-J        ...      3
Auxiliary J/K fitting basis                 ... AVAILABLE
   # of basis functions in Aux-JK           ...   2004
   # of shells in Aux-JK                    ...    756
   Maximum angular momentum in Aux-JK       ...      3
Auxiliary Correlation fitting basis         ... AVAILABLE
   # of basis functions in Aux-C            ...   2004
   # of shells in Aux-C                     ...    756
   Maximum angular momentum in Aux-C        ...      3
Auxiliary 'external' fitting basis          ... NOT available
Integral threshold                          ...     2.500000e-11
Primitive cut-off                           ...     2.500000e-12
Primitive pair pre-selection threshold      ...     2.500000e-12

Calculating pre-screening integrals         ... done (  0.0 sec) Dimension = 128
Organizing shell pair data                  ... done (  0.7 sec)
Shell pair information
Total number of shell pairs                 ...      8256
Shell pairs after pre-screening             ...      6727
Total number of primitive shell pairs       ...     46744
Primitive shell pairs kept                  ...     22049
          la=0 lb=0:   2500 shell pairs
          la=1 lb=0:   2215 shell pairs
          la=1 lb=1:    498 shell pairs
          la=2 lb=0:    962 shell pairs
          la=2 lb=1:    448 shell pairs
          la=2 lb=2:    104 shell pairs

Calculating one electron integrals          ... done (  0.0 sec)
Calculating RI/J V-Matrix + Cholesky decomp.... done (  0.2 sec)
Calculating RI/JK V-Matrix + Cholesky decomp... done (  0.3 sec)
Calculating RI/C V-Matrix + Cholesky decomp.... done (  0.3 sec)
Calculating Nuclear repulsion               ... done (  0.0 sec) ENN=   1118.783182039903 Eh

SHARK setup successfully completed in   1.9 seconds

Maximum memory used throughout the entire GTOINT-calculation: 34.9 MB


           ************************************************************
           *        Program running with 4 parallel MPI-processes     *
           *              working on a common directory               *
           ************************************************************
-------------------------------------------------------------------------------
                                 ORCA SCF
-------------------------------------------------------------------------------

------------
SCF SETTINGS
------------
Hamiltonian:
 Density Functional     Method          .... DFT(GTOs)
 Exchange Functional    Exchange        .... B88
   X-Alpha parameter    XAlpha          ....  0.666667
   Becke's b parameter  XBeta           ....  0.004200
 Correlation Functional Correlation     .... LYP
 LDA part of GGA corr.  LDAOpt          .... VWN-5
 Gradients option       PostSCFGGA      .... off
 Hybrid DFT is turned on
   Fraction HF Exchange ScalHFX         ....  0.200000
   Scaling of DF-GGA-X  ScalDFX         ....  0.720000
   Scaling of DF-GGA-C  ScalDFC         ....  0.810000
   Scaling of DF-LDA-C  ScalLDAC        ....  1.000000
   Perturbative correction              ....  0.000000
   Density functional embedding theory  .... OFF
   NL short-range parameter             ....  4.800000
 RI-approximation to the Coulomb term is turned on
   Number of AuxJ basis functions       .... 2004
   RIJ-COSX (HFX calculated with COS-X)).... on


General Settings:
 Integral files         IntName         .... Nfn_water
 Hartree-Fock type      HFTyp           .... RHF
 Total Charge           Charge          ....    0
 Multiplicity           Mult            ....    1
 Number of Electrons    NEL             ....  118
 Basis Dimension        Dim             ....  256
 Nuclear Repulsion      ENuc            ....   1118.7831820399 Eh

Convergence Acceleration:
 DIIS                   CNVDIIS         .... on
   Start iteration      DIISMaxIt       ....    12
   Startup error        DIISStart       ....  0.200000
   # of expansion vecs  DIISMaxEq       ....     5
   Bias factor          DIISBfac        ....   1.050
   Max. coefficient     DIISMaxC        ....  10.000
 Trust-Rad. Augm. Hess. CNVTRAH         .... auto
   Auto Start mean grad. ratio tolernc. ....  1.125000
   Auto Start start iteration           ....    20
   Auto Start num. interpolation iter.  ....    10
   Max. Number of Micro iterations      ....    16
   Max. Number of Macro iterations      .... Maxiter - #DIIS iter
   Number of Davidson start vectors     ....     2
   Converg. threshold I  (grad. norm)   ....   1.000e-05
   Converg. threshold II (energy diff.) ....   1.000e-08
   Grad. Scal. Fac. for Micro threshold ....   0.100
   Minimum threshold for Micro iter.    ....   0.010
   NR start threshold (gradient norm)   ....   0.001
   Initial trust radius                 ....   0.400
   Minimum AH scaling param. (alpha)    ....   1.000
   Maximum AH scaling param. (alpha)    .... 1000.000
   Orbital update algorithm             .... Taylor
   White noise on init. David. guess    .... on
   Maximum white noise                  ....   0.010
   Quad. conv. algorithm                .... NR
 SOSCF                  CNVSOSCF        .... on
   Start iteration      SOSCFMaxIt      ....   150
   Startup grad/error   SOSCFStart      ....  0.003300
 Level Shifting         CNVShift        .... on
   Level shift para.    LevelShift      ....    0.2500
   Turn off err/grad.   ShiftErr        ....    0.0010
 Zerner damping         CNVZerner       .... off
 Static damping         CNVDamp         .... on
   Fraction old density DampFac         ....    0.7000
   Max. Damping (<1)    DampMax         ....    0.9800
   Min. Damping (>=0)   DampMin         ....    0.0000
   Turn off err/grad.   DampErr         ....    0.1000
 Fernandez-Rico         CNVRico         .... off

SCF Procedure:
 Maximum # iterations   MaxIter         ....   125
 SCF integral mode      SCFMode         .... Direct
   Integral package                     .... SHARK and LIBINT hybrid scheme
 Reset frequency        DirectResetFreq ....    20
 Integral Threshold     Thresh          ....  2.500e-11 Eh
 Primitive CutOff       TCut            ....  2.500e-12 Eh

Convergence Tolerance:
 Convergence Check Mode ConvCheckMode   .... Total+1el-Energy
 Convergence forced     ConvForced      .... 0
 Energy Change          TolE            ....  1.000e-08 Eh
 1-El. energy change                    ....  1.000e-05 Eh
 Orbital Gradient       TolG            ....  1.000e-05
 Orbital Rotation angle TolX            ....  1.000e-05
 DIIS Error             TolErr          ....  5.000e-07


Diagonalization of the overlap matrix:
Smallest eigenvalue                        ... 4.660e-04
Time for diagonalization                   ...    0.011 sec
Threshold for overlap eigenvalues          ... 1.000e-08
Number of eigenvalues below threshold      ... 0
Time for construction of square roots      ...    0.006 sec
Total time needed                          ...    0.018 sec

Time for model grid setup =    0.245 sec

------------------------------
INITIAL GUESS: MODEL POTENTIAL
------------------------------
Loading Hartree-Fock densities                     ... done
Calculating cut-offs                               ... done
Initializing the effective Hamiltonian             ... done
Setting up the integral package (SHARK)            ... done
Starting the Coulomb interaction                   ... done (   0.2 sec)
Reading the grid                                   ... done
Mapping shells                                     ... done
Starting the XC term evaluation                    ... done (   0.2 sec)
  promolecular density results
     # of electrons  =    117.988605665
     EX              =    -96.002995384
     EC              =     -3.990397160
     EX+EC           =    -99.993392544
Transforming the Hamiltonian                       ... done (   0.0 sec)
Diagonalizing the Hamiltonian                      ... done (   0.0 sec)
Back transforming the eigenvectors                 ... done (   0.0 sec)
Now organizing SCF variables                       ... done
                      ------------------
                      INITIAL GUESS DONE (   0.7 sec)
                      ------------------
-------------------
DFT GRID GENERATION
-------------------

General Integration Accuracy     IntAcc      ... 4.388
Radial Grid Type                 RadialGrid  ... OptM3 with GC (2021)
Angular Grid (max. ang.)         AngularGrid ... 4 (Lebedev-302)
Angular grid pruning method      GridPruning ... 4 (adaptive)
Weight generation scheme         WeightScheme... Becke
Basis function cutoff            BFCut       ... 1.0000e-11
Integration weight cutoff        WCut        ... 1.0000e-14
Angular grids for H and He will be reduced by one unit
Partially contracted basis set               ... off
Rotationally invariant grid construction     ... off

Total number of grid points                  ...   146918
Total number of batches                      ...     2313
Average number of points per batch           ...       63
Average number of grid points per atom       ...     4591
Time for grid setup =    1.168 sec

--------------------
COSX GRID GENERATION
--------------------

GRIDX 1
-------
General Integration Accuracy     IntAcc      ... 3.816
Radial Grid Type                 RadialGrid  ... OptM3 with GC (2021)
Angular Grid (max. ang.)         AngularGrid ... 1 (Lebedev-50)
Angular grid pruning method      GridPruning ... 4 (adaptive)
Weight generation scheme         WeightScheme... Becke
Basis function cutoff            BFCut       ... 1.0000e-11
Integration weight cutoff        WCut        ... 1.0000e-14
Angular grids for H and He will be reduced by one unit
Partially contracted basis set               ... on
Rotationally invariant grid construction     ... off

Total number of grid points                  ...    18724
Total number of batches                      ...      307
Average number of points per batch           ...       60
Average number of grid points per atom       ...      585
UseSFitting                                  ... on

GRIDX 2
-------
General Integration Accuracy     IntAcc      ... 4.020
Radial Grid Type                 RadialGrid  ... OptM3 with GC (2021)
Angular Grid (max. ang.)         AngularGrid ... 2 (Lebedev-110)
Angular grid pruning method      GridPruning ... 4 (adaptive)
Weight generation scheme         WeightScheme... Becke
Basis function cutoff            BFCut       ... 1.0000e-11
Integration weight cutoff        WCut        ... 1.0000e-14
Angular grids for H and He will be reduced by one unit
Partially contracted basis set               ... on
Rotationally invariant grid construction     ... off

Total number of grid points                  ...    40145
Total number of batches                      ...      643
Average number of points per batch           ...       62
Average number of grid points per atom       ...     1255
UseSFitting                                  ... on

GRIDX 3
-------
General Integration Accuracy     IntAcc      ... 4.338
Radial Grid Type                 RadialGrid  ... OptM3 with GC (2021)
Angular Grid (max. ang.)         AngularGrid ... 3 (Lebedev-194)
Angular grid pruning method      GridPruning ... 4 (adaptive)
Weight generation scheme         WeightScheme... Becke
Basis function cutoff            BFCut       ... 1.0000e-11
Integration weight cutoff        WCut        ... 1.0000e-14
Angular grids for H and He will be reduced by one unit
Partially contracted basis set               ... on
Rotationally invariant grid construction     ... off

Total number of grid points                  ...    87627
Total number of batches                      ...     1385
Average number of points per batch           ...       63
Average number of grid points per atom       ...     2738
UseSFitting                                  ... on

Time for X-Grid setup             =    1.191 sec


--------------------
CPCM SOLVATION MODEL
--------------------
CPCM parameters:
  Epsilon                                         ...      80.4000
  Refrac                                          ...       1.3300
  Rsolv                                           ...       1.3000
  Surface type                                    ... GAUSSIAN VDW
  Epsilon function type                           ...         CPCM
Radii:
 Radius for C  used is    3.8550 Bohr (=   2.0400 Ang.)
 Radius for H  used is    2.4944 Bohr (=   1.3200 Ang.)
 Radius for N  used is    3.5149 Bohr (=   1.8600 Ang.)
 Radius for O  used is    3.4469 Bohr (=   1.8240 Ang.)
Calculating surface                               ...        done! (  0.0s)
GEPOL surface points                              ...         1686
GEPOL Volume                                      ...    1857.3414
GEPOL Surface-area                                ...     966.5322
Calculating surface distance matrix               ...        done! (  0.0s)
Performing Cholesky decomposition & store         ...        done! (  0.1s)
Overall time for CPCM initialization              ...                 0.1s
--------------
SCF ITERATIONS
--------------
ITER       Energy         Delta-E        Max-DP      RMS-DP      [F,P]     Damp
               ***  Starting incremental Fock matrix formation  ***
  0   -726.0222889626   0.000000000000 0.09294178  0.00200433  0.2689421 0.7000
  1   -726.2201362051  -0.197847242461 0.05194489  0.00134109  0.1078469 0.7000
                               ***Turning on DIIS***
  2   -726.2979503469  -0.077814141794 0.06225719  0.00209900  0.0368530 0.0000
  3   -726.4233004000  -0.125350053136 0.03570938  0.00091775  0.0550768 0.0000
  4   -726.4477503266  -0.024449926585 0.00888456  0.00029538  0.0137648 0.0000
  5   -726.4496277854  -0.001877458838 0.00353695  0.00009008  0.0052773 0.0000
                      *** Initiating the SOSCF procedure ***
                           *** Shutting down DIIS ***
                      *** Re-Reading the Fockian *** 
                      *** Removing any level shift *** 
ITER      Energy       Delta-E        Grad      Rot      Max-DP    RMS-DP
  6   -726.44972605  -0.0000982629  0.000209  0.000209  0.001304  0.000040
               *** Restarting incremental Fock matrix formation ***
  7   -726.44967641   0.0000496369  0.000210  0.000808  0.001636  0.000024
  8   -726.44967152   0.0000048914  0.000408  0.000592  0.001101  0.000015
  9   -726.44967938  -0.0000078640  0.000040  0.000113  0.000271  0.000004
 10   -726.44967920   0.0000001793  0.000076  0.000073  0.000193  0.000003
 11   -726.44967944  -0.0000002387  0.000004  0.000014  0.000023  0.000001
 12   -726.44967944  -0.0000000013  0.000006  0.000010  0.000014  0.000000
                  ***Gradient check signals convergence***
              ***Rediagonalizing the Fockian in SOSCF/NRSCF***

               *****************************************************
               *                     SUCCESS                       *
               *           SCF CONVERGED AFTER  13 CYCLES          *
               *****************************************************

Old exchange energy                            =    -19.537855953 Eh
New exchange energy                            =    -19.537921697 Eh
Exchange energy change after final integration =     -0.000065744 Eh
Total energy after final integration           =   -726.449745182 Eh
Final COS-X integration done in                =    10.619 sec

----------------
TOTAL SCF ENERGY
----------------

Total Energy       :         -726.44974518 Eh          -19767.70254 eV

Components:
Nuclear Repulsion  :         1118.78318204 Eh           30443.63811 eV
Electronic Energy  :        -1845.23292722 Eh          -50211.34064 eV
One Electron Energy:        -3209.24836149 Eh          -87328.08759 eV
Two Electron Energy:         1364.01543426 Eh           37116.74695 eV
Max COSX asymmetry :            0.00000188 Eh               0.00005 eV
CPCM Dielectric    :           -0.01832017 Eh              -0.49852 eV

Virial components:
Potential Energy   :        -1448.59282928 Eh          -39418.21487 eV
Kinetic Energy     :          722.14308410 Eh           19650.51233 eV
Virial Ratio       :            2.00596372


DFT components:
N(Alpha)           :       58.999979005278 electrons
N(Beta)            :       58.999979005278 electrons
N(Total)           :      117.999958010555 electrons
E(X)               :      -77.591268622115 Eh       
E(C)               :       -4.705450843240 Eh       
E(XC)              :      -82.296719465356 Eh       
DFET-embed. en.    :        0.000000000000 Eh       
CPCM Solvation Model Properties:
Surface-charge          :           -0.02140863
Charge-correction       :           -0.00026579 Eh              -0.00723 eV
Free-energy (cav+disp)  :  This term is not implemented in the current solvation scheme

---------------
SCF CONVERGENCE
---------------

  Last Energy change         ...    6.1473e-09  Tolerance :   1.0000e-08
  Last MAX-Density change    ...    4.8850e-15  Tolerance :   1.0000e-07
  Last RMS-Density change    ...    4.8038e-17  Tolerance :   5.0000e-09
  Last Orbital Gradient      ...    7.7600e-07  Tolerance :   1.0000e-05
  Last Orbital Rotation      ...    2.3578e-06  Tolerance :   1.0000e-05

             **** THE GBW FILE WAS UPDATED (Nfn_water.gbw) ****
             **** DENSITY Nfn_water.scfp WAS UPDATED ****
             **** ENERGY FILE WAS UPDATED (Nfn_water.en.tmp) ****
             **** THE GBW FILE WAS UPDATED (Nfn_water.gbw) ****
             **** DENSITY Nfn_water.scfp WAS UPDATED ****
----------------
ORBITAL ENERGIES
----------------

  NO   OCC          E(Eh)            E(eV) 
   0   2.0000     -19.114184      -520.1234 
   1   2.0000     -19.108234      -519.9615 
   2   2.0000     -14.360114      -390.7586 
   3   2.0000     -14.355310      -390.6278 
   4   2.0000     -10.284412      -279.8531 
   5   2.0000     -10.278295      -279.6866 
   6   2.0000     -10.221173      -278.1323 
   7   2.0000     -10.213952      -277.9358 
   8   2.0000     -10.197627      -277.4915 
   9   2.0000     -10.193921      -277.3907 
  10   2.0000     -10.183795      -277.1151 
  11   2.0000     -10.183292      -277.1015 
  12   2.0000     -10.182882      -277.0903 
  13   2.0000     -10.182132      -277.0699 
  14   2.0000     -10.179398      -276.9955 
  15   2.0000     -10.171208      -276.7726 
  16   2.0000      -1.038158       -28.2497 
  17   2.0000      -1.023668       -27.8554 
  18   2.0000      -0.939703       -25.5706 
  19   2.0000      -0.925542       -25.1853 
  20   2.0000      -0.845390       -23.0042 
  21   2.0000      -0.761951       -20.7337 
  22   2.0000      -0.744450       -20.2575 
  23   2.0000      -0.740720       -20.1560 
  24   2.0000      -0.717240       -19.5171 
  25   2.0000      -0.702302       -19.1106 
  26   2.0000      -0.667908       -18.1747 
  27   2.0000      -0.619348       -16.8533 
  28   2.0000      -0.605861       -16.4863 
  29   2.0000      -0.557736       -15.1768 
  30   2.0000      -0.533382       -14.5141 
  31   2.0000      -0.512755       -13.9528 
  32   2.0000      -0.501609       -13.6495 
  33   2.0000      -0.489561       -13.3216 
  34   2.0000      -0.474006       -12.8984 
  35   2.0000      -0.461984       -12.5712 
  36   2.0000      -0.457492       -12.4490 
  37   2.0000      -0.451203       -12.2778 
  38   2.0000      -0.438620       -11.9355 
  39   2.0000      -0.431412       -11.7393 
  40   2.0000      -0.418447       -11.3865 
  41   2.0000      -0.409887       -11.1536 
  42   2.0000      -0.402824       -10.9614 
  43   2.0000      -0.398336       -10.8393 
  44   2.0000      -0.396424       -10.7872 
  45   2.0000      -0.391758       -10.6603 
  46   2.0000      -0.388942       -10.5836 
  47   2.0000      -0.370192       -10.0734 
  48   2.0000      -0.365255        -9.9391 
  49   2.0000      -0.362575        -9.8662 
  50   2.0000      -0.352374        -9.5886 
  51   2.0000      -0.345785        -9.4093 
  52   2.0000      -0.338861        -9.2209 
  53   2.0000      -0.270864        -7.3706 
  54   2.0000      -0.260031        -7.0758 
  55   2.0000      -0.251609        -6.8466 
  56   2.0000      -0.248476        -6.7614 
  57   2.0000      -0.236936        -6.4474 
  58   2.0000      -0.231217        -6.2917 
  59   0.0000      -0.008395        -0.2285 
  60   0.0000      -0.002825        -0.0769 
  61   0.0000       0.020152         0.5484 
  62   0.0000       0.028178         0.7668 
  63   0.0000       0.099840         2.7168 
  64   0.0000       0.110102         2.9960 
  65   0.0000       0.127125         3.4593 
  66   0.0000       0.139515         3.7964 
  67   0.0000       0.145817         3.9679 
  68   0.0000       0.147431         4.0118 
  69   0.0000       0.152895         4.1605 
  70   0.0000       0.158370         4.3095 
  71   0.0000       0.165246         4.4966 
  72   0.0000       0.168650         4.5892 
  73   0.0000       0.171508         4.6670 
  74   0.0000       0.177927         4.8416 
  75   0.0000       0.183567         4.9951 
  76   0.0000       0.185209         5.0398 
  77   0.0000       0.193000         5.2518 
  78   0.0000       0.202871         5.5204 
  79   0.0000       0.210219         5.7203 
  80   0.0000       0.214100         5.8259 
  81   0.0000       0.227815         6.1992 
  82   0.0000       0.228857         6.2275 
  83   0.0000       0.242873         6.6089 
  84   0.0000       0.269353         7.3295 
  85   0.0000       0.282257         7.6806 
  86   0.0000       0.289231         7.8704 
  87   0.0000       0.308363         8.3910 
  88   0.0000       0.330603         8.9962 
  89   0.0000       0.339191         9.2298 
  90   0.0000       0.359192         9.7741 
  91   0.0000       0.372174        10.1274 
  92   0.0000       0.402313        10.9475 
  93   0.0000       0.406752        11.0683 
  94   0.0000       0.468250        12.7417 
  95   0.0000       0.494565        13.4578 
  96   0.0000       0.509095        13.8532 
  97   0.0000       0.517118        14.0715 
  98   0.0000       0.522741        14.2245 
  99   0.0000       0.528753        14.3881 
 100   0.0000       0.538767        14.6606 
 101   0.0000       0.540253        14.7010 
 102   0.0000       0.555715        15.1218 
 103   0.0000       0.558142        15.1878 
 104   0.0000       0.566455        15.4140 
 105   0.0000       0.576242        15.6803 
 106   0.0000       0.581514        15.8238 
 107   0.0000       0.589855        16.0508 
 108   0.0000       0.592490        16.1225 
 109   0.0000       0.600074        16.3288 
 110   0.0000       0.616676        16.7806 
 111   0.0000       0.622549        16.9404 
 112   0.0000       0.623642        16.9702 
 113   0.0000       0.633750        17.2452 
 114   0.0000       0.639519        17.4022 
 115   0.0000       0.649655        17.6780 
 116   0.0000       0.656577        17.8664 
 117   0.0000       0.674820        18.3628 
 118   0.0000       0.693208        18.8632 
 119   0.0000       0.699290        19.0287 
 120   0.0000       0.719251        19.5718 
 121   0.0000       0.732954        19.9447 
 122   0.0000       0.754592        20.5335 
 123   0.0000       0.763142        20.7661 
 124   0.0000       0.784570        21.3492 
 125   0.0000       0.795560        21.6483 
 126   0.0000       0.817507        22.2455 
 127   0.0000       0.825480        22.4624 
 128   0.0000       0.833632        22.6843 
 129   0.0000       0.835716        22.7410 
 130   0.0000       0.842456        22.9244 
 131   0.0000       0.847646        23.0656 
 132   0.0000       0.853226        23.2175 
 133   0.0000       0.862543        23.4710 
 134   0.0000       0.872529        23.7427 
 135   0.0000       0.893063        24.3015 
 136   0.0000       0.897526        24.4229 
 137   0.0000       0.905871        24.6500 
 138   0.0000       0.911892        24.8138 
 139   0.0000       0.916969        24.9520 
 140   0.0000       0.931904        25.3584 
 141   0.0000       0.933745        25.4085 
 142   0.0000       0.941994        25.6329 
 143   0.0000       0.947815        25.7913 
 144   0.0000       0.954935        25.9851 
 145   0.0000       0.958103        26.0713 
 146   0.0000       0.972037        26.4505 
 147   0.0000       0.976062        26.5600 
 148   0.0000       0.992032        26.9946 
 149   0.0000       1.022863        27.8335 
 150   0.0000       1.027973        27.9726 
 151   0.0000       1.043966        28.4078 
 152   0.0000       1.055341        28.7173 
 153   0.0000       1.070892        29.1405 
 154   0.0000       1.092345        29.7242 
 155   0.0000       1.109079        30.1796 
 156   0.0000       1.123626        30.5754 
 157   0.0000       1.145718        31.1766 
 158   0.0000       1.153292        31.3827 
 159   0.0000       1.187324        32.3087 
 160   0.0000       1.203036        32.7363 
 161   0.0000       1.224338        33.3159 
 162   0.0000       1.239643        33.7324 
 163   0.0000       1.259335        34.2682 
 164   0.0000       1.302839        35.4521 
 165   0.0000       1.327326        36.1184 
 166   0.0000       1.337278        36.3892 
 167   0.0000       1.341772        36.5115 
 168   0.0000       1.385588        37.7038 
 169   0.0000       1.391529        37.8654 
 170   0.0000       1.426268        38.8107 
 171   0.0000       1.434264        39.0283 
 172   0.0000       1.439694        39.1761 
 173   0.0000       1.449809        39.4513 
 174   0.0000       1.457978        39.6736 
 175   0.0000       1.488794        40.5121 
 176   0.0000       1.493534        40.6411 
 177   0.0000       1.504558        40.9411 
 178   0.0000       1.515295        41.2333 
 179   0.0000       1.553009        42.2595 
 180   0.0000       1.566410        42.6242 
 181   0.0000       1.610128        43.8138 
 182   0.0000       1.643338        44.7175 
 183   0.0000       1.702587        46.3298 
 184   0.0000       1.719976        46.8029 
 185   0.0000       1.763334        47.9828 
 186   0.0000       1.777539        48.3693 
 187   0.0000       1.801059        49.0093 
 188   0.0000       1.808848        49.2212 
 189   0.0000       1.821272        49.5593 
 190   0.0000       1.837283        49.9950 
 191   0.0000       1.851731        50.3882 
 192   0.0000       1.865157        50.7535 
 193   0.0000       1.870571        50.9008 
 194   0.0000       1.878017        51.1034 
 195   0.0000       1.897952        51.6459 
 196   0.0000       1.915716        52.1293 
 197   0.0000       1.931062        52.5469 
 198   0.0000       1.944239        52.9054 
 199   0.0000       1.946092        52.9558 
 200   0.0000       1.968268        53.5593 
 201   0.0000       1.976522        53.7839 
 202   0.0000       1.983965        53.9864 
 203   0.0000       1.986269        54.0491 
 204   0.0000       2.002422        54.4887 
 205   0.0000       2.033052        55.3221 
 206   0.0000       2.036183        55.4074 
 207   0.0000       2.068224        56.2792 
 208   0.0000       2.073469        56.4220 
 209   0.0000       2.080803        56.6215 
 210   0.0000       2.093781        56.9747 
 211   0.0000       2.126112        57.8545 
 212   0.0000       2.132099        58.0174 
 213   0.0000       2.147369        58.4329 
 214   0.0000       2.159409        58.7605 
 215   0.0000       2.174053        59.1590 
 216   0.0000       2.202408        59.9306 
 217   0.0000       2.212221        60.1976 
 218   0.0000       2.230475        60.6943 
 219   0.0000       2.251310        61.2613 
 220   0.0000       2.276408        61.9442 
 221   0.0000       2.285642        62.1955 
 222   0.0000       2.293564        62.4110 
 223   0.0000       2.305672        62.7405 
 224   0.0000       2.326452        63.3060 
 225   0.0000       2.327649        63.3386 
 226   0.0000       2.360377        64.2291 
 227   0.0000       2.366267        64.3894 
 228   0.0000       2.418659        65.8151 
 229   0.0000       2.438616        66.3581 
 230   0.0000       2.456878        66.8550 
 231   0.0000       2.465735        67.0961 
 232   0.0000       2.496828        67.9422 
 233   0.0000       2.572062        69.9894 
 234   0.0000       2.584961        70.3404 
 235   0.0000       2.595147        70.6175 
 236   0.0000       2.614286        71.1383 
 237   0.0000       2.625519        71.4440 
 238   0.0000       2.632582        71.6362 
 239   0.0000       2.656164        72.2779 
 240   0.0000       2.676772        72.8387 
 241   0.0000       2.697616        73.4059 
 242   0.0000       2.723648        74.1142 
 243   0.0000       2.735567        74.4386 
 244   0.0000       2.743513        74.6548 
 245   0.0000       2.753149        74.9170 
 246   0.0000       2.820054        76.7376 
 247   0.0000       2.859722        77.8170 
 248   0.0000       2.935691        79.8842 
 249   0.0000       2.955375        80.4198 
 250   0.0000       3.025797        82.3361 
 251   0.0000       3.038246        82.6749 
 252   0.0000       3.120415        84.9108 
 253   0.0000       3.166481        86.1643 
 254   0.0000       3.197537        87.0094 
 255   0.0000       3.423451        93.1568 

                    ********************************
                    * MULLIKEN POPULATION ANALYSIS *
                    ********************************

-----------------------
MULLIKEN ATOMIC CHARGES
-----------------------
   0 C :   -0.556051
   1 H :    0.198176
   2 H :    0.178950
   3 H :    0.191691
   4 C :    0.525673
   5 N :   -0.430342
   6 C :    0.201232
   7 C :   -0.150522
   8 C :   -0.150372
   9 C :   -0.164205
  10 H :    0.161820
  11 C :   -0.166158
  12 H :    0.169212
  13 C :   -0.135741
  14 H :    0.158060
  15 H :    0.156628
  16 H :    0.155524
  17 C :   -0.249957
  18 H :    0.199997
  19 H :    0.190803
  20 C :    0.557173
  21 N :   -0.376790
  22 O :   -0.538849
  23 O :   -0.525949
  24 C :   -0.345381
  25 H :    0.186991
  26 H :    0.180973
  27 H :    0.183496
  28 C :   -0.330701
  29 H :    0.173177
  30 H :    0.170026
  31 H :    0.181418
Sum of atomic charges:    0.0000000

--------------------------------
MULLIKEN REDUCED ORBITAL CHARGES
--------------------------------
  0 C s       :     3.316164  s :     3.316164
      pz      :     1.063117  p :     3.207829
      px      :     1.065059
      py      :     1.079653
      dz2     :     0.001249  d :     0.032057
      dxz     :     0.009940
      dyz     :     0.009545
      dx2y2   :     0.002205
      dxy     :     0.009119
  1 H s       :     0.801824  s :     0.801824
  2 H s       :     0.821050  s :     0.821050
  3 H s       :     0.808309  s :     0.808309
  4 C s       :     2.986630  s :     2.986630
      pz      :     0.807556  p :     2.379914
      px      :     0.786577
      py      :     0.785781
      dz2     :     0.012152  d :     0.107782
      dxz     :     0.027805
      dyz     :     0.011410
      dx2y2   :     0.027659
      dxy     :     0.028756
  5 N s       :     3.548941  s :     3.548941
      pz      :     1.429747  p :     3.843332
      px      :     1.141810
      py      :     1.271776
      dz2     :     0.005076  d :     0.038068
      dxz     :     0.007994
      dyz     :     0.005945
      dx2y2   :     0.009191
      dxy     :     0.009862
  6 C s       :     3.093128  s :     3.093128
      pz      :     0.965189  p :     2.649429
      px      :     0.776144
      py      :     0.908097
      dz2     :     0.007335  d :     0.056211
      dxz     :     0.011489
      dyz     :     0.006534
      dx2y2   :     0.015343
      dxy     :     0.015510
  7 C s       :     3.200772  s :     3.200772
      pz      :     0.978367  p :     2.914271
      px      :     0.944893
      py      :     0.991011
      dz2     :     0.003410  d :     0.035480
      dxz     :     0.007580
      dyz     :     0.005578
      dx2y2   :     0.009648
      dxy     :     0.009263
  8 C s       :     3.201960  s :     3.201960
      pz      :     0.977368  p :     2.913192
      px      :     0.958923
      py      :     0.976902
      dz2     :     0.003797  d :     0.035220
      dxz     :     0.006830
      dyz     :     0.005417
      dx2y2   :     0.009757
      dxy     :     0.009419
  9 C s       :     3.208592  s :     3.208592
      pz      :     0.985158  p :     2.919451
      px      :     0.980701
      py      :     0.953592
      dz2     :     0.003695  d :     0.036162
      dxz     :     0.007213
      dyz     :     0.005263
      dx2y2   :     0.009258
      dxy     :     0.010733
 10 H s       :     0.838180  s :     0.838180
 11 C s       :     3.211951  s :     3.211951
      pz      :     0.986996  p :     2.918037
      px      :     0.927822
      py      :     1.003218
      dz2     :     0.003335  d :     0.036170
      dxz     :     0.006954
      dyz     :     0.005768
      dx2y2   :     0.010901
      dxy     :     0.009212
 12 H s       :     0.830788  s :     0.830788
 13 C s       :     3.196952  s :     3.196952
      pz      :     0.971018  p :     2.902710
      px      :     0.980259
      py      :     0.951433
      dz2     :     0.005810  d :     0.036079
      dxz     :     0.004664
      dyz     :     0.005179
      dx2y2   :     0.010160
      dxy     :     0.010265
 14 H s       :     0.841940  s :     0.841940
 15 H s       :     0.843372  s :     0.843372
 16 H s       :     0.844476  s :     0.844476
 17 C s       :     3.241262  s :     3.241262
      pz      :     0.995503  p :     2.956390
      px      :     0.928147
      py      :     1.032740
      dz2     :     0.005514  d :     0.052304
      dxz     :     0.014826
      dyz     :     0.012436
      dx2y2   :     0.005592
      dxy     :     0.013937
 18 H s       :     0.800003  s :     0.800003
 19 H s       :     0.809197  s :     0.809197
 20 C s       :     2.988508  s :     2.988508
      pz      :     0.780628  p :     2.346679
      px      :     0.767638
      py      :     0.798413
      dz2     :     0.023208  d :     0.107640
      dxz     :     0.031500
      dyz     :     0.015400
      dx2y2   :     0.018236
      dxy     :     0.019296
 21 N s       :     3.545159  s :     3.545159
      pz      :     1.304042  p :     3.794140
      px      :     1.087030
      py      :     1.403068
      dz2     :     0.006622  d :     0.037492
      dxz     :     0.009528
      dyz     :     0.005472
      dx2y2   :     0.008515
      dxy     :     0.007354
 22 O s       :     3.866498  s :     3.866498
      pz      :     1.433777  p :     4.647572
      px      :     1.734003
      py      :     1.479793
      dz2     :     0.007816  d :     0.024780
      dxz     :     0.005204
      dyz     :     0.006437
      dx2y2   :     0.002682
      dxy     :     0.002641
 23 O s       :     3.860514  s :     3.860514
      pz      :     1.617823  p :     4.640554
      px      :     1.367850
      py      :     1.654882
      dz2     :     0.002450  d :     0.024881
      dxz     :     0.006919
      dyz     :     0.000895
      dx2y2   :     0.007204
      dxy     :     0.007413
 24 C s       :     3.269715  s :     3.269715
      pz      :     0.975580  p :     3.027867
      px      :     1.073570
      py      :     0.978716
      dz2     :     0.014259  d :     0.047800
      dxz     :     0.005132
      dyz     :     0.009742
      dx2y2   :     0.013440
      dxy     :     0.005226
 25 H s       :     0.813009  s :     0.813009
 26 H s       :     0.819027  s :     0.819027
 27 H s       :     0.816504  s :     0.816504
 28 C s       :     3.259514  s :     3.259514
      pz      :     0.969256  p :     3.022993
      px      :     0.980236
      py      :     1.073502
      dz2     :     0.005028  d :     0.048193
      dxz     :     0.014165
      dyz     :     0.012999
      dx2y2   :     0.005876
      dxy     :     0.010126
 29 H s       :     0.826823  s :     0.826823
 30 H s       :     0.829974  s :     0.829974
 31 H s       :     0.818582  s :     0.818582


                     *******************************
                     * LOEWDIN POPULATION ANALYSIS *
                     *******************************

----------------------
LOEWDIN ATOMIC CHARGES
----------------------
   0 C :   -0.392705
   1 H :    0.159732
   2 H :    0.149192
   3 H :    0.156516
   4 C :    0.126306
   5 N :   -0.046051
   6 C :    0.011512
   7 C :   -0.136222
   8 C :   -0.142970
   9 C :   -0.132608
  10 H :    0.147612
  11 C :   -0.132213
  12 H :    0.151721
  13 C :   -0.134526
  14 H :    0.144206
  15 H :    0.143085
  16 H :    0.143323
  17 C :   -0.172513
  18 H :    0.161619
  19 H :    0.150543
  20 C :    0.110157
  21 N :   -0.079410
  22 O :   -0.335403
  23 O :   -0.324765
  24 C :   -0.283050
  25 H :    0.138678
  26 H :    0.145464
  27 H :    0.139195
  28 C :   -0.279143
  29 H :    0.136989
  30 H :    0.130824
  31 H :    0.144903

-------------------------------
LOEWDIN REDUCED ORBITAL CHARGES
-------------------------------
  0 C s       :     2.979973  s :     2.979973
      pz      :     1.112239  p :     3.349538
      px      :     1.111286
      py      :     1.126013
      dz2     :     0.002405  d :     0.063194
      dxz     :     0.020040
      dyz     :     0.018299
      dx2y2   :     0.004353
      dxy     :     0.018096
  1 H s       :     0.840268  s :     0.840268
  2 H s       :     0.850808  s :     0.850808
  3 H s       :     0.843484  s :     0.843484
  4 C s       :     2.850204  s :     2.850204
      pz      :     0.875288  p :     2.769641
      px      :     0.996542
      py      :     0.897811
      dz2     :     0.027030  d :     0.253849
      dxz     :     0.064594
      dyz     :     0.026601
      dx2y2   :     0.066631
      dxy     :     0.068994
  5 N s       :     3.079908  s :     3.079908
      pz      :     1.417756  p :     3.868634
      px      :     1.164075
      py      :     1.286803
      dz2     :     0.011499  d :     0.097509
      dxz     :     0.019509
      dyz     :     0.015760
      dx2y2   :     0.024224
      dxy     :     0.026516
  6 C s       :     2.854697  s :     2.854697
      pz      :     1.017155  p :     2.996250
      px      :     0.939466
      py      :     1.039629
      dz2     :     0.016051  d :     0.137541
      dxz     :     0.026916
      dyz     :     0.016048
[...]
     61      -0.000019  -0.000333  -0.000013  -0.000013   0.000035   0.000086
     62      -0.000024  -0.001143   0.000001  -0.000010   0.000037   0.000232
     63       0.000005   0.000161   0.000002   0.000001  -0.000015   0.000080
     64       0.000006  -0.000062   0.000003   0.000004  -0.000013   0.000016
     65       0.000008  -0.000213   0.000000   0.000006  -0.000010  -0.000057
     66       0.000046   0.000681   0.000069   0.000074  -0.000089  -0.000223
     67       0.000003   0.000407  -0.000010  -0.000004   0.000002  -0.000020
     68       0.000016   0.000471   0.000008   0.000014  -0.000022  -0.000144
     69       0.000057   0.000009  -0.000002   0.000053  -0.000066   0.000042
     70      -0.000041  -0.000008  -0.000010  -0.000017   0.000079  -0.000039
     71       0.000007   0.000002   0.000015  -0.000004  -0.000035   0.000029
     72      -0.000067  -0.001271  -0.000007  -0.000011   0.000042  -0.000025
     73      -0.000017   0.000553  -0.000006  -0.000009   0.000011   0.000032
     74      -0.000026  -0.000515  -0.000001  -0.000001   0.000006   0.000038
     75       0.000044   0.002674  -0.000008  -0.000006  -0.000054   0.000291
     76      -0.000101  -0.005033   0.000011   0.000011   0.000103  -0.000492
     77      -0.000008   0.000477  -0.000000  -0.000002   0.000014  -0.000074
     78       0.000234  -0.000051   0.000056   0.000096  -0.000204   0.000147
     79       0.000271   0.000308   0.000056   0.000097  -0.000215   0.000169
     80      -0.000115   0.001392  -0.000023  -0.000038   0.000092  -0.000153
     81       0.000523   0.012677   0.000045   0.000056  -0.000244  -0.000150
     82       0.000033   0.000647  -0.000000  -0.000003  -0.000005  -0.000021
     83       0.000450   0.010720   0.000054   0.000068  -0.000238  -0.000194
     84      -0.000050   0.047482  -0.000010  -0.000004  -0.000001  -0.000046
     85       0.000005  -0.007521   0.000003  -0.000001   0.000004  -0.000029
     86       0.000071  -0.076437   0.000015   0.000003   0.000021  -0.000013
     87       0.000085  -0.053937   0.000012   0.000016  -0.000043   0.000207
     88       0.000246  -0.183763   0.000037   0.000036  -0.000073   0.000465
     89      -0.000100   0.077444  -0.000020  -0.000021   0.000023  -0.000143
     90       0.000196  -0.134206   0.000051   0.000039  -0.000102   0.000336
     91      -0.000145   0.114594  -0.000033  -0.000018   0.000042  -0.000221
     92       0.000037  -0.024315   0.000007   0.000007  -0.000021   0.000063
     93       0.000355  -0.392086   0.000067  -0.000000   0.000116  -0.000047
     94      -0.000149   0.154866  -0.000035  -0.000012  -0.000028   0.000007
     95      -0.000808   0.859885  -0.000178  -0.000037  -0.000192   0.000104


-----------
IR SPECTRUM
-----------

 Mode   freq       eps      Int      T**2         TX        TY        TZ
       cm**-1   L/(mol*cm) km/mol    a.u.
----------------------------------------------------------------------------
  6:     24.91   0.000470    2.37  0.005883  ( 0.011564 -0.064091  0.040523)
  7:     32.70   0.000531    2.69  0.005071  ( 0.003295  0.070474 -0.009659)
  8:     61.35   0.000861    4.35  0.004380  (-0.047297  0.035796 -0.029348)
  9:     71.18   0.000845    4.27  0.003706  ( 0.038268  0.023615  0.041040)
 10:     84.27   0.000655    3.31  0.002424  ( 0.019762  0.040557  0.019721)
 11:     96.89   0.000671    3.39  0.002162  (-0.005874  0.045522  0.007419)
 12:    106.45   0.000641    3.24  0.001880  (-0.011416  0.012168  0.040023)
 13:    114.37   0.000769    3.89  0.002098  (-0.036199 -0.023528 -0.015311)
 14:    136.02   0.000184    0.93  0.000422  (-0.009751 -0.009750 -0.015237)
 15:    138.02   0.000815    4.12  0.001844  ( 0.033820 -0.020044  0.017267)
 16:    222.82   0.000664    3.36  0.000930  ( 0.003673 -0.028362  0.010608)
 17:    229.54   0.000775    3.92  0.001054  ( 0.000901  0.030552 -0.010934)
 18:    248.92   0.000146    0.74  0.000182  ( 0.001604 -0.012296  0.005358)
 19:    275.51   0.001763    8.91  0.001997  (-0.013202 -0.033267  0.026759)
 20:    336.99   0.000597    3.02  0.000553  (-0.016922  0.008956 -0.013647)
 21:    388.40   0.006484   32.77  0.005210  (-0.062244 -0.036547 -0.000115)
 22:    404.28   0.002806   14.18  0.002166  (-0.011771  0.037613 -0.024744)
 23:    424.92   0.000050    0.25  0.000037  ( 0.005489 -0.002443 -0.000838)
 24:    443.64   0.000073    0.37  0.000051  ( 0.005379  0.000663 -0.004656)
 25:    449.75   0.001086    5.49  0.000753  (-0.018549 -0.016528 -0.011660)
 26:    505.82   0.002099   10.61  0.001295  (-0.018931 -0.016884  0.025527)
 27:    553.32   0.005008   25.31  0.002824  (-0.008411 -0.038960  0.035154)
 28:    588.17   0.008239   41.64  0.004371  ( 0.049299  0.017379 -0.040483)
 29:    593.21   0.000579    2.93  0.000305  (-0.000801  0.011735  0.012899)
 30:    620.91   0.002990   15.11  0.001503  ( 0.030481  0.004956  0.023437)
 31:    635.48   0.000811    4.10  0.000398  (-0.013828  0.004583 -0.013636)
 32:    662.99   0.000906    4.58  0.000427  (-0.010420  0.015393  0.009000)
 33:    716.37   0.009569   48.36  0.004169  ( 0.026810  0.025172 -0.053067)
 34:    747.08   0.002087   10.55  0.000872  ( 0.008504  0.014808 -0.024087)
 35:    793.57   0.004251   21.48  0.001672  (-0.004057 -0.007981  0.039893)
 36:    822.61   0.004518   22.83  0.001714  ( 0.012459 -0.008549 -0.038543)
 37:    865.41   0.000065    0.33  0.000024  ( 0.002520 -0.003798  0.001654)
 38:    923.83   0.001779    8.99  0.000601  (-0.013707  0.016014 -0.012514)
 39:    945.33   0.000472    2.39  0.000156  (-0.001545 -0.003141  0.011985)
 40:    972.17   0.000432    2.18  0.000139  (-0.007383 -0.008855  0.002385)
 41:    984.96   0.000012    0.06  0.000004  (-0.000604 -0.001083  0.001460)
 42:   1007.97   0.001472    7.44  0.000456  ( 0.016269 -0.013435  0.003235)
 43:   1009.35   0.006457   32.63  0.001996  ( 0.028524 -0.030929  0.015040)
 44:   1018.95   0.000260    1.31  0.000079  ( 0.007695 -0.004259 -0.001460)
 45:   1041.99   0.006264   31.65  0.001876  ( 0.022037 -0.031607  0.019781)
 46:   1061.28   0.003162   15.98  0.000930  (-0.013652 -0.025367 -0.009996)
 47:   1064.04   0.002231   11.27  0.000654  (-0.013862  0.000946  0.021475)
 48:   1088.94   0.003127   15.80  0.000896  ( 0.011161 -0.011169 -0.025432)
 49:   1102.21   0.002740   13.85  0.000776  ( 0.013078 -0.011767 -0.021593)
 50:   1131.93   0.002527   12.77  0.000697  (-0.020869 -0.003007  0.015874)
 51:   1140.27   0.010754   54.35  0.002943  (-0.048859 -0.021001  0.010721)
 52:   1171.82   0.025648  129.62  0.006830  (-0.075639 -0.024576  0.022472)
 53:   1181.88   0.009375   47.38  0.002475  ( 0.047800  0.013711  0.001579)
 54:   1182.82   0.000342    1.73  0.000090  ( 0.008246  0.004697 -0.000314)
 55:   1195.81   0.000133    0.67  0.000035  (-0.005063  0.002857 -0.000935)
 56:   1266.81   0.013930   70.40  0.003432  (-0.043835  0.035696 -0.015357)
 57:   1288.97   0.013897   70.23  0.003365  (-0.048202 -0.029868 -0.012209)
 58:   1329.74   0.013187   66.64  0.003095  ( 0.003954 -0.041983  0.036283)
 59:   1354.81   0.023896  120.76  0.005504  ( 0.020995  0.060122 -0.038061)
 60:   1359.57   0.007711   38.97  0.001770  ( 0.021667  0.022474 -0.028200)
 61:   1383.09   0.011017   55.67  0.002486  (-0.045125  0.006654  0.020129)
 62:   1408.91   0.004154   20.99  0.000920  ( 0.025499 -0.016422  0.000334)
 63:   1434.01   0.053431  270.02  0.011627  ( 0.004858  0.093247 -0.053933)
 64:   1442.60   0.010603   53.59  0.002294  (-0.045935  0.007090  0.011553)
 65:   1455.05   0.012911   65.25  0.002769  ( 0.044662  0.001076  0.027806)
 66:   1480.45   0.013391   67.67  0.002823  (-0.018150 -0.030497  0.039538)
 67:   1483.69   0.007623   38.52  0.001603  ( 0.038870  0.002587 -0.009261)
 68:   1489.45   0.004310   21.78  0.000903  ( 0.000747 -0.007695 -0.029038)
 69:   1492.76   0.000872    4.41  0.000182  (-0.000994 -0.006518 -0.011782)
 70:   1498.11   0.005148   26.02  0.001072  ( 0.003066  0.000339 -0.032601)
 71:   1508.07   0.002825   14.28  0.000585  ( 0.019006  0.002981  0.014645)
 72:   1512.84   0.003254   16.44  0.000671  (-0.006396 -0.024998 -0.002312)
 73:   1522.94   0.001558    7.87  0.000319  (-0.001503  0.014909 -0.009735)
 74:   1542.52   0.021804  110.19  0.004411  (-0.055193  0.036284 -0.006947)
 75:   1551.96   0.017838   90.15  0.003587  (-0.057436 -0.016839  0.002090)
 76:   1639.97   0.001983   10.02  0.000377  (-0.002544  0.017006  0.009034)
 77:   1653.47   0.016727   84.53  0.003157  ( 0.049584 -0.026165  0.003698)
 78:   1713.76   0.151622  766.24  0.027609  ( 0.135529 -0.053755 -0.079698)
 79:   1726.34   0.071408  360.87  0.012908  ( 0.042632 -0.068894  0.079651)
 80:   3040.65   0.008556   43.24  0.000878  (-0.001915  0.020171  0.021623)
 81:   3046.64   0.017272   87.29  0.001769  (-0.041697  0.000764  0.005472)
 82:   3069.22   0.000706    3.57  0.000072  (-0.007393 -0.000309  0.004133)
 83:   3091.83   0.003632   18.35  0.000367  ( 0.013875  0.002370 -0.012978)
 84:   3098.31   0.009801   49.53  0.000987  (-0.003981  0.029434 -0.010248)
 85:   3114.13   0.005042   25.48  0.000505  (-0.004783 -0.019223  0.010621)
 86:   3134.52   0.001191    6.02  0.000119  ( 0.002244  0.005281  0.009253)
 87:   3142.75   0.000973    4.92  0.000097  (-0.007611  0.005628  0.002641)
 88:   3167.17   0.004509   22.79  0.000444  ( 0.008968 -0.016060  0.010294)
 89:   3174.25   0.003314   16.75  0.000326  ( 0.015405  0.002218  0.009141)
 90:   3190.90   0.000078    0.39  0.000008  (-0.000343 -0.002565 -0.000955)
 91:   3193.96   0.000858    4.34  0.000084  (-0.000287 -0.002546 -0.008789)
 92:   3199.09   0.002938   14.85  0.000287  (-0.010934 -0.009437 -0.008833)
 93:   3208.24   0.006587   33.29  0.000641  ( 0.012659 -0.021355 -0.004948)
 94:   3216.38   0.002794   14.12  0.000271  (-0.014333 -0.003260 -0.007418)
 95:   3226.09   0.001202    6.07  0.000116  ( 0.008236 -0.006855 -0.001196)

* The epsilon (eps) is given for a Dirac delta lineshape.
** The dipole moment derivative (T) already includes vibrational overlap.

The first frequency considered to be a vibration is 6
The total number of vibrations considered is 90


--------------------------
THERMOCHEMISTRY AT 298.15K
--------------------------

Temperature         ... 298.15 K
Pressure            ... 1.00 atm
Total Mass          ... 220.27 AMU

Throughout the following assumptions are being made:
  (1) The electronic state is orbitally nondegenerate
  (2) There are no thermally accessible electronically excited states
  (3) Hindered rotations indicated by low frequency modes are not
      treated as such but are treated as vibrations and this may
      cause some error
  (4) All equations used are the standard statistical mechanics
      equations for an ideal gas
  (5) All vibrations are strictly harmonic

freq.      24.91  E(vib)   ...       0.56 
freq.      32.70  E(vib)   ...       0.55 
freq.      61.35  E(vib)   ...       0.51 
freq.      71.18  E(vib)   ...       0.50 
freq.      84.27  E(vib)   ...       0.48 
freq.      96.89  E(vib)   ...       0.46 
freq.     106.45  E(vib)   ...       0.45 
freq.     114.37  E(vib)   ...       0.44 
freq.     136.02  E(vib)   ...       0.42 
freq.     138.02  E(vib)   ...       0.42 
freq.     222.82  E(vib)   ...       0.33 
freq.     229.54  E(vib)   ...       0.32 
freq.     248.92  E(vib)   ...       0.31 
freq.     275.51  E(vib)   ...       0.28 
freq.     336.99  E(vib)   ...       0.24 
freq.     388.40  E(vib)   ...       0.20 
freq.     404.28  E(vib)   ...       0.19 
freq.     424.92  E(vib)   ...       0.18 
freq.     443.64  E(vib)   ...       0.17 
freq.     449.75  E(vib)   ...       0.17 
freq.     505.82  E(vib)   ...       0.14 
freq.     553.32  E(vib)   ...       0.12 
freq.     588.17  E(vib)   ...       0.10 
freq.     593.21  E(vib)   ...       0.10 
freq.     620.91  E(vib)   ...       0.09 
freq.     635.48  E(vib)   ...       0.09 
freq.     662.99  E(vib)   ...       0.08 
freq.     716.37  E(vib)   ...       0.07 
freq.     747.08  E(vib)   ...       0.06 
freq.     793.57  E(vib)   ...       0.05 
freq.     822.61  E(vib)   ...       0.05 
freq.     865.41  E(vib)   ...       0.04 
freq.     923.83  E(vib)   ...       0.03 
freq.     945.33  E(vib)   ...       0.03 
freq.     972.17  E(vib)   ...       0.03 
freq.     984.96  E(vib)   ...       0.02 
freq.    1007.97  E(vib)   ...       0.02 
freq.    1009.35  E(vib)   ...       0.02 
freq.    1018.95  E(vib)   ...       0.02 
freq.    1041.99  E(vib)   ...       0.02 
freq.    1061.28  E(vib)   ...       0.02 
freq.    1064.04  E(vib)   ...       0.02 
freq.    1088.94  E(vib)   ...       0.02 
freq.    1102.21  E(vib)   ...       0.02 
freq.    1131.93  E(vib)   ...       0.01 
freq.    1140.27  E(vib)   ...       0.01 
freq.    1171.82  E(vib)   ...       0.01 
freq.    1181.88  E(vib)   ...       0.01 
freq.    1182.82  E(vib)   ...       0.01 
freq.    1195.81  E(vib)   ...       0.01 
freq.    1266.81  E(vib)   ...       0.01 
freq.    1288.97  E(vib)   ...       0.01 
freq.    1329.74  E(vib)   ...       0.01 
freq.    1354.81  E(vib)   ...       0.01 
freq.    1359.57  E(vib)   ...       0.01 
freq.    1383.09  E(vib)   ...       0.01 
freq.    1408.91  E(vib)   ...       0.00 
freq.    1434.01  E(vib)   ...       0.00 
freq.    1442.60  E(vib)   ...       0.00 
freq.    1455.05  E(vib)   ...       0.00 
freq.    1480.45  E(vib)   ...       0.00 
freq.    1483.69  E(vib)   ...       0.00 
freq.    1489.45  E(vib)   ...       0.00 
freq.    1492.76  E(vib)   ...       0.00 
freq.    1498.11  E(vib)   ...       0.00 
freq.    1508.07  E(vib)   ...       0.00 
freq.    1512.84  E(vib)   ...       0.00 
freq.    1522.94  E(vib)   ...       0.00 
freq.    1542.52  E(vib)   ...       0.00 
freq.    1551.96  E(vib)   ...       0.00 
freq.    1639.97  E(vib)   ...       0.00 
freq.    1653.47  E(vib)   ...       0.00 
freq.    1713.76  E(vib)   ...       0.00 
freq.    1726.34  E(vib)   ...       0.00 
freq.    3040.65  E(vib)   ...       0.00 
freq.    3046.64  E(vib)   ...       0.00 
freq.    3069.22  E(vib)   ...       0.00 
freq.    3091.83  E(vib)   ...       0.00 
freq.    3098.31  E(vib)   ...       0.00 
freq.    3114.13  E(vib)   ...       0.00 
freq.    3134.52  E(vib)   ...       0.00 
freq.    3142.75  E(vib)   ...       0.00 
freq.    3167.17  E(vib)   ...       0.00 
freq.    3174.25  E(vib)   ...       0.00 
freq.    3190.90  E(vib)   ...       0.00 
freq.    3193.96  E(vib)   ...       0.00 
freq.    3199.09  E(vib)   ...       0.00 
freq.    3208.24  E(vib)   ...       0.00 
freq.    3216.38  E(vib)   ...       0.00 
freq.    3226.09  E(vib)   ...       0.00 

------------
INNER ENERGY
------------

The inner energy is: U= E(el) + E(ZPE) + E(vib) + E(rot) + E(trans)
    E(el)   - is the total energy from the electronic structure calculation
              = E(kin-el) + E(nuc-el) + E(el-el) + E(nuc-nuc)
    E(ZPE)  - the the zero temperature vibrational energy from the frequency calculation
    E(vib)  - the the finite temperature correction to E(ZPE) due to population
              of excited vibrational states
    E(rot)  - is the rotational thermal energy
    E(trans)- is the translational thermal energy

Summary of contributions to the inner energy U:
Electronic energy                ...   -726.51277289 Eh
Zero point energy                ...      0.26762879 Eh     167.94 kcal/mol
Thermal vibrational correction   ...      0.01368364 Eh       8.59 kcal/mol
Thermal rotational correction    ...      0.00141627 Eh       0.89 kcal/mol
Thermal translational correction ...      0.00141627 Eh       0.89 kcal/mol
-----------------------------------------------------------------------
Total thermal energy                   -726.22862791 Eh


Summary of corrections to the electronic energy:
(perhaps to be used in another calculation)
Total thermal correction                  0.01651619 Eh      10.36 kcal/mol
Non-thermal (ZPE) correction              0.26762879 Eh     167.94 kcal/mol
-----------------------------------------------------------------------
Total correction                          0.28414498 Eh     178.30 kcal/mol


--------
ENTHALPY
--------

The enthalpy is H = U + kB*T
                kB is Boltzmann's constant
Total free energy                 ...   -726.22862791 Eh 
Thermal Enthalpy correction       ...      0.00094421 Eh       0.59 kcal/mol
-----------------------------------------------------------------------
Total Enthalpy                    ...   -726.22768370 Eh


Note: Only C1 symmetry has been detected, increase convergence thresholds 
      if your molecule has a higher symmetry. Symmetry factor of 1.0 is   
      used for the rotational entropy correction. 
 

Note: Rotational entropy computed according to Herzberg 
Infrared and Raman Spectra, Chapter V,1, Van Nostrand Reinhold, 1945 
Point Group:  C1, Symmetry Number:   1  
Rotational constants in cm-1:     0.029314     0.011066     0.009483 

Vibrational entropy computed according to the QRRHO of S. Grimme
Chem.Eur.J. 2012 18 9955


-------
ENTROPY
-------

The entropy contributions are T*S = T*(S(el)+S(vib)+S(rot)+S(trans))
     S(el)   - electronic entropy
     S(vib)  - vibrational entropy
     S(rot)  - rotational entropy
     S(trans)- translational entropy
The entropies will be listed as multiplied by the temperature to get
units of energy

Electronic entropy                ...      0.00000000 Eh      0.00 kcal/mol
Vibrational entropy               ...      0.02476239 Eh     15.54 kcal/mol
Rotational entropy                ...      0.01550249 Eh      9.73 kcal/mol
Translational entropy             ...      0.01998966 Eh     12.54 kcal/mol
-----------------------------------------------------------------------
Final entropy term                ...      0.06025454 Eh     37.81 kcal/mol

In case the symmetry of your molecule has not been determined correctly
or in case you have a reason to use a different symmetry number we print 
out the resulting rotational entropy values for sn=1,12 :
 --------------------------------------------------------
|  sn= 1 | S(rot)=       0.01550249 Eh      9.73 kcal/mol|
|  sn= 2 | S(rot)=       0.01484803 Eh      9.32 kcal/mol|
|  sn= 3 | S(rot)=       0.01446520 Eh      9.08 kcal/mol|
|  sn= 4 | S(rot)=       0.01419358 Eh      8.91 kcal/mol|
|  sn= 5 | S(rot)=       0.01398289 Eh      8.77 kcal/mol|
|  sn= 6 | S(rot)=       0.01381074 Eh      8.67 kcal/mol|
|  sn= 7 | S(rot)=       0.01366520 Eh      8.58 kcal/mol|
|  sn= 8 | S(rot)=       0.01353912 Eh      8.50 kcal/mol|
|  sn= 9 | S(rot)=       0.01342791 Eh      8.43 kcal/mol|
|  sn=10 | S(rot)=       0.01332843 Eh      8.36 kcal/mol|
|  sn=11 | S(rot)=       0.01323844 Eh      8.31 kcal/mol|
|  sn=12 | S(rot)=       0.01315629 Eh      8.26 kcal/mol|
 --------------------------------------------------------


-------------------
GIBBS FREE ENERGY
-------------------

The Gibbs free energy is G = H - T*S

Total enthalpy                    ...   -726.22768370 Eh 
Total entropy correction          ...     -0.06025454 Eh    -37.81 kcal/mol
-----------------------------------------------------------------------
Final Gibbs free energy         ...   -726.28793824 Eh

For completeness - the Gibbs free energy minus the electronic energy
G-E(el)                           ...      0.22483465 Eh    141.09 kcal/mol


Timings for individual modules:

Sum of individual times         ...     2629.605 sec (=  43.827 min)
GTO integral calculation        ...       32.679 sec (=   0.545 min)   1.2 %
SCF iterations                  ...     1513.329 sec (=  25.222 min)  57.5 %
SCF Gradient evaluation         ...      459.408 sec (=   7.657 min)  17.5 %
Geometry relaxation             ...        2.135 sec (=   0.036 min)   0.1 %
Analytical frequency calculation...      622.053 sec (=  10.368 min)  23.7 %
                             ****ORCA TERMINATED NORMALLY****
TOTAL RUN TIME: 0 days 0 hours 44 minutes 0 seconds 470 msec
