
                                 *****************
                                 * O   R   C   A *
                                 *****************

                                            #,                                       
                                            ###                                      
                                            ####                                     
                                            #####                                    
                                            ######                                   
                                           ########,                                 
                                     ,,################,,,,,                         
                               ,,#################################,,                 
                          ,,##########################################,,             
                       ,#########################################, ''#####,          
                    ,#############################################,,   '####,        
                  ,##################################################,,,,####,       
                ,###########''''           ''''###############################       
              ,#####''   ,,,,##########,,,,          '''####'''          '####       
            ,##' ,,,,###########################,,,                        '##       
           ' ,,###''''                  '''############,,,                           
         ,,##''                                '''############,,,,        ,,,,,,###''
      ,#''                                            '''#######################'''  
     '                                                          ''''####''''         
             ,#######,   #######,   ,#######,      ##                                
            ,#'     '#,  ##    ##  ,#'     '#,    #''#        ######   ,####,        
            ##       ##  ##   ,#'  ##            #'  '#       #        #'  '#        
            ##       ##  #######   ##           ,######,      #####,   #    #        
            '#,     ,#'  ##    ##  '#,     ,#' ,#      #,         ##   #,  ,#        
             '#######'   ##     ##  '#######'  #'      '#     #####' # '####'        



                  #######################################################
                  #                        -***-                        #
                  #          Department of theory and spectroscopy      #
                  #    Directorship and core code : Frank Neese         #
                  #        Max Planck Institute fuer Kohlenforschung    #
                  #                Kaiser Wilhelm Platz 1               #
                  #                 D-45470 Muelheim/Ruhr               #
                  #                      Germany                        #
                  #                                                     #
                  #                  All rights reserved                #
                  #                        -***-                        #
                  #######################################################


                         Program Version 5.0.4 -  RELEASE  -


 With contributions from (in alphabetic order):
   Daniel Aravena         : Magnetic Suceptibility
   Michael Atanasov       : Ab Initio Ligand Field Theory (pilot matlab implementation)
   Alexander A. Auer      : GIAO ZORA, VPT2 properties, NMR spectrum
   Ute Becker             : Parallelization
   Giovanni Bistoni       : ED, misc. LED, open-shell LED, HFLD
   Martin Brehm           : Molecular dynamics
   Dmytro Bykov           : SCF Hessian
   Vijay G. Chilkuri      : MRCI spin determinant printing, contributions to CSF-ICE
   Dipayan Datta          : RHF DLPNO-CCSD density
   Achintya Kumar Dutta   : EOM-CC, STEOM-CC
   Dmitry Ganyushin       : Spin-Orbit,Spin-Spin,Magnetic field MRCI
   Miquel Garcia          : C-PCM and meta-GGA Hessian, CC/C-PCM, Gaussian charge scheme
   Yang Guo               : DLPNO-NEVPT2, F12-NEVPT2, CIM, IAO-localization
   Andreas Hansen         : Spin unrestricted coupled pair/coupled cluster methods
   Benjamin Helmich-Paris : MC-RPA, TRAH-SCF, COSX integrals
   Lee Huntington         : MR-EOM, pCC
   Robert Izsak           : Overlap fitted RIJCOSX, COSX-SCS-MP3, EOM
   Marcus Kettner         : VPT2
   Christian Kollmar      : KDIIS, OOCD, Brueckner-CCSD(T), CCSD density, CASPT2, CASPT2-K
   Simone Kossmann        : Meta GGA functionals, TD-DFT gradient, OOMP2, MP2 Hessian
   Martin Krupicka        : Initial AUTO-CI
   Lucas Lang             : DCDCAS
   Marvin Lechner         : AUTO-CI (C++ implementation), FIC-MRCC
   Dagmar Lenk            : GEPOL surface, SMD
   Dimitrios Liakos       : Extrapolation schemes; Compound Job, initial MDCI parallelization
   Dimitrios Manganas     : Further ROCIS development; embedding schemes
   Dimitrios Pantazis     : SARC Basis sets
   Anastasios Papadopoulos: AUTO-CI, single reference methods and gradients
   Taras Petrenko         : DFT Hessian,TD-DFT gradient, ASA, ECA, R-Raman, ABS, FL, XAS/XES, NRVS
   Peter Pinski           : DLPNO-MP2, DLPNO-MP2 Gradient
   Christoph Reimann      : Effective Core Potentials
   Marius Retegan         : Local ZFS, SOC
   Christoph Riplinger    : Optimizer, TS searches, QM/MM, DLPNO-CCSD(T), (RO)-DLPNO pert. Triples
   Tobias Risthaus        : Range-separated hybrids, TD-DFT gradient, RPA, STAB
   Michael Roemelt        : Original ROCIS implementation
   Masaaki Saitow         : Open-shell DLPNO-CCSD energy and density
   Barbara Sandhoefer     : DKH picture change effects
   Avijit Sen             : IP-ROCIS
   Kantharuban Sivalingam : CASSCF convergence, NEVPT2, FIC-MRCI
   Bernardo de Souza      : ESD, SOC TD-DFT
   Georgi Stoychev        : AutoAux, RI-MP2 NMR, DLPNO-MP2 response
   Willem Van den Heuvel  : Paramagnetic NMR
   Boris Wezisla          : Elementary symmetry handling
   Frank Wennmohs         : Technical directorship


 We gratefully acknowledge several colleagues who have allowed us to
 interface, adapt or use parts of their codes:
   Stefan Grimme, W. Hujo, H. Kruse, P. Pracht,  : VdW corrections, initial TS optimization,
                  C. Bannwarth, S. Ehlert          DFT functionals, gCP, sTDA/sTD-DF
   Ed Valeev, F. Pavosevic, A. Kumar             : LibInt (2-el integral package), F12 methods
   Garnet Chan, S. Sharma, J. Yang, R. Olivares  : DMRG
   Ulf Ekstrom                                   : XCFun DFT Library
   Mihaly Kallay                                 : mrcc  (arbitrary order and MRCC methods)
   Jiri Pittner, Ondrej Demel                    : Mk-CCSD
   Frank Weinhold                                : gennbo (NPA and NBO analysis)
   Christopher J. Cramer and Donald G. Truhlar   : smd solvation model
   Lars Goerigk                                  : TD-DFT with DH, B97 family of functionals
   V. Asgeirsson, H. Jonsson                     : NEB implementation
   FAccTs GmbH                                   : IRC, NEB, NEB-TS, DLPNO-Multilevel, CI-OPT
                                                   MM, QMMM, 2- and 3-layer-ONIOM, Crystal-QMMM,
                                                   LR-CPCM, SF, NACMEs, symmetry and pop. for TD-DFT,
                                                   nearIR, NL-DFT gradient (VV10), updates on ESD,
                                                   ML-optimized integration grids
   S Lehtola, MJT Oliveira, MAL Marques          : LibXC Library
   Liviu Ungur et al                             : ANISO software


 Your calculation uses the libint2 library for the computation of 2-el integrals
 For citations please refer to: http://libint.valeyev.net

 Your ORCA version has been built with support for libXC version: 5.1.0
 For citations please refer to: https://tddft.org/programs/libxc/

 This ORCA versions uses:
   CBLAS   interface :  Fast vector & matrix operations
   LAPACKE interface :  Fast linear algebra routines
   SCALAPACK package :  Parallel linear algebra routines
   Shared memory     :  Shared parallel matrices
   BLAS/LAPACK       :  OpenBLAS 0.3.15  USE64BITINT DYNAMIC_ARCH NO_AFFINITY SkylakeX SINGLE_THREADED
        Core in use  :  SkylakeX
   Copyright (c) 2011-2014, The OpenBLAS Project




***************************************
The coordinates will be read from file: /users/fjb15167/WWenergy/structures/Ny.xyz
***************************************


Your calculation utilizes the atom-pairwise dispersion correction
based on tight binding partial charges (D4)
Cite in your paper:
E.Caldeweyher, C.Bannwarth, S.Grimme, J.Chem.Phys., (2017), 147, 034112.
E.Caldeweyher, S.Ehlert, A.Hansen, H.Neugebauer, S.Grimme, J.Chem.Phys., (2018), in progress.
   

================================================================================

----- Orbital basis set information -----
Your calculation utilizes the basis: 6-31G(d)
   H-He, Li-Ne : W. J. Hehre, R. Ditchfield and J.A. Pople, J. Chem. Phys. 56, 2257 (1972).
                 Note: He and Ne are unpublished basis sets taken from the Gaussian program.
                 Note: Li and B from J. D. Dill and J. A. Pople, J. Chem. Phys. 62, 2921 (1975).
   Na - Ar     : M. M. Francl, W. J. Pietro, W. J. Hehre, J. S. Binkley, M. S. Gordon, 
                 D. J. DeFrees and J. A. Pople, J. Chem. Phys. 77, 3654 (1982).
   K - Zn      : V. A. Rassolov, J. A. Pople, M. A. Ratner, and T. L. Windus, J. Chem. Phys. 109, 1223 (1998).

----- AuxJ basis set information -----
Your calculation utilizes the AutoAux generation procedure.
  G. L. Stoychev, A. A. Auer, F. Neese, J. Chem. Theory Comput. 13, 554 (2017)

----- AuxC basis set information -----
Your calculation utilizes the AutoAux generation procedure.
  G. L. Stoychev, A. A. Auer, F. Neese, J. Chem. Theory Comput. 13, 554 (2017)

----- AuxJK basis set information -----
Your calculation utilizes the AutoAux generation procedure.
  G. L. Stoychev, A. A. Auer, F. Neese, J. Chem. Theory Comput. 13, 554 (2017)

================================================================================
                                        WARNINGS
                       Please study these warnings very carefully!
================================================================================


WARNING: Geometry Optimization
  ===> : Switching off AutoStart
         For restart on a previous wavefunction, please use MOREAD

INFO   : the flag for use of the SHARK integral package has been found!

================================================================================
                                       INPUT FILE
================================================================================
NAME = Ny_octanol.inp
|  1> ! OPT FREQ B3LYP 6-31G(d) D4 AUTOAUX
|  2> ! CPCM
|  3> 
|  4> %cpcm
|  5> epsilon 9.8629 
|  6> refrac  1.4295 
|  7> end
|  8> 
|  9> %PAL NPROCS 4 END
| 10> 
| 11> %maxcore 3375
| 12> 
| 13> *xyzfile 0 1 /users/fjb15167/WWenergy/structures/Ny.xyz
| 14> 
| 15>                          ****END OF INPUT****
================================================================================

                       *****************************
                       * Geometry Optimization Run *
                       *****************************

Geometry optimization settings:
Update method            Update   .... BFGS
Choice of coordinates    CoordSys .... Z-matrix Internals
Initial Hessian          InHess   .... Almoef's Model

Convergence Tolerances:
Energy Change            TolE     ....  5.0000e-06 Eh
Max. Gradient            TolMAXG  ....  3.0000e-04 Eh/bohr
RMS Gradient             TolRMSG  ....  1.0000e-04 Eh/bohr
Max. Displacement        TolMAXD  ....  4.0000e-03 bohr
RMS Displacement         TolRMSD  ....  2.0000e-03 bohr
Strict Convergence                ....  False
------------------------------------------------------------------------------
                        ORCA OPTIMIZATION COORDINATE SETUP
------------------------------------------------------------------------------

The optimization will be done in new redundant internal coordinates
Making redundant internal coordinates   ...  (new redundants) done
Evaluating the initial hessian          ...  (Almloef) done
Evaluating the coordinates              ...  done
Calculating the B-matrix                .... done
Calculating the G-matrix                .... done
Diagonalizing the G-matrix              .... done
Small eigenvalue found = 3.011e-03
Small eigenvalue found = 4.839e-03
Small eigenvalue found = 9.738e-03
Small eigenvalue found = 1.374e-02
Small eigenvalue found = 1.916e-02
Small eigenvalue found = 2.808e-02
The first mode is                       ....   71
The number of degrees of freedom        ....  102

    -----------------------------------------------------------------
                    Redundant Internal Coordinates


    -----------------------------------------------------------------
         Definition                    Initial Value    Approx d2E/dq
    -----------------------------------------------------------------
      1. B(O   4,C   0)                  1.2190         1.048743   
      2. B(C   5,H   3)                  1.0903         0.359672   
      3. B(C   5,H   2)                  1.0930         0.356204   
      4. B(C   5,H   1)                  1.0919         0.357603   
      5. B(C   5,C   0)                  1.5308         0.372499   
      6. B(N   6,C   0)                  1.3797         0.581141   
      7. B(C   7,N   6)                  1.4621         0.429335   
      8. B(H   8,C   7)                  1.0949         0.353740   
      9. B(H   9,C   7)                  1.0896         0.360656   
     10. B(C  10,N   6)                  1.4661         0.423142   
     11. B(H  11,C  10)                  1.0998         0.347328   
     12. B(H  12,C  10)                  1.0951         0.353443   
     13. B(C  13,C  10)                  1.5113         0.400133   
     14. B(C  14,C  13)                  1.3997         0.602949   
     15. B(H  15,C  14)                  1.0898         0.360342   
     16. B(C  16,C  14)                  1.3929         0.618153   
     17. B(H  17,C  16)                  1.0862         0.365219   
     18. B(C  18,C  16)                  1.3967         0.609690   
     19. B(O  19,C  18)                  1.3736         0.594359   
     20. B(H  20,O  19)                  0.9730         0.495637   
     21. B(C  21,C  13)                  1.3986         0.605353   
     22. B(H  22,C  21)                  1.0866         0.364583   
     23. B(C  23,C  21)                  1.3945         0.614537   
     24. B(C  23,C  18)                  1.3991         0.604271   
     25. B(H  24,C  23)                  1.0902         0.359806   
     26. B(C  25,C   7)                  1.5248         0.380780   
     27. B(O  26,C  25)                  1.2403         0.969852   
     28. B(N  27,C  25)                  1.3675         0.607714   
     29. B(C  28,N  27)                  1.4548         0.441063   
     30. B(H  29,C  28)                  1.0962         0.352008   
     31. B(H  30,C  28)                  1.0881         0.362676   
     32. B(H  31,C  28)                  1.0956         0.352752   
     33. B(C  32,N  27)                  1.4548         0.441087   
     34. B(H  33,C  32)                  1.0970         0.350900   
     35. B(H  34,C  32)                  1.0968         0.351256   
     36. B(H  35,C  32)                  1.0875         0.363367   
     37. A(O   4,C   0,N   6)          123.0334         0.465730   
     38. A(C   5,C   0,N   6)          115.6043         0.389518   
     39. A(O   4,C   0,C   5)          121.3542         0.432479   
     40. A(H   1,C   5,H   2)          107.6268         0.290026   
     41. A(H   1,C   5,H   3)          109.6035         0.290468   
     42. A(C   0,C   5,H   2)          112.4838         0.323587   
     43. A(H   2,C   5,H   3)          109.5206         0.290289   
     44. A(C   0,C   5,H   3)          106.6049         0.324102   
     45. A(C   0,C   5,H   1)          110.9858         0.323795   
     46. A(C   7,N   6,C  10)          116.5319         0.375452   
     47. A(C   0,N   6,C  10)          124.5531         0.395770   
     48. A(C   0,N   6,C   7)          117.7844         0.396780   
     49. A(H   8,C   7,H   9)          108.8564         0.290097   
     50. A(N   6,C   7,H   9)          107.7761         0.329932   
     51. A(H   9,C   7,C  25)          113.9072         0.325421   
     52. A(N   6,C   7,C  25)          110.8882         0.371015   
     53. A(H   8,C   7,C  25)          105.4521         0.324387   
     54. A(N   6,C   7,H   8)          109.9119         0.328879   
     55. A(H  12,C  10,C  13)          109.2654         0.326998   
     56. A(H  11,C  10,C  13)          109.8076         0.326060   
     57. A(N   6,C  10,C  13)          114.0601         0.373261   
     58. A(H  11,C  10,H  12)          106.8957         0.288353   
     59. A(N   6,C  10,H  12)          105.9474         0.328046   
     60. A(N   6,C  10,H  11)          110.5505         0.327103   
     61. A(C  10,C  13,C  21)          120.7734         0.399818   
     62. A(C  10,C  13,C  14)          120.4819         0.399538   
     63. A(C  14,C  13,C  21)          118.6526         0.430044   
     64. A(H  15,C  14,C  16)          119.0811         0.352771   
     65. A(C  13,C  14,C  16)          121.2094         0.431663   
     66. A(C  13,C  14,H  15)          119.7024         0.351288   
     67. A(H  17,C  16,C  18)          118.9047         0.352751   
     68. A(C  14,C  16,C  18)          119.5436         0.432527   
     69. A(C  14,C  16,H  17)          121.5517         0.353575   
     70. A(C  16,C  18,O  19)          117.0643         0.426687   
     71. A(O  19,C  18,C  23)          122.9873         0.426005   
     72. A(C  16,C  18,C  23)          119.9445         0.430765   
     73. A(C  18,O  19,H  20)          108.4939         0.364439   
     74. A(H  22,C  21,C  23)          119.7861         0.353119   
     75. A(C  13,C  21,C  23)          120.6957         0.431517   
     76. A(C  13,C  21,H  22)          119.5118         0.352221   
     77. A(C  21,C  23,H  24)          119.9952         0.352332   
     78. A(C  18,C  23,H  24)          120.0544         0.351330   
     79. A(C  18,C  23,C  21)          119.9426         0.431378   
     80. A(O  26,C  25,N  27)          122.7532         0.462885   
     81. A(C   7,C  25,N  27)          118.1270         0.394089   
     82. A(C   7,C  25,O  26)          119.0443         0.428137   
     83. A(C  25,N  27,C  32)          125.8056         0.401817   
     84. A(C  28,N  27,C  32)          115.4078         0.379927   
     85. A(C  25,N  27,C  28)          118.6973         0.401813   
     86. A(H  30,C  28,H  31)          109.8468         0.290224   
     87. A(H  29,C  28,H  31)          108.5968         0.288869   
     88. A(N  27,C  28,H  31)          110.1721         0.330194   
     89. A(H  29,C  28,H  30)          109.8963         0.290128   
     90. A(N  27,C  28,H  30)          108.4004         0.331713   
     91. A(N  27,C  28,H  29)          109.9232         0.330079   
     92. A(H  34,C  32,H  35)          109.2237         0.290117   
     93. A(H  33,C  32,H  35)          108.1780         0.290071   
     94. A(N  27,C  32,H  35)          112.0300         0.331821   
     95. A(H  33,C  32,H  34)          108.0817         0.288534   
     96. A(N  27,C  32,H  34)          110.0269         0.329965   
     97. A(N  27,C  32,H  33)          109.2024         0.329909   
     98. D(H   3,C   5,C   0,O   4)      8.8029         0.010381   
     99. D(H   1,C   5,C   0,N   6)     68.5001         0.010381   
    100. D(H   1,C   5,C   0,O   4)   -110.4962         0.010381   
    101. D(H   2,C   5,C   0,O   4)    128.8554         0.010381   
    102. D(H   3,C   5,C   0,N   6)   -172.2008         0.010381   
    103. D(H   2,C   5,C   0,N   6)    -52.1482         0.010381   
    104. D(C   7,N   6,C   0,O   4)     -9.0472         0.027094   
    105. D(C  10,N   6,C   0,C   5)      4.5817         0.027094   
    106. D(C  10,N   6,C   0,O   4)   -176.4406         0.027094   
    107. D(C   7,N   6,C   0,C   5)    171.9752         0.027094   
    108. D(H   9,C   7,N   6,C  10)    169.8643         0.015715   
    109. D(H   9,C   7,N   6,C   0)      1.4547         0.015715   
    110. D(H   8,C   7,N   6,C  10)     51.3672         0.015715   
    111. D(H   8,C   7,N   6,C   0)   -117.0424         0.015715   
    112. D(C  25,C   7,N   6,C   0)    126.7551         0.015715   
    113. D(C  25,C   7,N   6,C  10)    -64.8353         0.015715   
    114. D(C  13,C  10,N   6,C   7)    124.6597         0.015266   
    115. D(C  13,C  10,N   6,C   0)    -67.8040         0.015266   
    116. D(H  12,C  10,N   6,C   7)      4.4355         0.015266   
    117. D(H  11,C  10,N   6,C   7)   -111.0277         0.015266   
    118. D(H  11,C  10,N   6,C   0)     56.5086         0.015266   
    119. D(H  12,C  10,N   6,C   0)    171.9718         0.015266   
    120. D(C  21,C  13,C  10,H  12)     74.3080         0.011882   
    121. D(C  21,C  13,C  10,N   6)    -44.0384         0.011882   
    122. D(C  14,C  13,C  10,H  12)   -102.1558         0.011882   
    123. D(C  14,C  13,C  10,H  11)     14.7880         0.011882   
    124. D(C  14,C  13,C  10,N   6)    139.4978         0.011882   
    125. D(C  21,C  13,C  10,H  11)   -168.7481         0.011882   
    126. D(C  16,C  14,C  13,C  10)    177.2796         0.025075   
    127. D(H  15,C  14,C  13,C  21)    179.7574         0.025075   
    128. D(H  15,C  14,C  13,C  10)     -3.7047         0.025075   
    129. D(C  16,C  14,C  13,C  21)      0.7417         0.025075   
    130. D(C  18,C  16,C  14,H  15)   -179.4372         0.026432   
    131. D(H  17,C  16,C  14,H  15)      0.6394         0.026432   
    132. D(C  18,C  16,C  14,C  13)     -0.4155         0.026432   
    133. D(H  17,C  16,C  14,C  13)    179.6611         0.026432   
    134. D(C  23,C  18,C  16,H  17)   -179.6108         0.025671   
    135. D(C  23,C  18,C  16,C  14)      0.4637         0.025671   
    136. D(O  19,C  18,C  16,H  17)     -0.3142         0.025671   
    137. D(O  19,C  18,C  16,C  14)    179.7603         0.025671   
    138. D(H  20,O  19,C  18,C  23)     -1.1991         0.025769   
    139. D(H  20,O  19,C  18,C  16)    179.5276         0.025769   
    140. D(C  23,C  21,C  13,C  14)     -1.1314         0.025287   
    141. D(C  23,C  21,C  13,C  10)   -177.6588         0.025287   
    142. D(H  22,C  21,C  13,C  14)    179.7918         0.025287   
    143. D(H  22,C  21,C  13,C  10)      3.2644         0.025287   
    144. D(H  24,C  23,C  21,H  22)     -0.7490         0.026105   
    145. D(H  24,C  23,C  21,C  13)   -179.8232         0.026105   
    146. D(C  18,C  23,C  21,H  22)   -179.7266         0.026105   
    147. D(C  18,C  23,C  21,C  13)      1.1992         0.026105   
    148. D(H  24,C  23,C  18,O  19)      0.9157         0.025192   
    149. D(H  24,C  23,C  18,C  16)   -179.8311         0.025192   
    150. D(C  21,C  23,C  18,O  19)    179.8927         0.025192   
    151. D(C  21,C  23,C  18,C  16)     -0.8540         0.025192   
    152. D(N  27,C  25,C   7,H   9)     44.7130         0.010817   
    153. D(N  27,C  25,C   7,H   8)    164.0091         0.010817   
    154. D(N  27,C  25,C   7,N   6)    -77.0639         0.010817   
    155. D(O  26,C  25,C   7,H   9)   -138.3587         0.010817   
    156. D(O  26,C  25,C   7,H   8)    -19.0625         0.010817   
    157. D(O  26,C  25,C   7,N   6)     99.8644         0.010817   
    158. D(C  32,N  27,C  25,C   7)     -4.8506         0.029814   
    159. D(C  28,N  27,C  25,O  26)      1.9465         0.029814   
    160. D(C  28,N  27,C  25,C   7)    178.7533         0.029814   
    161. D(C  32,N  27,C  25,O  26)    178.3426         0.029814   
    162. D(H  31,C  28,N  27,C  32)    -59.8440         0.016589   
    163. D(H  31,C  28,N  27,C  25)    116.9207         0.016589   
    164. D(H  30,C  28,N  27,C  32)    179.9313         0.016589   
    165. D(H  30,C  28,N  27,C  25)     -3.3040         0.016589   
    166. D(H  29,C  28,N  27,C  32)     59.7948         0.016589   
    167. D(H  29,C  28,N  27,C  25)   -123.4405         0.016589   
    168. D(H  35,C  32,N  27,C  28)   -175.8464         0.016591   
    169. D(H  35,C  32,N  27,C  25)      7.6532         0.016591   
    170. D(H  34,C  32,N  27,C  28)     62.4490         0.016591   
    171. D(H  34,C  32,N  27,C  25)   -114.0515         0.016591   
    172. D(H  33,C  32,N  27,C  28)    -56.0250         0.016591   
    173. D(H  33,C  32,N  27,C  25)    127.4745         0.016591   
    -----------------------------------------------------------------

Number of atoms                         .... 36
Number of degrees of freedom            .... 173

         *************************************************************
         *                GEOMETRY OPTIMIZATION CYCLE   1            *
         *************************************************************
---------------------------------
CARTESIAN COORDINATES (ANGSTROEM)
---------------------------------
  C     -1.934000   -1.617000    1.162000
  H      0.118000   -2.222000    1.557000
  H     -0.800000   -3.426000    0.653000
  H     -1.153000   -3.163000    2.381000
  O     -2.785000   -1.335000    1.988000
  C     -0.868000   -2.678000    1.447000
  N     -1.847000   -1.000000   -0.069000
  C     -2.939000   -0.112000   -0.465000
  H     -3.436000   -0.507000   -1.357000
  H     -3.657000   -0.082000    0.354000
  C     -0.886000   -1.363000   -1.115000
  H     -0.983000   -2.427000   -1.376000
  H     -1.176000   -0.790000   -2.002000
  C      0.551000   -1.050000   -0.767000
  C      1.573000   -1.948000   -1.096000
  H      1.324000   -2.906000   -1.552000
  C      2.908000   -1.650000   -0.833000
  H      3.705000   -2.345000   -1.081000
  C      3.237000   -0.430000   -0.238000
  O      4.568000   -0.191000    0.003000
  H      4.655000    0.689000    0.409000
  C      0.895000    0.171000   -0.178000
  H      0.113000    0.880000    0.080000
  C      2.227000    0.478000    0.098000
  H      2.482000    1.432000    0.560000
  C     -2.406000    1.258000   -0.870000
  O     -2.275000    1.521000   -2.075000
  N     -2.032000    2.123000    0.121000
  C     -1.496000    3.423000   -0.252000
  H     -0.502000    3.558000    0.190000
  H     -1.428000    3.468000   -1.337000
  H     -2.152000    4.221000    0.113000
  C     -2.186000    1.898000    1.550000
  H     -1.220000    2.054000    2.046000
  H     -2.903000    2.615000    1.968000
  H     -2.521000    0.887000    1.770000

----------------------------
CARTESIAN COORDINATES (A.U.)
----------------------------
  NO LB      ZA    FRAG     MASS         X           Y           Z
   0 C     6.0000    0    12.011   -3.654730   -3.055687    2.195862
   1 H     1.0000    0     1.008    0.222988   -4.198971    2.942304
   2 H     1.0000    0     1.008   -1.511781   -6.474202    1.233991
   3 H     1.0000    0     1.008   -2.178854   -5.977204    4.499438
   4 O     8.0000    0    15.999   -5.262887   -2.522784    3.756776
   5 C     6.0000    0    12.011   -1.640282   -5.060687    2.734434
   6 N     7.0000    0    14.007   -3.490324   -1.889726   -0.130391
   7 C     6.0000    0    12.011   -5.553905   -0.211649   -0.878723
   8 H     1.0000    0     1.008   -6.493099   -0.958091   -2.564358
   9 H     1.0000    0     1.008   -6.910728   -0.154958    0.668963
  10 C     6.0000    0    12.011   -1.674297   -2.575697   -2.107045
  11 H     1.0000    0     1.008   -1.857601   -4.586365   -2.600263
  12 H     1.0000    0     1.008   -2.222318   -1.492884   -3.783232
  13 C     6.0000    0    12.011    1.041239   -1.984212   -1.449420
  14 C     6.0000    0    12.011    2.972539   -3.681187   -2.071140
  15 H     1.0000    0     1.008    2.501997   -5.491544   -2.932855
  16 C     6.0000    0    12.011    5.495324   -3.118048   -1.574142
  17 H     1.0000    0     1.008    7.001435   -4.431408   -2.042794
  18 C     6.0000    0    12.011    6.117043   -0.812582   -0.449755
  19 O     8.0000    0    15.999    8.632269   -0.360938    0.005669
  20 H     1.0000    0     1.008    8.796675    1.302021    0.772898
  21 C     6.0000    0    12.011    1.691305    0.323143   -0.336371
  22 H     1.0000    0     1.008    0.213539    1.662959    0.151178
  23 C     6.0000    0    12.011    4.208420    0.903289    0.185193
  24 H     1.0000    0     1.008    4.690300    2.706088    1.058247
  25 C     6.0000    0    12.011   -4.546681    2.377275   -1.644062
  26 O     8.0000    0    15.999   -4.299127    2.874273   -3.921182
  27 N     7.0000    0    14.007   -3.839924    4.011889    0.228657
  28 C     6.0000    0    12.011   -2.827030    6.468533   -0.476211
  29 H     1.0000    0     1.008   -0.948643    6.723646    0.359048
  30 H     1.0000    0     1.008   -2.698529    6.553570   -2.526564
  31 H     1.0000    0     1.008   -4.066691    7.976534    0.213539
  32 C     6.0000    0    12.011   -4.130941    3.586700    2.929076
  33 H     1.0000    0     1.008   -2.305466    3.881497    3.866380
  34 H     1.0000    0     1.008   -5.485875    4.941634    3.718981
  35 H     1.0000    0     1.008   -4.764000    1.676187    3.344815

--------------------------------
INTERNAL COORDINATES (ANGSTROEM)
--------------------------------
 C      0   0   0     0.000000000000     0.00000000     0.00000000
 H      1   0   0     2.175489370234     0.00000000     0.00000000
 H      2   1   0     1.763393319711    66.78149163     0.00000000
 H      3   2   1     1.783188716878    60.36797323   287.98977477
 O      1   2   3     1.219016406780   126.85417235   120.96478273
 C      4   3   2     1.090323805115    35.28857726    36.39078168
 N      1   2   3     1.379716999968   103.11369159   271.90707301
 C      7   1   2     1.462129953185   117.78440683   198.57029400
 H      8   7   1     1.094850674750   109.91186373   242.95758370
 H      8   7   1     1.089580194387   107.77606914     1.45471955
 C      7   1   2     1.466085263551   124.55312644    31.17683099
 H     11   7   1     1.099829986862   110.55050181    56.50863546
 H     11   7   1     1.095078992585   105.94739833   171.97179136
 C     11   7   1     1.511304734327   114.06010719   292.19600722
 C     14  11   7     1.399688894005   120.48187760   139.49776791
 H     15  14  11     1.089816957108   119.70237930   356.29527746
 C     15  14  11     1.392909903763   121.20936453   177.27957199
 H     17  15  14     1.086157447150   121.55165921   179.66107497
 C     17  15  14     1.396662450272   119.54355669   359.58452702
 O     19  17  15     1.373594918453   117.06426205   179.76032831
 H     20  19  17     0.973039053687   108.49393430   179.52757330
 C     14  11   7     1.398605734294   120.77343316   315.96162350
 H     22  14  11     1.086631952411   119.51180879     3.26443389
 C     22  14  11     1.394506722824   120.69569226   182.34115623
 H     24  22  14     1.090222454364   119.99515797   180.17681020
 C      8   7   1     1.524799658972   110.88824273   126.75509856
 O     26   8   7     1.240304398122   119.04429249    99.86442873
 N     26   8   7     1.367545977289   118.12701476   282.93610740
 C     28  26   8     1.454793799822   118.69729449   178.75329735
 H     29  28  26     1.096186571711   109.92315980   236.55947659
 H     29  28  26     1.088059741007   108.40043220   356.69595469
 H     29  28  26     1.095611701288   110.17211637   116.92074672
 C     28  26   8     1.454779021020   125.80561205   355.14944842
 H     33  28  26     1.097045122135   109.20237858   127.47451978
 H     33  28  26     1.096768890879   110.02685084   245.94854544
 H     33  28  26     1.087541263585   112.02999377     7.65318024

---------------------------
INTERNAL COORDINATES (A.U.)
---------------------------
 C      0   0   0     0.000000000000     0.00000000     0.00000000
 H      1   0   0     4.111079116999     0.00000000     0.00000000
 H      2   1   0     3.332330440639    66.78149163     0.00000000
 H      3   2   1     3.369738319997    60.36797323   287.98977477
 O      1   2   3     2.303607161572   126.85417235   120.96478273
 C      4   3   2     2.060413388962    35.28857726    36.39078168
 N      1   2   3     2.607287272254   103.11369159   271.90707301
 C      7   1   2     2.763025183722   117.78440683   198.57029400
 H      8   7   1     2.068967932816   109.91186373   242.95758370
 H      8   7   1     2.059008168336   107.77606914     1.45471955
 C      7   1   2     2.770499637088   124.55312644    31.17683099
 H     11   7   1     2.078377469043   110.55050181    56.50863546
 H     11   7   1     2.069399390995   105.94739833   171.97179136
 C     11   7   1     2.855952052777   114.06010719   292.19600722
 C     14  11   7     2.645028682360   120.48187760   139.49776791
 H     15  14  11     2.059455585037   119.70237930   356.29527746
 C     15  14  11     2.632218247338   121.20936453   177.27957199
 H     17  15  14     2.052540113433   121.55165921   179.66107497
 C     17  15  14     2.639309532546   119.54355669   359.58452702
 O     19  17  15     2.595718214822   117.06426205   179.76032831
 H     20  19  17     1.838777329078   108.49393430   179.52757330
 C     14  11   7     2.642981807147   120.77343316   315.96162350
 H     22  14  11     2.053436798424   119.51180879     3.26443389
 C     22  14  11     2.635235798048   120.69569226   182.34115623
 H     24  22  14     2.060221863800   119.99515797   180.17681020
 C      8   7   1     2.881453764553   110.88824273   126.75509856
 O     26   8   7     2.343835635148   119.04429249    99.86442873
 N     26   8   7     2.584287372622   118.12701476   282.93610740
 C     28  26   8     2.749161862990   118.69729449   178.75329735
 H     29  28  26     2.071492412216   109.92315980   236.55947659
 H     29  28  26     2.056134927848   108.40043220   356.69595469
 H     29  28  26     2.070406064555   110.17211637   116.92074672
 C     28  26   8     2.749133935102   125.80561205   355.14944842
 H     33  28  26     2.073114837389   109.20237858   127.47451978
 H     33  28  26     2.072592835966   110.02685084   245.94854544
 H     33  28  26     2.055155147514   112.02999377     7.65318024

---------------------
BASIS SET INFORMATION
---------------------
There are 4 groups of distinct atoms

 Group   1 Type C   : 10s4p1d contracted to 3s2p1d pattern {631/31/1}
 Group   2 Type H   : 4s contracted to 2s pattern {31}
 Group   3 Type O   : 10s4p1d contracted to 3s2p1d pattern {631/31/1}
 Group   4 Type N   : 10s4p1d contracted to 3s2p1d pattern {631/31/1}

Atom   0C    basis set group =>   1
Atom   1H    basis set group =>   2
Atom   2H    basis set group =>   2
Atom   3H    basis set group =>   2
Atom   4O    basis set group =>   3
Atom   5C    basis set group =>   1
Atom   6N    basis set group =>   4
Atom   7C    basis set group =>   1
Atom   8H    basis set group =>   2
Atom   9H    basis set group =>   2
Atom  10C    basis set group =>   1
Atom  11H    basis set group =>   2
Atom  12H    basis set group =>   2
Atom  13C    basis set group =>   1
Atom  14C    basis set group =>   1
Atom  15H    basis set group =>   2
Atom  16C    basis set group =>   1
Atom  17H    basis set group =>   2
Atom  18C    basis set group =>   1
Atom  19O    basis set group =>   3
Atom  20H    basis set group =>   2
Atom  21C    basis set group =>   1
Atom  22H    basis set group =>   2
Atom  23C    basis set group =>   1
Atom  24H    basis set group =>   2
Atom  25C    basis set group =>   1
Atom  26O    basis set group =>   3
Atom  27N    basis set group =>   4
Atom  28C    basis set group =>   1
Atom  29H    basis set group =>   2
Atom  30H    basis set group =>   2
Atom  31H    basis set group =>   2
Atom  32C    basis set group =>   1
Atom  33H    basis set group =>   2
Atom  34H    basis set group =>   2
Atom  35H    basis set group =>   2
---------------------------------
AUXILIARY/J BASIS SET INFORMATION
---------------------------------
There are 4 groups of distinct atoms

 Group   1 Type C   : 13s11p10d2f contracted to 13s11p10d2f pattern {1111111111111/11111111111/1111111111/11}
 Group   2 Type H   : 9s2p contracted to 9s2p pattern {111111111/11}
 Group   3 Type O   : 14s11p10d2f contracted to 14s11p10d2f pattern {11111111111111/11111111111/1111111111/11}
 Group   4 Type N   : 14s11p10d2f contracted to 14s11p10d2f pattern {11111111111111/11111111111/1111111111/11}

Atom   0C    basis set group =>   1
Atom   1H    basis set group =>   2
Atom   2H    basis set group =>   2
Atom   3H    basis set group =>   2
Atom   4O    basis set group =>   3
Atom   5C    basis set group =>   1
Atom   6N    basis set group =>   4
Atom   7C    basis set group =>   1
Atom   8H    basis set group =>   2
Atom   9H    basis set group =>   2
Atom  10C    basis set group =>   1
Atom  11H    basis set group =>   2
Atom  12H    basis set group =>   2
Atom  13C    basis set group =>   1
Atom  14C    basis set group =>   1
Atom  15H    basis set group =>   2
Atom  16C    basis set group =>   1
Atom  17H    basis set group =>   2
Atom  18C    basis set group =>   1
Atom  19O    basis set group =>   3
Atom  20H    basis set group =>   2
Atom  21C    basis set group =>   1
Atom  22H    basis set group =>   2
Atom  23C    basis set group =>   1
Atom  24H    basis set group =>   2
Atom  25C    basis set group =>   1
Atom  26O    basis set group =>   3
Atom  27N    basis set group =>   4
Atom  28C    basis set group =>   1
Atom  29H    basis set group =>   2
Atom  30H    basis set group =>   2
Atom  31H    basis set group =>   2
Atom  32C    basis set group =>   1
Atom  33H    basis set group =>   2
Atom  34H    basis set group =>   2
Atom  35H    basis set group =>   2
---------------------------------
AUXILIARY/C BASIS SET INFORMATION
---------------------------------
There are 4 groups of distinct atoms

 Group   1 Type C   : 13s11p10d2f contracted to 13s11p10d2f pattern {1111111111111/11111111111/1111111111/11}
 Group   2 Type H   : 9s2p contracted to 9s2p pattern {111111111/11}
 Group   3 Type O   : 14s11p10d2f contracted to 14s11p10d2f pattern {11111111111111/11111111111/1111111111/11}
 Group   4 Type N   : 14s11p10d2f contracted to 14s11p10d2f pattern {11111111111111/11111111111/1111111111/11}

Atom   0C    basis set group =>   1
Atom   1H    basis set group =>   2
Atom   2H    basis set group =>   2
Atom   3H    basis set group =>   2
Atom   4O    basis set group =>   3
Atom   5C    basis set group =>   1
Atom   6N    basis set group =>   4
Atom   7C    basis set group =>   1
Atom   8H    basis set group =>   2
Atom   9H    basis set group =>   2
Atom  10C    basis set group =>   1
Atom  11H    basis set group =>   2
Atom  12H    basis set group =>   2
Atom  13C    basis set group =>   1
Atom  14C    basis set group =>   1
Atom  15H    basis set group =>   2
Atom  16C    basis set group =>   1
Atom  17H    basis set group =>   2
Atom  18C    basis set group =>   1
Atom  19O    basis set group =>   3
Atom  20H    basis set group =>   2
Atom  21C    basis set group =>   1
Atom  22H    basis set group =>   2
Atom  23C    basis set group =>   1
Atom  24H    basis set group =>   2
Atom  25C    basis set group =>   1
Atom  26O    basis set group =>   3
Atom  27N    basis set group =>   4
Atom  28C    basis set group =>   1
Atom  29H    basis set group =>   2
Atom  30H    basis set group =>   2
Atom  31H    basis set group =>   2
Atom  32C    basis set group =>   1
Atom  33H    basis set group =>   2
Atom  34H    basis set group =>   2
Atom  35H    basis set group =>   2
----------------------------------
AUXILIARY/JK BASIS SET INFORMATION
----------------------------------
There are 4 groups of distinct atoms

 Group   1 Type C   : 13s11p10d2f contracted to 13s11p10d2f pattern {1111111111111/11111111111/1111111111/11}
 Group   2 Type H   : 9s2p contracted to 9s2p pattern {111111111/11}
 Group   3 Type O   : 14s11p10d2f contracted to 14s11p10d2f pattern {11111111111111/11111111111/1111111111/11}
 Group   4 Type N   : 14s11p10d2f contracted to 14s11p10d2f pattern {11111111111111/11111111111/1111111111/11}

Atom   0C    basis set group =>   1
Atom   1H    basis set group =>   2
Atom   2H    basis set group =>   2
Atom   3H    basis set group =>   2
Atom   4O    basis set group =>   3
Atom   5C    basis set group =>   1
Atom   6N    basis set group =>   4
Atom   7C    basis set group =>   1
Atom   8H    basis set group =>   2
Atom   9H    basis set group =>   2
Atom  10C    basis set group =>   1
Atom  11H    basis set group =>   2
Atom  12H    basis set group =>   2
Atom  13C    basis set group =>   1
Atom  14C    basis set group =>   1
Atom  15H    basis set group =>   2
Atom  16C    basis set group =>   1
Atom  17H    basis set group =>   2
Atom  18C    basis set group =>   1
Atom  19O    basis set group =>   3
Atom  20H    basis set group =>   2
Atom  21C    basis set group =>   1
Atom  22H    basis set group =>   2
Atom  23C    basis set group =>   1
Atom  24H    basis set group =>   2
Atom  25C    basis set group =>   1
Atom  26O    basis set group =>   3
Atom  27N    basis set group =>   4
Atom  28C    basis set group =>   1
Atom  29H    basis set group =>   2
Atom  30H    basis set group =>   2
Atom  31H    basis set group =>   2
Atom  32C    basis set group =>   1
Atom  33H    basis set group =>   2
Atom  34H    basis set group =>   2
Atom  35H    basis set group =>   2


           ************************************************************
           *        Program running with 4 parallel MPI-processes     *
           *              working on a common directory               *
           ************************************************************
------------------------------------------------------------------------------
                           ORCA GTO INTEGRAL CALCULATION
                           -- RI-GTO INTEGRALS CHOSEN --
------------------------------------------------------------------------------
------------------------------------------------------------------------------
                   ___                                                        
                  /   \      - P O W E R E D   B Y -                         
                 /     \                                                     
                 |  |  |   _    _      __       _____    __    __             
                 |  |  |  | |  | |    /  \     |  _  \  |  |  /  |          
                  \  \/   | |  | |   /    \    | | | |  |  | /  /          
                 / \  \   | |__| |  /  /\  \   | |_| |  |  |/  /          
                |  |  |   |  __  | /  /__\  \  |    /   |      \           
                |  |  |   | |  | | |   __   |  |    \   |  |\   \          
                \     /   | |  | | |  |  |  |  | |\  \  |  | \   \       
                 \___/    |_|  |_| |__|  |__|  |_| \__\ |__|  \__/        
                                                                              
                      - O R C A' S   B I G   F R I E N D -                    
                                      &                                       
                       - I N T E G R A L  F E E D E R -                       
                                                                              
 v1 FN, 2020, v2 2021                                                         
------------------------------------------------------------------------------


Reading SHARK input file Ny_octanol.SHARKINP.tmp ... ok
----------------------
SHARK INTEGRAL PACKAGE
----------------------

Number of atoms                             ...     36
Number of basis functions                   ...    288
Number of shells                            ...    144
Maximum angular momentum                    ...      2
Integral batch strategy                     ... SHARK/LIBINT Hybrid
RI-J (if used) integral strategy            ... SPLIT-RIJ (Revised 2003 algorithm where possible)
Printlevel                                  ...      1
Contraction scheme used                     ... SEGMENTED contraction
Coulomb Range Separation                    ... NOT USED
Exchange Range Separation                   ... NOT USED
Finite Nucleus Model                        ... NOT USED
Auxiliary Coulomb fitting basis             ... AVAILABLE
   # of basis functions in Aux-J            ...   2255
   # of shells in Aux-J                     ...    851
   Maximum angular momentum in Aux-J        ...      3
Auxiliary J/K fitting basis                 ... AVAILABLE
   # of basis functions in Aux-JK           ...   2255
   # of shells in Aux-JK                    ...    851
   Maximum angular momentum in Aux-JK       ...      3
Auxiliary Correlation fitting basis         ... AVAILABLE
   # of basis functions in Aux-C            ...   2255
   # of shells in Aux-C                     ...    851
   Maximum angular momentum in Aux-C        ...      3
Auxiliary 'external' fitting basis          ... NOT available
Integral threshold                          ...     2.500000e-11
Primitive cut-off                           ...     2.500000e-12
Primitive pair pre-selection threshold      ...     2.500000e-12

Calculating pre-screening integrals         ... done (  0.1 sec) Dimension = 144
Organizing shell pair data                  ... done (  0.4 sec)
Shell pair information
Total number of shell pairs                 ...     10440
Shell pairs after pre-screening             ...      8529
Total number of primitive shell pairs       ...     59085
Primitive shell pairs kept                  ...     27284
          la=0 lb=0:   3210 shell pairs
          la=1 lb=0:   2817 shell pairs
          la=1 lb=1:    620 shell pairs
          la=2 lb=0:   1205 shell pairs
          la=2 lb=1:    556 shell pairs
          la=2 lb=2:    121 shell pairs

Calculating one electron integrals          ... done (  0.0 sec)
Calculating RI/J V-Matrix + Cholesky decomp.... done (  2.5 sec)
Calculating RI/JK V-Matrix + Cholesky decomp... done (  1.7 sec)
Calculating RI/C V-Matrix + Cholesky decomp.... done (  2.6 sec)
Calculating Nuclear repulsion               ... done (  0.0 sec) ENN=   1377.702029999522 Eh

SHARK setup successfully completed in   7.4 seconds

Maximum memory used throughout the entire GTOINT-calculation: 43.3 MB


           ************************************************************
           *        Program running with 4 parallel MPI-processes     *
           *              working on a common directory               *
           ************************************************************
-------------------------------------------------------------------------------
                                 ORCA SCF
-------------------------------------------------------------------------------

------------
SCF SETTINGS
------------
Hamiltonian:
 Density Functional     Method          .... DFT(GTOs)
 Exchange Functional    Exchange        .... B88
   X-Alpha parameter    XAlpha          ....  0.666667
   Becke's b parameter  XBeta           ....  0.004200
 Correlation Functional Correlation     .... LYP
 LDA part of GGA corr.  LDAOpt          .... VWN-5
 Gradients option       PostSCFGGA      .... off
 Hybrid DFT is turned on
   Fraction HF Exchange ScalHFX         ....  0.200000
   Scaling of DF-GGA-X  ScalDFX         ....  0.720000
   Scaling of DF-GGA-C  ScalDFC         ....  0.810000
   Scaling of DF-LDA-C  ScalLDAC        ....  1.000000
   Perturbative correction              ....  0.000000
   Density functional embedding theory  .... OFF
   NL short-range parameter             ....  4.800000
 RI-approximation to the Coulomb term is turned on
   Number of AuxJ basis functions       .... 2255
   RIJ-COSX (HFX calculated with COS-X)).... on


General Settings:
 Integral files         IntName         .... Ny_octanol
 Hartree-Fock type      HFTyp           .... RHF
 Total Charge           Charge          ....    0
 Multiplicity           Mult            ....    1
 Number of Electrons    NEL             ....  134
 Basis Dimension        Dim             ....  288
 Nuclear Repulsion      ENuc            ....   1377.7020299995 Eh

Convergence Acceleration:
 DIIS                   CNVDIIS         .... on
   Start iteration      DIISMaxIt       ....    12
   Startup error        DIISStart       ....  0.200000
   # of expansion vecs  DIISMaxEq       ....     5
   Bias factor          DIISBfac        ....   1.050
   Max. coefficient     DIISMaxC        ....  10.000
 Trust-Rad. Augm. Hess. CNVTRAH         .... auto
   Auto Start mean grad. ratio tolernc. ....  1.125000
   Auto Start start iteration           ....    20
   Auto Start num. interpolation iter.  ....    10
   Max. Number of Micro iterations      ....    16
   Max. Number of Macro iterations      .... Maxiter - #DIIS iter
   Number of Davidson start vectors     ....     2
   Converg. threshold I  (grad. norm)   ....   1.000e-05
   Converg. threshold II (energy diff.) ....   1.000e-08
   Grad. Scal. Fac. for Micro threshold ....   0.100
   Minimum threshold for Micro iter.    ....   0.010
   NR start threshold (gradient norm)   ....   0.001
   Initial trust radius                 ....   0.400
   Minimum AH scaling param. (alpha)    ....   1.000
   Maximum AH scaling param. (alpha)    .... 1000.000
   Orbital update algorithm             .... Taylor
   White noise on init. David. guess    .... on
   Maximum white noise                  ....   0.010
   Quad. conv. algorithm                .... NR
 SOSCF                  CNVSOSCF        .... on
   Start iteration      SOSCFMaxIt      ....   150
   Startup grad/error   SOSCFStart      ....  0.003300
 Level Shifting         CNVShift        .... on
   Level shift para.    LevelShift      ....    0.2500
   Turn off err/grad.   ShiftErr        ....    0.0010
 Zerner damping         CNVZerner       .... off
 Static damping         CNVDamp         .... on
   Fraction old density DampFac         ....    0.7000
   Max. Damping (<1)    DampMax         ....    0.9800
   Min. Damping (>=0)   DampMin         ....    0.0000
   Turn off err/grad.   DampErr         ....    0.1000
 Fernandez-Rico         CNVRico         .... off

SCF Procedure:
 Maximum # iterations   MaxIter         ....   125
 SCF integral mode      SCFMode         .... Direct
   Integral package                     .... SHARK and LIBINT hybrid scheme
 Reset frequency        DirectResetFreq ....    20
 Integral Threshold     Thresh          ....  2.500e-11 Eh
 Primitive CutOff       TCut            ....  2.500e-12 Eh

Convergence Tolerance:
 Convergence Check Mode ConvCheckMode   .... Total+1el-Energy
 Convergence forced     ConvForced      .... 0
 Energy Change          TolE            ....  1.000e-08 Eh
 1-El. energy change                    ....  1.000e-05 Eh
 Orbital Gradient       TolG            ....  1.000e-05
 Orbital Rotation angle TolX            ....  1.000e-05
 DIIS Error             TolErr          ....  5.000e-07


Diagonalization of the overlap matrix:
Smallest eigenvalue                        ... 4.326e-04
Time for diagonalization                   ...    0.018 sec
Threshold for overlap eigenvalues          ... 1.000e-08
Number of eigenvalues below threshold      ... 0
Time for construction of square roots      ...    0.437 sec
Total time needed                          ...    0.457 sec

Time for model grid setup =    1.350 sec

------------------------------
INITIAL GUESS: MODEL POTENTIAL
------------------------------
Loading Hartree-Fock densities                     ... done
Calculating cut-offs                               ... done
Initializing the effective Hamiltonian             ... done
Setting up the integral package (SHARK)            ... done
Starting the Coulomb interaction                   ... done (   0.3 sec)
Reading the grid                                   ... done
Mapping shells                                     ... done
Starting the XC term evaluation                    ... done (   0.2 sec)
  promolecular density results
     # of electrons  =    133.986885121
     EX              =   -109.965859251
     EC              =     -4.556635763
     EX+EC           =   -114.522495013
Transforming the Hamiltonian                       ... done (   0.0 sec)
Diagonalizing the Hamiltonian                      ... done (   0.0 sec)
Back transforming the eigenvectors                 ... done (   0.0 sec)
Now organizing SCF variables                       ... done
                      ------------------
                      INITIAL GUESS DONE (   1.9 sec)
                      ------------------
-------------------
DFT GRID GENERATION
-------------------

General Integration Accuracy     IntAcc      ... 4.388
Radial Grid Type                 RadialGrid  ... OptM3 with GC (2021)
Angular Grid (max. ang.)         AngularGrid ... 4 (Lebedev-302)
Angular grid pruning method      GridPruning ... 4 (adaptive)
Weight generation scheme         WeightScheme... Becke
Basis function cutoff            BFCut       ... 1.0000e-11
Integration weight cutoff        WCut        ... 1.0000e-14
Angular grids for H and He will be reduced by one unit
Partially contracted basis set               ... off
Rotationally invariant grid construction     ... off

Total number of grid points                  ...   164681
Total number of batches                      ...     2593
Average number of points per batch           ...       63
Average number of grid points per atom       ...     4574
Time for grid setup =    2.214 sec

--------------------
COSX GRID GENERATION
--------------------

GRIDX 1
-------
General Integration Accuracy     IntAcc      ... 3.816
Radial Grid Type                 RadialGrid  ... OptM3 with GC (2021)
Angular Grid (max. ang.)         AngularGrid ... 1 (Lebedev-50)
Angular grid pruning method      GridPruning ... 4 (adaptive)
Weight generation scheme         WeightScheme... Becke
Basis function cutoff            BFCut       ... 1.0000e-11
Integration weight cutoff        WCut        ... 1.0000e-14
Angular grids for H and He will be reduced by one unit
Partially contracted basis set               ... on
Rotationally invariant grid construction     ... off

Total number of grid points                  ...    20957
Total number of batches                      ...      345
Average number of points per batch           ...       60
Average number of grid points per atom       ...      582
UseSFitting                                  ... on

GRIDX 2
-------
General Integration Accuracy     IntAcc      ... 4.020
Radial Grid Type                 RadialGrid  ... OptM3 with GC (2021)
Angular Grid (max. ang.)         AngularGrid ... 2 (Lebedev-110)
Angular grid pruning method      GridPruning ... 4 (adaptive)
Weight generation scheme         WeightScheme... Becke
Basis function cutoff            BFCut       ... 1.0000e-11
Integration weight cutoff        WCut        ... 1.0000e-14
Angular grids for H and He will be reduced by one unit
Partially contracted basis set               ... on
Rotationally invariant grid construction     ... off

Total number of grid points                  ...    44804
Total number of batches                      ...      717
Average number of points per batch           ...       62
Average number of grid points per atom       ...     1245
UseSFitting                                  ... on

GRIDX 3
-------
General Integration Accuracy     IntAcc      ... 4.338
Radial Grid Type                 RadialGrid  ... OptM3 with GC (2021)
Angular Grid (max. ang.)         AngularGrid ... 3 (Lebedev-194)
Angular grid pruning method      GridPruning ... 4 (adaptive)
Weight generation scheme         WeightScheme... Becke
Basis function cutoff            BFCut       ... 1.0000e-11
Integration weight cutoff        WCut        ... 1.0000e-14
Angular grids for H and He will be reduced by one unit
Partially contracted basis set               ... on
Rotationally invariant grid construction     ... off

Total number of grid points                  ...    97741
Total number of batches                      ...     1545
Average number of points per batch           ...       63
Average number of grid points per atom       ...     2715
UseSFitting                                  ... on

Time for X-Grid setup             =    3.634 sec


--------------------
CPCM SOLVATION MODEL
--------------------
CPCM parameters:
  Epsilon                                         ...       9.8629
  Refrac                                          ...       1.4295
  Rsolv                                           ...       1.3000
  Surface type                                    ... GAUSSIAN VDW
  Epsilon function type                           ...         CPCM
Radii:
 Radius for C  used is    3.8550 Bohr (=   2.0400 Ang.)
 Radius for H  used is    2.4944 Bohr (=   1.3200 Ang.)
 Radius for O  used is    3.4469 Bohr (=   1.8240 Ang.)
 Radius for N  used is    3.5149 Bohr (=   1.8600 Ang.)
Calculating surface                               ...        done! (  0.0s)
GEPOL surface points                              ...         1862
GEPOL Volume                                      ...    2049.4061
GEPOL Surface-area                                ...    1047.3881
Calculating surface distance matrix               ...        done! (  0.0s)
Performing Cholesky decomposition & store         ...        done! (  0.2s)
Overall time for CPCM initialization              ...                 0.2s
--------------
SCF ITERATIONS
--------------
ITER       Energy         Delta-E        Max-DP      RMS-DP      [F,P]     Damp
               ***  Starting incremental Fock matrix formation  ***
  0   -840.4355442094   0.000000000000 0.09836726  0.00186310  0.2771319 0.7000
  1   -840.6582987760  -0.222754566629 0.05666084  0.00124618  0.1122595 0.7000
                               ***Turning on DIIS***
  2   -840.7465655150  -0.088266738984 0.06303118  0.00197784  0.0370864 0.0000
  3   -840.8879113707  -0.141345855706 0.03819273  0.00084959  0.0548158 0.0000
  4   -840.9158016310  -0.027890260305 0.00926610  0.00027881  0.0149565 0.0000
  5   -840.9177299785  -0.001928347417 0.00376845  0.00008624  0.0059173 0.0000
                      *** Initiating the SOSCF procedure ***
                           *** Shutting down DIIS ***
                      *** Re-Reading the Fockian *** 
                      *** Removing any level shift *** 
ITER      Energy       Delta-E        Grad      Rot      Max-DP    RMS-DP
  6   -840.91785382  -0.0001238409  0.000198  0.000198  0.001105  0.000027
               *** Restarting incremental Fock matrix formation ***
  7   -840.91782462   0.0000292019  0.000102  0.000231  0.000725  0.000016
  8   -840.91782446   0.0000001617  0.000163  0.000274  0.000560  0.000007
  9   -840.91782603  -0.0000015703  0.000033  0.000086  0.000210  0.000004
 10   -840.91782593   0.0000000949  0.000069  0.000066  0.000147  0.000002
 11   -840.91782608  -0.0000001522  0.000006  0.000011  0.000021  0.000001
 12   -840.91782609  -0.0000000112  0.000004  0.000008  0.000010  0.000000
                  ***Gradient check signals convergence***
              ***Rediagonalizing the Fockian in SOSCF/NRSCF***

               *****************************************************
               *                     SUCCESS                       *
               *           SCF CONVERGED AFTER  13 CYCLES          *
               *****************************************************

Old exchange energy                            =    -22.370189126 Eh
New exchange energy                            =    -22.370228186 Eh
Exchange energy change after final integration =     -0.000039060 Eh
Total energy after final integration           =   -840.917865155 Eh
Final COS-X integration done in                =    13.952 sec

----------------
TOTAL SCF ENERGY
----------------

Total Energy       :         -840.91786516 Eh          -22882.53844 eV

Components:
Nuclear Repulsion  :         1377.70203000 Eh           37489.17815 eV
Electronic Energy  :        -2218.61989515 Eh          -60371.71659 eV
One Electron Energy:        -3880.95419307 Eh         -105606.13251 eV
Two Electron Energy:         1662.33429791 Eh           45234.41592 eV
Max COSX asymmetry :            0.00000295 Eh               0.00008 eV
CPCM Dielectric    :           -0.02274646 Eh              -0.61896 eV

Virial components:
Potential Energy   :        -1676.93689352 Eh          -45631.77275 eV
Kinetic Energy     :          836.01902837 Eh           22749.23431 eV
Virial Ratio       :            2.00585972


DFT components:
N(Alpha)           :       67.000008975911 electrons
N(Beta)            :       67.000008975911 electrons
N(Total)           :      134.000017951823 electrons
E(X)               :      -88.854262902223 Eh       
E(C)               :       -5.366501825779 Eh       
E(XC)              :      -94.220764728002 Eh       
DFET-embed. en.    :        0.000000000000 Eh       
CPCM Solvation Model Properties:
Surface-charge          :           -0.01938612
Charge-correction       :           -0.00005429 Eh              -0.00148 eV
Free-energy (cav+disp)  :  This term is not implemented in the current solvation scheme

---------------
SCF CONVERGENCE
---------------

  Last Energy change         ...   -1.0175e-10  Tolerance :   1.0000e-08
  Last MAX-Density change    ...    4.4409e-15  Tolerance :   1.0000e-07
  Last RMS-Density change    ...    4.8572e-17  Tolerance :   5.0000e-09
  Last Orbital Gradient      ...    1.2121e-06  Tolerance :   1.0000e-05
  Last Orbital Rotation      ...    4.3199e-06  Tolerance :   1.0000e-05

             **** THE GBW FILE WAS UPDATED (Ny_octanol.gbw) ****
             **** DENSITY Ny_octanol.scfp WAS UPDATED ****
             **** ENERGY FILE WAS UPDATED (Ny_octanol.en.tmp) ****
             **** THE GBW FILE WAS UPDATED (Ny_octanol.gbw) ****
             **** DENSITY Ny_octanol.scfp WAS UPDATED ****
----------------
ORBITAL ENERGIES
----------------

  NO   OCC          E(Eh)            E(eV) 
   0   2.0000     -19.166656      -521.5512 
   1   2.0000     -19.115126      -520.1490 
   2   2.0000     -19.109591      -519.9984 
   3   2.0000     -14.360787      -390.7769 
   4   2.0000     -14.359917      -390.7532 
   5   2.0000     -10.284849      -279.8650 
   6   2.0000     -10.280823      -279.7554 
   7   2.0000     -10.241584      -278.6877 
   8   2.0000     -10.214809      -277.9591 
   9   2.0000     -10.210712      -277.8476 
  10   2.0000     -10.199058      -277.5305 
  11   2.0000     -10.195498      -277.4336 
  12   2.0000     -10.182989      -277.0932 
  13   2.0000     -10.181548      -277.0540 
  14   2.0000     -10.180332      -277.0209 
  15   2.0000     -10.179435      -276.9965 
  16   2.0000     -10.175921      -276.9009 
  17   2.0000     -10.169967      -276.7389 
  18   2.0000      -1.050074       -28.5740 
  19   2.0000      -1.041600       -28.3434 
  20   2.0000      -1.028054       -27.9748 
  21   2.0000      -0.936677       -25.4883 
  22   2.0000      -0.928649       -25.2698 
  23   2.0000      -0.848980       -23.1019 
  24   2.0000      -0.768870       -20.9220 
  25   2.0000      -0.749851       -20.4045 
  26   2.0000      -0.744168       -20.2498 
  27   2.0000      -0.719143       -19.5689 
  28   2.0000      -0.707801       -19.2602 
  29   2.0000      -0.684672       -18.6309 
  30   2.0000      -0.667533       -18.1645 
  31   2.0000      -0.618422       -16.8281 
  32   2.0000      -0.594406       -16.1746 
  33   2.0000      -0.549140       -14.9429 
  34   2.0000      -0.538303       -14.6480 
  35   2.0000      -0.531932       -14.4746 
  36   2.0000      -0.511319       -13.9137 
  37   2.0000      -0.495669       -13.4878 
  38   2.0000      -0.482895       -13.1402 
  39   2.0000      -0.475826       -12.9479 
  40   2.0000      -0.466870       -12.7042 
  41   2.0000      -0.460271       -12.5246 
  42   2.0000      -0.449469       -12.2307 
  43   2.0000      -0.440528       -11.9874 
  44   2.0000      -0.428364       -11.6564 
  45   2.0000      -0.417199       -11.3526 
  46   2.0000      -0.412983       -11.2378 
  47   2.0000      -0.407614       -11.0918 
  48   2.0000      -0.403445       -10.9783 
  49   2.0000      -0.400015       -10.8850 
  50   2.0000      -0.397921       -10.8280 
  51   2.0000      -0.394979       -10.7479 
  52   2.0000      -0.393151       -10.6982 
  53   2.0000      -0.386143       -10.5075 
  54   2.0000      -0.376465       -10.2441 
  55   2.0000      -0.370941       -10.0938 
  56   2.0000      -0.361258        -9.8303 
  57   2.0000      -0.357728        -9.7343 
  58   2.0000      -0.349307        -9.5051 
  59   2.0000      -0.333900        -9.0859 
  60   2.0000      -0.324071        -8.8184 
  61   2.0000      -0.261534        -7.1167 
  62   2.0000      -0.256630        -6.9832 
  63   2.0000      -0.250761        -6.8236 
  64   2.0000      -0.242454        -6.5975 
  65   2.0000      -0.235007        -6.3949 
  66   2.0000      -0.213836        -5.8188 
  67   0.0000      -0.002230        -0.0607 
  68   0.0000       0.010552         0.2871 
  69   0.0000       0.015915         0.4331 
  70   0.0000       0.028938         0.7874 
  71   0.0000       0.085365         2.3229 
  72   0.0000       0.092246         2.5101 
  73   0.0000       0.106644         2.9019 
  74   0.0000       0.120075         3.2674 
  75   0.0000       0.131478         3.5777 
  76   0.0000       0.144055         3.9199 
  77   0.0000       0.151958         4.1350 
  78   0.0000       0.155363         4.2276 
  79   0.0000       0.158452         4.3117 
  80   0.0000       0.162342         4.4175 
  81   0.0000       0.168147         4.5755 
  82   0.0000       0.173722         4.7272 
  83   0.0000       0.177029         4.8172 
  84   0.0000       0.179274         4.8783 
  85   0.0000       0.182380         4.9628 
  86   0.0000       0.192741         5.2447 
  87   0.0000       0.196391         5.3441 
  88   0.0000       0.205078         5.5805 
  89   0.0000       0.208240         5.6665 
  90   0.0000       0.217633         5.9221 
  91   0.0000       0.222241         6.0475 
  92   0.0000       0.232552         6.3281 
  93   0.0000       0.238667         6.4945 
  94   0.0000       0.252315         6.8659 
  95   0.0000       0.263585         7.1725 
  96   0.0000       0.271348         7.3837 
  97   0.0000       0.277896         7.5619 
  98   0.0000       0.319403         8.6914 
  99   0.0000       0.334557         9.1038 
 100   0.0000       0.339171         9.2293 
 101   0.0000       0.349714         9.5162 
 102   0.0000       0.360779         9.8173 
 103   0.0000       0.369010        10.0413 
 104   0.0000       0.384924        10.4743 
 105   0.0000       0.417660        11.3651 
 106   0.0000       0.477948        13.0056 
 107   0.0000       0.492443        13.4000 
 108   0.0000       0.498597        13.5675 
 109   0.0000       0.503397        13.6981 
 110   0.0000       0.515029        14.0146 
 111   0.0000       0.520288        14.1577 
 112   0.0000       0.524429        14.2705 
 113   0.0000       0.534454        14.5432 
 114   0.0000       0.542292        14.7565 
 115   0.0000       0.546398        14.8683 
 116   0.0000       0.555184        15.1073 
 117   0.0000       0.563024        15.3207 
 118   0.0000       0.582179        15.8419 
 119   0.0000       0.585991        15.9456 
 120   0.0000       0.607400        16.5282 
 121   0.0000       0.609092        16.5742 
 122   0.0000       0.613749        16.7010 
 123   0.0000       0.618183        16.8216 
 124   0.0000       0.632298        17.2057 
 125   0.0000       0.640847        17.4383 
 126   0.0000       0.650465        17.7001 
 127   0.0000       0.660649        17.9772 
 128   0.0000       0.664668        18.0865 
 129   0.0000       0.672239        18.2926 
 130   0.0000       0.684361        18.6224 
 131   0.0000       0.694895        18.9091 
 132   0.0000       0.711454        19.3596 
 133   0.0000       0.720524        19.6065 
 134   0.0000       0.743708        20.2373 
 135   0.0000       0.744871        20.2690 
 136   0.0000       0.752199        20.4684 
 137   0.0000       0.760276        20.6881 
 138   0.0000       0.765357        20.8264 
 139   0.0000       0.781413        21.2633 
 140   0.0000       0.785404        21.3719 
 141   0.0000       0.813245        22.1295 
 142   0.0000       0.815726        22.1970 
 143   0.0000       0.826331        22.4856 
 144   0.0000       0.835866        22.7451 
 145   0.0000       0.845929        23.0189 
 146   0.0000       0.849516        23.1165 
 147   0.0000       0.862096        23.4588 
 148   0.0000       0.871341        23.7104 
 149   0.0000       0.876384        23.8476 
 150   0.0000       0.882467        24.0131 
 151   0.0000       0.892597        24.2888 
 152   0.0000       0.896129        24.3849 
 153   0.0000       0.904735        24.6191 
 154   0.0000       0.910628        24.7794 
 155   0.0000       0.919063        25.0090 
 156   0.0000       0.921226        25.0678 
 157   0.0000       0.928655        25.2700 
 158   0.0000       0.945570        25.7303 
 159   0.0000       0.955705        26.0060 
 160   0.0000       0.965507        26.2728 
 161   0.0000       0.972027        26.4502 
 162   0.0000       0.973380        26.4870 
 163   0.0000       0.985383        26.8136 
 164   0.0000       0.998488        27.1702 
 165   0.0000       1.000442        27.2234 
 166   0.0000       1.006952        27.4005 
 167   0.0000       1.013279        27.5727 
 168   0.0000       1.041073        28.3290 
 169   0.0000       1.049607        28.5613 
 170   0.0000       1.063475        28.9386 
 171   0.0000       1.079624        29.3781 
 172   0.0000       1.094630        29.7864 
 173   0.0000       1.114230        30.3197 
 174   0.0000       1.129461        30.7342 
 175   0.0000       1.142137        31.0791 
 176   0.0000       1.162254        31.6265 
 177   0.0000       1.179816        32.1044 
 178   0.0000       1.202294        32.7161 
 179   0.0000       1.220575        33.2135 
 180   0.0000       1.239392        33.7256 
 181   0.0000       1.247346        33.9420 
 182   0.0000       1.263018        34.3685 
 183   0.0000       1.279950        34.8292 
 184   0.0000       1.308126        35.5959 
 185   0.0000       1.317217        35.8433 
 186   0.0000       1.331578        36.2341 
 187   0.0000       1.367550        37.2129 
 188   0.0000       1.379368        37.5345 
 189   0.0000       1.406589        38.2752 
 190   0.0000       1.417119        38.5618 
 191   0.0000       1.423707        38.7410 
 192   0.0000       1.433828        39.0165 
 193   0.0000       1.442403        39.2498 
 194   0.0000       1.452015        39.5113 
 195   0.0000       1.458003        39.6743 
 196   0.0000       1.464386        39.8480 
 197   0.0000       1.474128        40.1131 
 198   0.0000       1.483283        40.3622 
 199   0.0000       1.515440        41.2372 
 200   0.0000       1.539568        41.8938 
 201   0.0000       1.562477        42.5172 
 202   0.0000       1.590339        43.2753 
 203   0.0000       1.646337        44.7991 
 204   0.0000       1.663101        45.2553 
 205   0.0000       1.708312        46.4855 
 206   0.0000       1.725037        46.9406 
 207   0.0000       1.737308        47.2746 
 208   0.0000       1.746757        47.5317 
 209   0.0000       1.761831        47.9419 
 210   0.0000       1.785267        48.5796 
 211   0.0000       1.789161        48.6856 
 212   0.0000       1.805710        49.1359 
 213   0.0000       1.812474        49.3199 
 214   0.0000       1.817488        49.4564 
 215   0.0000       1.835338        49.9421 
 216   0.0000       1.849946        50.3396 
 217   0.0000       1.872170        50.9443 
 218   0.0000       1.883574        51.2547 
 219   0.0000       1.884321        51.2750 
 220   0.0000       1.906417        51.8762 
 221   0.0000       1.914687        52.1013 
 222   0.0000       1.933738        52.6197 
 223   0.0000       1.945832        52.9488 
 224   0.0000       1.958612        53.2966 
 225   0.0000       1.968253        53.5589 
 226   0.0000       1.975973        53.7690 
 227   0.0000       1.978240        53.8307 
 228   0.0000       1.989918        54.1484 
 229   0.0000       1.995608        54.3033 
 230   0.0000       2.000526        54.4371 
 231   0.0000       2.024421        55.0873 
 232   0.0000       2.051736        55.8306 
 233   0.0000       2.058325        56.0099 
 234   0.0000       2.066257        56.2257 
 235   0.0000       2.081252        56.6337 
 236   0.0000       2.085628        56.7528 
 237   0.0000       2.103440        57.2375 
 238   0.0000       2.106340        57.3164 
 239   0.0000       2.136608        58.1401 
 240   0.0000       2.150825        58.5269 
 241   0.0000       2.153938        58.6116 
 242   0.0000       2.185047        59.4582 
 243   0.0000       2.192126        59.6508 
 244   0.0000       2.224613        60.5348 
 245   0.0000       2.245294        61.0975 
 246   0.0000       2.268203        61.7209 
 247   0.0000       2.272350        61.8338 
 248   0.0000       2.280719        62.0615 
 249   0.0000       2.306199        62.7549 
 250   0.0000       2.322452        63.1971 
 251   0.0000       2.325048        63.2678 
 252   0.0000       2.341887        63.7260 
 253   0.0000       2.354772        64.0766 
 254   0.0000       2.362384        64.2837 
 255   0.0000       2.377135        64.6851 
 256   0.0000       2.396440        65.2104 
 257   0.0000       2.412648        65.6515 
 258   0.0000       2.436263        66.2941 
 259   0.0000       2.444948        66.5304 
 260   0.0000       2.473418        67.3051 
 261   0.0000       2.486238        67.6540 
 262   0.0000       2.499657        68.0191 
 263   0.0000       2.546811        69.3022 
 264   0.0000       2.577937        70.1492 
 265   0.0000       2.601425        70.7884 
 266   0.0000       2.617917        71.2371 
 267   0.0000       2.630150        71.5700 
 268   0.0000       2.639941        71.8364 
 269   0.0000       2.652798        72.1863 
 270   0.0000       2.664240        72.4976 
 271   0.0000       2.673009        72.7363 
 272   0.0000       2.702164        73.5296 
 273   0.0000       2.722401        74.0803 
 274   0.0000       2.729587        74.2758 
 275   0.0000       2.769071        75.3502 
 276   0.0000       2.814469        76.5856 
 277   0.0000       2.886970        78.5584 
 278   0.0000       2.919357        79.4397 
 279   0.0000       2.944569        80.1258 
 280   0.0000       2.967357        80.7459 
 281   0.0000       2.977653        81.0261 
 282   0.0000       3.002496        81.7021 
 283   0.0000       3.014226        82.0213 
 284   0.0000       3.136804        85.3568 
 285   0.0000       3.167708        86.1977 
 286   0.0000       3.180536        86.5468 
 287   0.0000       3.427133        93.2570 

                    ********************************
                    * MULLIKEN POPULATION ANALYSIS *
                    ********************************

-----------------------
MULLIKEN ATOMIC CHARGES
-----------------------
   0 C :    0.528578
   1 H :    0.197867
   2 H :    0.186973
   3 H :    0.175913
   4 O :   -0.507625
   5 C :   -0.555623
   6 N :   -0.377760
   7 C :   -0.250619
   8 H :    0.182208
   9 H :    0.203040
  10 C :   -0.251378
  11 H :    0.179723
  12 H :    0.195500
  13 C :    0.135498
  14 C :   -0.200008
  15 H :    0.148991
  16 C :   -0.186217
  17 H :    0.151073
  18 C :    0.346344
  19 O :   -0.667774
  20 H :    0.444752
  21 C :   -0.184878
  22 H :    0.163236
  23 C :   -0.227735
  24 H :    0.155576
  25 C :    0.521013
  26 O :   -0.532979
  27 N :   -0.362283
  28 C :   -0.330344
  29 H :    0.168366
  30 H :    0.188760
  31 H :    0.171106
  32 C :   -0.352310
  33 H :    0.169882
  34 H :    0.171011
  35 H :    0.202125
Sum of atomic charges:   -0.0000000

--------------------------------
MULLIKEN REDUCED ORBITAL CHARGES
--------------------------------
  0 C s       :     2.980011  s :     2.980011
      pz      :     0.766752  p :     2.381017
      px      :     0.811483
      py      :     0.802782
      dz2     :     0.035237  d :     0.110394
      dxz     :     0.021953
      dyz     :     0.022510
      dx2y2   :     0.012579
      dxy     :     0.018115
  1 H s       :     0.802133  s :     0.802133
  2 H s       :     0.813027  s :     0.813027
  3 H s       :     0.824087  s :     0.824087
  4 O s       :     3.854353  s :     3.854353
      pz      :     1.553329  p :     4.627096
      px      :     1.468363
      py      :     1.605403
      dz2     :     0.006018  d :     0.026176
      dxz     :     0.007157
      dyz     :     0.004518
      dx2y2   :     0.004676
      dxy     :     0.003807
  5 C s       :     3.322774  s :     3.322774
      pz      :     1.099273  p :     3.201262
      px      :     1.059498
      py      :     1.042492
      dz2     :     0.006674  d :     0.031586
      dxz     :     0.002480
      dyz     :     0.009658
      dx2y2   :     0.004548
      dxy     :     0.008228
  6 N s       :     3.536024  s :     3.536024
      pz      :     1.143069  p :     3.805584
      px      :     1.271343
      py      :     1.391172
      dz2     :     0.008772  d :     0.036152
      dxz     :     0.008656
      dyz     :     0.007515
      dx2y2   :     0.005495
      dxy     :     0.005715
  7 C s       :     3.253022  s :     3.253022
      pz      :     1.115068  p :     2.945624
      px      :     0.926075
      py      :     0.904480
      dz2     :     0.007942  d :     0.051973
      dxz     :     0.013880
      dyz     :     0.006608
      dx2y2   :     0.011562
      dxy     :     0.011981
  8 H s       :     0.817792  s :     0.817792
  9 H s       :     0.796960  s :     0.796960
 10 C s       :     3.240895  s :     3.240895
      pz      :     0.941569  p :     2.956067
      px      :     0.911091
      py      :     1.103407
      dz2     :     0.008481  d :     0.054417
      dxz     :     0.014405
      dyz     :     0.010145
      dx2y2   :     0.014917
      dxy     :     0.006469
 11 H s       :     0.820277  s :     0.820277
 12 H s       :     0.804500  s :     0.804500
 13 C s       :     3.132702  s :     3.132702
      pz      :     0.965514  p :     2.692061
      px      :     0.842996
      py      :     0.883551
      dz2     :     0.004410  d :     0.039739
      dxz     :     0.006330
      dyz     :     0.005619
      dx2y2   :     0.011683
      dxy     :     0.011697
 14 C s       :     3.213975  s :     3.213975
      pz      :     0.989759  p :     2.949028
      px      :     0.956197
      py      :     1.003072
      dz2     :     0.002880  d :     0.037006
      dxz     :     0.007618
      dyz     :     0.004920
      dx2y2   :     0.011410
      dxy     :     0.010177
 15 H s       :     0.851009  s :     0.851009
 16 C s       :     3.197178  s :     3.197178
      pz      :     1.029277  p :     2.954744
      px      :     0.970502
      py      :     0.954965
      dz2     :     0.004254  d :     0.034294
      dxz     :     0.005230
      dyz     :     0.004486
      dx2y2   :     0.008639
      dxy     :     0.011684
 17 H s       :     0.848927  s :     0.848927
 18 C s       :     3.064167  s :     3.064167
      pz      :     0.939138  p :     2.519724
      px      :     0.675732
      py      :     0.904855
      dz2     :     0.007392  d :     0.069764
      dxz     :     0.015980
      dyz     :     0.006441
[...]
     90       0.000010   0.007517   0.012158   0.000004  -0.000045   0.000005
     91       0.000043   0.045238   0.071484  -0.000007   0.000450  -0.000003
     92      -0.000653  -0.518763  -0.802985  -0.000073  -0.003794  -0.000019
     93       0.000458   0.064952   0.098568   0.000003  -0.002109  -0.000014
     94      -0.000635  -0.083845  -0.125363  -0.000009   0.003598   0.000050
     95      -0.000335  -0.040650  -0.062639  -0.000001   0.001652   0.000023
     96      -0.000333   0.027332  -0.017797   0.000051   0.000553   0.000007
     97      -0.000498   0.066359  -0.043172   0.000158  -0.000850   0.000000
     98       0.000026  -0.004202   0.002238  -0.000013  -0.000309  -0.000008
     99       0.001493  -0.114986   0.076441  -0.000203   0.000124   0.000029
    100       0.000010   0.003223  -0.001076   0.000012  -0.000522  -0.000017
    101       0.000817  -0.052424   0.034024  -0.000050  -0.001458   0.000004
    102      -0.000494   0.096298  -0.062344   0.000199  -0.004307  -0.000035
    103       0.000552  -0.107024   0.070745  -0.000201   0.004949   0.000053
    104       0.000251  -0.057569   0.036708  -0.000122   0.002935   0.000032
    105       0.002537  -0.306467   0.200045  -0.000707   0.001656   0.000001
    106       0.005540  -0.686792   0.448341  -0.001665   0.004130  -0.000056
    107      -0.001109   0.135116  -0.088661   0.000311  -0.000848   0.000001


-----------
IR SPECTRUM
-----------

 Mode   freq       eps      Int      T**2         TX        TY        TZ
       cm**-1   L/(mol*cm) km/mol    a.u.
----------------------------------------------------------------------------
  7:     37.95   0.000118    0.60  0.000973  (-0.014034  0.011381  0.025427)
  8:     50.30   0.000811    4.10  0.005030  (-0.068706  0.015625 -0.008078)
  9:     60.17   0.001235    6.24  0.006403  ( 0.066936 -0.020094  0.038966)
 10:     66.81   0.000083    0.42  0.000389  ( 0.014131 -0.013715 -0.001155)
 11:     85.11   0.000031    0.16  0.000115  (-0.003353  0.004869 -0.008966)
 12:     99.77   0.003156   15.95  0.009870  (-0.008042 -0.099001 -0.002102)
 13:    113.66   0.000366    1.85  0.001005  ( 0.000668 -0.031601 -0.002508)
 14:    124.47   0.000588    2.97  0.001474  ( 0.008624  0.032349  0.018800)
 15:    155.59   0.000159    0.80  0.000318  ( 0.012196 -0.002057  0.012856)
 16:    169.35   0.001015    5.13  0.001871  (-0.010163 -0.038412  0.017102)
 17:    179.18   0.000122    0.62  0.000212  ( 0.009325 -0.008569  0.007198)
 18:    238.95   0.000263    1.33  0.000343  (-0.017294  0.002078 -0.006298)
 19:    266.72   0.000356    1.80  0.000416  (-0.004745 -0.019826  0.000620)
 20:    288.01   0.003663   18.51  0.003968  ( 0.056559 -0.027735 -0.000553)
 21:    308.21   0.001978   10.00  0.002003  (-0.016089  0.031110 -0.027858)
 22:    342.18   0.001551    7.84  0.001414  ( 0.002572 -0.034873  0.013833)
 23:    355.03   0.002480   12.53  0.002180  ( 0.012916  0.035893  0.026923)
 24:    361.37   0.034655  175.13  0.029926  ( 0.009356  0.082679 -0.151668)
 25:    376.96   0.002130   10.76  0.001763  (-0.023904 -0.024865 -0.023953)
 26:    421.75   0.000171    0.87  0.000127  ( 0.010842  0.002393  0.001846)
 27:    423.53   0.000418    2.11  0.000308  ( 0.016573  0.005541  0.001666)
 28:    431.03   0.000766    3.87  0.000555  (-0.016481 -0.016745 -0.001683)
 29:    457.88   0.005424   27.41  0.003697  (-0.053535 -0.015643  0.024206)
 30:    485.91   0.005008   25.31  0.003216  (-0.043723  0.026800 -0.024209)
 31:    516.92   0.002211   11.17  0.001335  (-0.003697 -0.027381  0.023905)
 32:    542.29   0.001055    5.33  0.000607  (-0.021233 -0.011264 -0.005410)
 33:    580.87   0.002870   14.50  0.001542  ( 0.006933  0.037984 -0.007131)
 34:    602.74   0.003741   18.90  0.001937  (-0.028869 -0.031944  0.009107)
 35:    636.18   0.004876   24.64  0.002392  ( 0.008011  0.018085  0.044728)
 36:    654.25   0.000734    3.71  0.000350  (-0.002746 -0.006221 -0.017431)
 37:    704.94   0.000052    0.26  0.000023  ( 0.002572  0.003764  0.001492)
 38:    716.82   0.001201    6.07  0.000523  (-0.022424 -0.001096  0.004340)
 39:    768.07   0.001362    6.88  0.000553  (-0.009596 -0.016795  0.013381)
 40:    776.54   0.002062   10.42  0.000829  (-0.020808  0.012549  0.015435)
 41:    821.13   0.007827   39.55  0.002974  (-0.003276 -0.005529 -0.054158)
 42:    827.44   0.002696   13.62  0.001017  ( 0.001063 -0.031854 -0.000962)
 43:    843.03   0.007015   35.45  0.002597  ( 0.003159  0.036928 -0.034974)
 44:    863.73   0.003656   18.47  0.001321  (-0.034699 -0.010697 -0.001525)
 45:    942.21   0.000933    4.71  0.000309  ( 0.015355 -0.002227  0.008255)
 46:    958.10   0.000353    1.79  0.000115  (-0.003019  0.003956  0.009503)
 47:    960.37   0.000387    1.96  0.000126  (-0.006751  0.005290 -0.007228)
 48:    986.22   0.006367   32.18  0.002015  ( 0.033263 -0.025814  0.015554)
 49:   1004.34   0.006776   34.24  0.002106  (-0.017741 -0.027317 -0.032319)
 50:   1009.80   0.006692   33.82  0.002068  ( 0.024570  0.028459 -0.025584)
 51:   1032.84   0.000349    1.76  0.000105  (-0.009369  0.004197 -0.000188)
 52:   1063.39   0.002487   12.57  0.000730  ( 0.020449  0.015790  0.007894)
 53:   1089.07   0.003752   18.96  0.001075  (-0.010585 -0.005340  0.030570)
 54:   1100.81   0.006375   32.22  0.001807  (-0.001402  0.024017  0.035050)
 55:   1133.97   0.006758   34.15  0.001860  ( 0.014529  0.036379  0.018035)
 56:   1139.09   0.000158    0.80  0.000043  ( 0.002871 -0.005880  0.000648)
 57:   1172.43   0.012399   62.66  0.003300  (-0.003903 -0.033958 -0.046172)
 58:   1187.97   0.000602    3.04  0.000158  ( 0.007624 -0.009320 -0.003635)
 59:   1198.00   0.052446  265.04  0.013661  ( 0.115876  0.015241  0.001434)
 60:   1204.88   0.001353    6.84  0.000350  ( 0.018036 -0.004119  0.002840)
 61:   1220.14   0.009529   48.16  0.002437  (-0.039265 -0.011718 -0.027536)
 62:   1242.37   0.001355    6.85  0.000340  ( 0.017098  0.001816 -0.006689)
 63:   1273.86   0.024928  125.97  0.006107  ( 0.013927 -0.044706  0.062562)
 64:   1283.16   0.019328   97.68  0.004701  ( 0.019997  0.061389 -0.023068)
 65:   1303.59   0.032485  164.16  0.007776  ( 0.080197  0.036219  0.005754)
 66:   1311.91   0.007803   39.43  0.001856  (-0.028327  0.019566 -0.025899)
 67:   1341.27   0.007115   35.95  0.001655  (-0.032455 -0.023264  0.007794)
 68:   1373.16   0.001037    5.24  0.000236  (-0.008799 -0.001614 -0.012473)
 69:   1380.65   0.008869   44.82  0.002005  ( 0.041724  0.015967  0.002965)
 70:   1394.60   0.018356   92.76  0.004107  ( 0.044935  0.008319 -0.044933)
 71:   1414.39   0.003847   19.44  0.000849  ( 0.005290  0.019002 -0.021440)
 72:   1441.83   0.010815   54.66  0.002341  (-0.002528 -0.032772 -0.035502)
 73:   1459.30   0.019960  100.87  0.004268  (-0.007559 -0.064840 -0.002642)
 74:   1466.61   0.030872  156.01  0.006569  ( 0.003807 -0.023187  0.077568)
 75:   1484.68   0.007148   36.12  0.001502  ( 0.033370 -0.002061 -0.019613)
 76:   1486.23   0.005507   27.83  0.001156  (-0.023194 -0.022698 -0.010160)
 77:   1492.25   0.003475   17.56  0.000727  (-0.018505 -0.015061  0.012548)
 78:   1498.25   0.001323    6.69  0.000276  ( 0.003212 -0.016080  0.002605)
 79:   1507.50   0.004211   21.28  0.000872  (-0.011690  0.020833 -0.017350)
 80:   1510.25   0.001376    6.95  0.000284  ( 0.011769 -0.011345  0.004138)
 81:   1519.79   0.008364   42.27  0.001717  ( 0.036673 -0.016920  0.009284)
 82:   1526.24   0.014201   71.77  0.002904  (-0.014665  0.004341 -0.051670)
 83:   1535.89   0.002350   11.87  0.000477  (-0.019390  0.004879 -0.008812)
 84:   1560.15   0.020682  104.52  0.004137  ( 0.037471  0.049927  0.015492)
 85:   1564.26   0.023112  116.80  0.004611  ( 0.067375  0.005427  0.006476)
 86:   1648.07   0.007396   37.38  0.001401  (-0.035222  0.010495  0.007055)
 87:   1673.52   0.012674   64.05  0.002363  ( 0.042850  0.020126  0.011053)
 88:   1706.72   0.191409  967.30  0.034998  (-0.055498  0.025295  0.176856)
 89:   1713.14   0.026332  133.07  0.004797  ( 0.065946  0.005426  0.020454)
 90:   3035.42   0.008677   43.85  0.000892  (-0.001182  0.006628  0.029099)
 91:   3043.16   0.017816   90.03  0.001827  (-0.016693 -0.033664 -0.020371)
 92:   3059.05   0.007277   36.78  0.000742  ( 0.003667  0.022072  0.015548)
 93:   3067.58   0.001233    6.23  0.000125  (-0.003014  0.010742  0.000956)
 94:   3084.97   0.012483   63.08  0.001263  (-0.030629  0.017695  0.003389)
 95:   3088.05   0.006609   33.40  0.000668  (-0.018094 -0.002641 -0.018263)
 96:   3095.82   0.005460   27.59  0.000550  ( 0.019425 -0.013101 -0.001175)
 97:   3106.53   0.001673    8.46  0.000168  (-0.002656  0.010656 -0.006892)
 98:   3133.13   0.001416    7.15  0.000141  ( 0.003743  0.007403  0.008496)
 99:   3172.96   0.002898   14.64  0.000285  (-0.006346 -0.007414  0.013775)
100:   3175.00   0.000498    2.52  0.000049  ( 0.002329 -0.006214 -0.002214)
101:   3183.27   0.005939   30.01  0.000582  ( 0.012662  0.017990  0.009912)
102:   3185.36   0.000651    3.29  0.000064  (-0.006345 -0.004473 -0.001873)
103:   3194.61   0.002325   11.75  0.000227  ( 0.002267 -0.014235  0.004400)
104:   3196.55   0.000477    2.41  0.000047  (-0.003339  0.002808  0.005252)
105:   3211.82   0.002937   14.84  0.000285  (-0.012311  0.010132  0.005580)
106:   3234.32   0.000614    3.10  0.000059  (-0.000380 -0.005421 -0.005448)
107:   3719.48   0.024439  123.50  0.002050  (-0.024493 -0.033301 -0.018481)

* The epsilon (eps) is given for a Dirac delta lineshape.
** The dipole moment derivative (T) already includes vibrational overlap.

The first frequency considered to be a vibration is 7
The total number of vibrations considered is 101


--------------------------
THERMOCHEMISTRY AT 298.15K
--------------------------

Temperature         ... 298.15 K
Pressure            ... 1.00 atm
Total Mass          ... 250.30 AMU

Throughout the following assumptions are being made:
  (1) The electronic state is orbitally nondegenerate
  (2) There are no thermally accessible electronically excited states
  (3) Hindered rotations indicated by low frequency modes are not
      treated as such but are treated as vibrations and this may
      cause some error
  (4) All equations used are the standard statistical mechanics
      equations for an ideal gas
  (5) All vibrations are strictly harmonic

freq.      37.95  E(vib)   ...       0.54 
freq.      50.30  E(vib)   ...       0.52 
freq.      60.17  E(vib)   ...       0.51 
freq.      66.81  E(vib)   ...       0.50 
freq.      85.11  E(vib)   ...       0.48 
freq.      99.77  E(vib)   ...       0.46 
freq.     113.66  E(vib)   ...       0.44 
freq.     124.47  E(vib)   ...       0.43 
freq.     155.59  E(vib)   ...       0.40 
freq.     169.35  E(vib)   ...       0.38 
freq.     179.18  E(vib)   ...       0.37 
freq.     238.95  E(vib)   ...       0.32 
freq.     266.72  E(vib)   ...       0.29 
freq.     288.01  E(vib)   ...       0.27 
freq.     308.21  E(vib)   ...       0.26 
freq.     342.18  E(vib)   ...       0.23 
freq.     355.03  E(vib)   ...       0.22 
freq.     361.37  E(vib)   ...       0.22 
freq.     376.96  E(vib)   ...       0.21 
freq.     421.75  E(vib)   ...       0.18 
freq.     423.53  E(vib)   ...       0.18 
freq.     431.03  E(vib)   ...       0.18 
freq.     457.88  E(vib)   ...       0.16 
freq.     485.91  E(vib)   ...       0.15 
freq.     516.92  E(vib)   ...       0.13 
freq.     542.29  E(vib)   ...       0.12 
freq.     580.87  E(vib)   ...       0.11 
freq.     602.74  E(vib)   ...       0.10 
freq.     636.18  E(vib)   ...       0.09 
freq.     654.25  E(vib)   ...       0.08 
freq.     704.94  E(vib)   ...       0.07 
freq.     716.82  E(vib)   ...       0.07 
freq.     768.07  E(vib)   ...       0.06 
freq.     776.54  E(vib)   ...       0.05 
freq.     821.13  E(vib)   ...       0.05 
freq.     827.44  E(vib)   ...       0.04 
freq.     843.03  E(vib)   ...       0.04 
freq.     863.73  E(vib)   ...       0.04 
freq.     942.21  E(vib)   ...       0.03 
freq.     958.10  E(vib)   ...       0.03 
freq.     960.37  E(vib)   ...       0.03 
freq.     986.22  E(vib)   ...       0.02 
freq.    1004.34  E(vib)   ...       0.02 
freq.    1009.80  E(vib)   ...       0.02 
freq.    1032.84  E(vib)   ...       0.02 
freq.    1063.39  E(vib)   ...       0.02 
freq.    1089.07  E(vib)   ...       0.02 
freq.    1100.81  E(vib)   ...       0.02 
freq.    1133.97  E(vib)   ...       0.01 
freq.    1139.09  E(vib)   ...       0.01 
freq.    1172.43  E(vib)   ...       0.01 
freq.    1187.97  E(vib)   ...       0.01 
freq.    1198.00  E(vib)   ...       0.01 
freq.    1204.88  E(vib)   ...       0.01 
freq.    1220.14  E(vib)   ...       0.01 
freq.    1242.37  E(vib)   ...       0.01 
freq.    1273.86  E(vib)   ...       0.01 
freq.    1283.16  E(vib)   ...       0.01 
freq.    1303.59  E(vib)   ...       0.01 
freq.    1311.91  E(vib)   ...       0.01 
freq.    1341.27  E(vib)   ...       0.01 
freq.    1373.16  E(vib)   ...       0.01 
freq.    1380.65  E(vib)   ...       0.01 
freq.    1394.60  E(vib)   ...       0.00 
freq.    1414.39  E(vib)   ...       0.00 
freq.    1441.83  E(vib)   ...       0.00 
freq.    1459.30  E(vib)   ...       0.00 
freq.    1466.61  E(vib)   ...       0.00 
freq.    1484.68  E(vib)   ...       0.00 
freq.    1486.23  E(vib)   ...       0.00 
freq.    1492.25  E(vib)   ...       0.00 
freq.    1498.25  E(vib)   ...       0.00 
freq.    1507.50  E(vib)   ...       0.00 
freq.    1510.25  E(vib)   ...       0.00 
freq.    1519.79  E(vib)   ...       0.00 
freq.    1526.24  E(vib)   ...       0.00 
freq.    1535.89  E(vib)   ...       0.00 
freq.    1560.15  E(vib)   ...       0.00 
freq.    1564.26  E(vib)   ...       0.00 
freq.    1648.07  E(vib)   ...       0.00 
freq.    1673.52  E(vib)   ...       0.00 
freq.    1706.72  E(vib)   ...       0.00 
freq.    1713.14  E(vib)   ...       0.00 
freq.    3035.42  E(vib)   ...       0.00 
freq.    3043.16  E(vib)   ...       0.00 
freq.    3059.05  E(vib)   ...       0.00 
freq.    3067.58  E(vib)   ...       0.00 
freq.    3084.97  E(vib)   ...       0.00 
freq.    3088.05  E(vib)   ...       0.00 
freq.    3095.82  E(vib)   ...       0.00 
freq.    3106.53  E(vib)   ...       0.00 
freq.    3133.13  E(vib)   ...       0.00 
freq.    3172.96  E(vib)   ...       0.00 
freq.    3175.00  E(vib)   ...       0.00 
freq.    3183.27  E(vib)   ...       0.00 
freq.    3185.36  E(vib)   ...       0.00 
freq.    3194.61  E(vib)   ...       0.00 
freq.    3196.55  E(vib)   ...       0.00 
freq.    3211.82  E(vib)   ...       0.00 
freq.    3234.32  E(vib)   ...       0.00 
freq.    3719.48  E(vib)   ...       0.00 

------------
INNER ENERGY
------------

The inner energy is: U= E(el) + E(ZPE) + E(vib) + E(rot) + E(trans)
    E(el)   - is the total energy from the electronic structure calculation
              = E(kin-el) + E(nuc-el) + E(el-el) + E(nuc-nuc)
    E(ZPE)  - the the zero temperature vibrational energy from the frequency calculation
    E(vib)  - the the finite temperature correction to E(ZPE) due to population
              of excited vibrational states
    E(rot)  - is the rotational thermal energy
    E(trans)- is the translational thermal energy

Summary of contributions to the inner energy U:
Electronic energy                ...   -840.98976185 Eh
Zero point energy                ...      0.30130863 Eh     189.07 kcal/mol
Thermal vibrational correction   ...      0.01494303 Eh       9.38 kcal/mol
Thermal rotational correction    ...      0.00141627 Eh       0.89 kcal/mol
Thermal translational correction ...      0.00141627 Eh       0.89 kcal/mol
-----------------------------------------------------------------------
Total thermal energy                   -840.67067764 Eh


Summary of corrections to the electronic energy:
(perhaps to be used in another calculation)
Total thermal correction                  0.01777557 Eh      11.15 kcal/mol
Non-thermal (ZPE) correction              0.30130863 Eh     189.07 kcal/mol
-----------------------------------------------------------------------
Total correction                          0.31908420 Eh     200.23 kcal/mol


--------
ENTHALPY
--------

The enthalpy is H = U + kB*T
                kB is Boltzmann's constant
Total free energy                 ...   -840.67067764 Eh 
Thermal Enthalpy correction       ...      0.00094421 Eh       0.59 kcal/mol
-----------------------------------------------------------------------
Total Enthalpy                    ...   -840.66973344 Eh


Note: Only C1 symmetry has been detected, increase convergence thresholds 
      if your molecule has a higher symmetry. Symmetry factor of 1.0 is   
      used for the rotational entropy correction. 
 

Note: Rotational entropy computed according to Herzberg 
Infrared and Raman Spectra, Chapter V,1, Van Nostrand Reinhold, 1945 
Point Group:  C1, Symmetry Number:   1  
Rotational constants in cm-1:     0.018546     0.009944     0.008090 

Vibrational entropy computed according to the QRRHO of S. Grimme
Chem.Eur.J. 2012 18 9955


-------
ENTROPY
-------

The entropy contributions are T*S = T*(S(el)+S(vib)+S(rot)+S(trans))
     S(el)   - electronic entropy
     S(vib)  - vibrational entropy
     S(rot)  - rotational entropy
     S(trans)- translational entropy
The entropies will be listed as multiplied by the temperature to get
units of energy

Electronic entropy                ...      0.00000000 Eh      0.00 kcal/mol
Vibrational entropy               ...      0.02626779 Eh     16.48 kcal/mol
Rotational entropy                ...      0.01584410 Eh      9.94 kcal/mol
Translational entropy             ...      0.02017065 Eh     12.66 kcal/mol
-----------------------------------------------------------------------
Final entropy term                ...      0.06228254 Eh     39.08 kcal/mol

In case the symmetry of your molecule has not been determined correctly
or in case you have a reason to use a different symmetry number we print 
out the resulting rotational entropy values for sn=1,12 :
 --------------------------------------------------------
|  sn= 1 | S(rot)=       0.01584410 Eh      9.94 kcal/mol|
|  sn= 2 | S(rot)=       0.01518964 Eh      9.53 kcal/mol|
|  sn= 3 | S(rot)=       0.01480681 Eh      9.29 kcal/mol|
|  sn= 4 | S(rot)=       0.01453519 Eh      9.12 kcal/mol|
|  sn= 5 | S(rot)=       0.01432450 Eh      8.99 kcal/mol|
|  sn= 6 | S(rot)=       0.01415235 Eh      8.88 kcal/mol|
|  sn= 7 | S(rot)=       0.01400681 Eh      8.79 kcal/mol|
|  sn= 8 | S(rot)=       0.01388073 Eh      8.71 kcal/mol|
|  sn= 9 | S(rot)=       0.01376952 Eh      8.64 kcal/mol|
|  sn=10 | S(rot)=       0.01367004 Eh      8.58 kcal/mol|
|  sn=11 | S(rot)=       0.01358005 Eh      8.52 kcal/mol|
|  sn=12 | S(rot)=       0.01349790 Eh      8.47 kcal/mol|
 --------------------------------------------------------


-------------------
GIBBS FREE ENERGY
-------------------

The Gibbs free energy is G = H - T*S

Total enthalpy                    ...   -840.66973344 Eh 
Total entropy correction          ...     -0.06228254 Eh    -39.08 kcal/mol
-----------------------------------------------------------------------
Final Gibbs free energy         ...   -840.73201597 Eh

For completeness - the Gibbs free energy minus the electronic energy
G-E(el)                           ...      0.25774587 Eh    161.74 kcal/mol


Timings for individual modules:

Sum of individual times         ...     2814.134 sec (=  46.902 min)
GTO integral calculation        ...       45.265 sec (=   0.754 min)   1.6 %
SCF iterations                  ...     1464.858 sec (=  24.414 min)  52.1 %
SCF Gradient evaluation         ...      383.602 sec (=   6.393 min)  13.6 %
Geometry relaxation             ...        3.495 sec (=   0.058 min)   0.1 %
Analytical frequency calculation...      916.914 sec (=  15.282 min)  32.6 %
                             ****ORCA TERMINATED NORMALLY****
TOTAL RUN TIME: 0 days 0 hours 47 minutes 5 seconds 299 msec
