
                                 *****************
                                 * O   R   C   A *
                                 *****************

                                            #,                                       
                                            ###                                      
                                            ####                                     
                                            #####                                    
                                            ######                                   
                                           ########,                                 
                                     ,,################,,,,,                         
                               ,,#################################,,                 
                          ,,##########################################,,             
                       ,#########################################, ''#####,          
                    ,#############################################,,   '####,        
                  ,##################################################,,,,####,       
                ,###########''''           ''''###############################       
              ,#####''   ,,,,##########,,,,          '''####'''          '####       
            ,##' ,,,,###########################,,,                        '##       
           ' ,,###''''                  '''############,,,                           
         ,,##''                                '''############,,,,        ,,,,,,###''
      ,#''                                            '''#######################'''  
     '                                                          ''''####''''         
             ,#######,   #######,   ,#######,      ##                                
            ,#'     '#,  ##    ##  ,#'     '#,    #''#        ######   ,####,        
            ##       ##  ##   ,#'  ##            #'  '#       #        #'  '#        
            ##       ##  #######   ##           ,######,      #####,   #    #        
            '#,     ,#'  ##    ##  '#,     ,#' ,#      #,         ##   #,  ,#        
             '#######'   ##     ##  '#######'  #'      '#     #####' # '####'        



                  #######################################################
                  #                        -***-                        #
                  #          Department of theory and spectroscopy      #
                  #    Directorship and core code : Frank Neese         #
                  #        Max Planck Institute fuer Kohlenforschung    #
                  #                Kaiser Wilhelm Platz 1               #
                  #                 D-45470 Muelheim/Ruhr               #
                  #                      Germany                        #
                  #                                                     #
                  #                  All rights reserved                #
                  #                        -***-                        #
                  #######################################################


                         Program Version 5.0.4 -  RELEASE  -


 With contributions from (in alphabetic order):
   Daniel Aravena         : Magnetic Suceptibility
   Michael Atanasov       : Ab Initio Ligand Field Theory (pilot matlab implementation)
   Alexander A. Auer      : GIAO ZORA, VPT2 properties, NMR spectrum
   Ute Becker             : Parallelization
   Giovanni Bistoni       : ED, misc. LED, open-shell LED, HFLD
   Martin Brehm           : Molecular dynamics
   Dmytro Bykov           : SCF Hessian
   Vijay G. Chilkuri      : MRCI spin determinant printing, contributions to CSF-ICE
   Dipayan Datta          : RHF DLPNO-CCSD density
   Achintya Kumar Dutta   : EOM-CC, STEOM-CC
   Dmitry Ganyushin       : Spin-Orbit,Spin-Spin,Magnetic field MRCI
   Miquel Garcia          : C-PCM and meta-GGA Hessian, CC/C-PCM, Gaussian charge scheme
   Yang Guo               : DLPNO-NEVPT2, F12-NEVPT2, CIM, IAO-localization
   Andreas Hansen         : Spin unrestricted coupled pair/coupled cluster methods
   Benjamin Helmich-Paris : MC-RPA, TRAH-SCF, COSX integrals
   Lee Huntington         : MR-EOM, pCC
   Robert Izsak           : Overlap fitted RIJCOSX, COSX-SCS-MP3, EOM
   Marcus Kettner         : VPT2
   Christian Kollmar      : KDIIS, OOCD, Brueckner-CCSD(T), CCSD density, CASPT2, CASPT2-K
   Simone Kossmann        : Meta GGA functionals, TD-DFT gradient, OOMP2, MP2 Hessian
   Martin Krupicka        : Initial AUTO-CI
   Lucas Lang             : DCDCAS
   Marvin Lechner         : AUTO-CI (C++ implementation), FIC-MRCC
   Dagmar Lenk            : GEPOL surface, SMD
   Dimitrios Liakos       : Extrapolation schemes; Compound Job, initial MDCI parallelization
   Dimitrios Manganas     : Further ROCIS development; embedding schemes
   Dimitrios Pantazis     : SARC Basis sets
   Anastasios Papadopoulos: AUTO-CI, single reference methods and gradients
   Taras Petrenko         : DFT Hessian,TD-DFT gradient, ASA, ECA, R-Raman, ABS, FL, XAS/XES, NRVS
   Peter Pinski           : DLPNO-MP2, DLPNO-MP2 Gradient
   Christoph Reimann      : Effective Core Potentials
   Marius Retegan         : Local ZFS, SOC
   Christoph Riplinger    : Optimizer, TS searches, QM/MM, DLPNO-CCSD(T), (RO)-DLPNO pert. Triples
   Tobias Risthaus        : Range-separated hybrids, TD-DFT gradient, RPA, STAB
   Michael Roemelt        : Original ROCIS implementation
   Masaaki Saitow         : Open-shell DLPNO-CCSD energy and density
   Barbara Sandhoefer     : DKH picture change effects
   Avijit Sen             : IP-ROCIS
   Kantharuban Sivalingam : CASSCF convergence, NEVPT2, FIC-MRCI
   Bernardo de Souza      : ESD, SOC TD-DFT
   Georgi Stoychev        : AutoAux, RI-MP2 NMR, DLPNO-MP2 response
   Willem Van den Heuvel  : Paramagnetic NMR
   Boris Wezisla          : Elementary symmetry handling
   Frank Wennmohs         : Technical directorship


 We gratefully acknowledge several colleagues who have allowed us to
 interface, adapt or use parts of their codes:
   Stefan Grimme, W. Hujo, H. Kruse, P. Pracht,  : VdW corrections, initial TS optimization,
                  C. Bannwarth, S. Ehlert          DFT functionals, gCP, sTDA/sTD-DF
   Ed Valeev, F. Pavosevic, A. Kumar             : LibInt (2-el integral package), F12 methods
   Garnet Chan, S. Sharma, J. Yang, R. Olivares  : DMRG
   Ulf Ekstrom                                   : XCFun DFT Library
   Mihaly Kallay                                 : mrcc  (arbitrary order and MRCC methods)
   Jiri Pittner, Ondrej Demel                    : Mk-CCSD
   Frank Weinhold                                : gennbo (NPA and NBO analysis)
   Christopher J. Cramer and Donald G. Truhlar   : smd solvation model
   Lars Goerigk                                  : TD-DFT with DH, B97 family of functionals
   V. Asgeirsson, H. Jonsson                     : NEB implementation
   FAccTs GmbH                                   : IRC, NEB, NEB-TS, DLPNO-Multilevel, CI-OPT
                                                   MM, QMMM, 2- and 3-layer-ONIOM, Crystal-QMMM,
                                                   LR-CPCM, SF, NACMEs, symmetry and pop. for TD-DFT,
                                                   nearIR, NL-DFT gradient (VV10), updates on ESD,
                                                   ML-optimized integration grids
   S Lehtola, MJT Oliveira, MAL Marques          : LibXC Library
   Liviu Ungur et al                             : ANISO software


 Your calculation uses the libint2 library for the computation of 2-el integrals
 For citations please refer to: http://libint.valeyev.net

 Your ORCA version has been built with support for libXC version: 5.1.0
 For citations please refer to: https://tddft.org/programs/libxc/

 This ORCA versions uses:
   CBLAS   interface :  Fast vector & matrix operations
   LAPACKE interface :  Fast linear algebra routines
   SCALAPACK package :  Parallel linear algebra routines
   Shared memory     :  Shared parallel matrices
   BLAS/LAPACK       :  OpenBLAS 0.3.15  USE64BITINT DYNAMIC_ARCH NO_AFFINITY SkylakeX SINGLE_THREADED
        Core in use  :  SkylakeX
   Copyright (c) 2011-2014, The OpenBLAS Project




***************************************
The coordinates will be read from file: /users/fjb15167/WWenergy/structures/Nab.xyz
***************************************


Your calculation utilizes the atom-pairwise dispersion correction
based on tight binding partial charges (D4)
Cite in your paper:
E.Caldeweyher, C.Bannwarth, S.Grimme, J.Chem.Phys., (2017), 147, 034112.
E.Caldeweyher, S.Ehlert, A.Hansen, H.Neugebauer, S.Grimme, J.Chem.Phys., (2018), in progress.
   

================================================================================

----- Orbital basis set information -----
Your calculation utilizes the basis: 6-31G(d)
   H-He, Li-Ne : W. J. Hehre, R. Ditchfield and J.A. Pople, J. Chem. Phys. 56, 2257 (1972).
                 Note: He and Ne are unpublished basis sets taken from the Gaussian program.
                 Note: Li and B from J. D. Dill and J. A. Pople, J. Chem. Phys. 62, 2921 (1975).
   Na - Ar     : M. M. Francl, W. J. Pietro, W. J. Hehre, J. S. Binkley, M. S. Gordon, 
                 D. J. DeFrees and J. A. Pople, J. Chem. Phys. 77, 3654 (1982).
   K - Zn      : V. A. Rassolov, J. A. Pople, M. A. Ratner, and T. L. Windus, J. Chem. Phys. 109, 1223 (1998).

----- AuxJ basis set information -----
Your calculation utilizes the AutoAux generation procedure.
  G. L. Stoychev, A. A. Auer, F. Neese, J. Chem. Theory Comput. 13, 554 (2017)

----- AuxC basis set information -----
Your calculation utilizes the AutoAux generation procedure.
  G. L. Stoychev, A. A. Auer, F. Neese, J. Chem. Theory Comput. 13, 554 (2017)

----- AuxJK basis set information -----
Your calculation utilizes the AutoAux generation procedure.
  G. L. Stoychev, A. A. Auer, F. Neese, J. Chem. Theory Comput. 13, 554 (2017)

================================================================================
                                        WARNINGS
                       Please study these warnings very carefully!
================================================================================


WARNING: Geometry Optimization
  ===> : Switching off AutoStart
         For restart on a previous wavefunction, please use MOREAD

INFO   : the flag for use of the SHARK integral package has been found!

================================================================================
                                       INPUT FILE
================================================================================
NAME = Nab_octanol.inp
|  1> ! OPT FREQ B3LYP 6-31G(d) D4 AUTOAUX
|  2> ! CPCM
|  3> 
|  4> %cpcm
|  5> epsilon 9.8629 
|  6> refrac  1.4295 
|  7> end
|  8> 
|  9> %PAL NPROCS 4 END
| 10> 
| 11> %maxcore 3375
| 12> 
| 13> *xyzfile 0 1 /users/fjb15167/WWenergy/structures/Nab.xyz
| 14> 
| 15>                          ****END OF INPUT****
================================================================================

                       *****************************
                       * Geometry Optimization Run *
                       *****************************

Geometry optimization settings:
Update method            Update   .... BFGS
Choice of coordinates    CoordSys .... Z-matrix Internals
Initial Hessian          InHess   .... Almoef's Model

Convergence Tolerances:
Energy Change            TolE     ....  5.0000e-06 Eh
Max. Gradient            TolMAXG  ....  3.0000e-04 Eh/bohr
RMS Gradient             TolRMSG  ....  1.0000e-04 Eh/bohr
Max. Displacement        TolMAXD  ....  4.0000e-03 bohr
RMS Displacement         TolRMSD  ....  2.0000e-03 bohr
Strict Convergence                ....  False
------------------------------------------------------------------------------
                        ORCA OPTIMIZATION COORDINATE SETUP
------------------------------------------------------------------------------

The optimization will be done in new redundant internal coordinates
Making redundant internal coordinates   ...  (new redundants) done
Evaluating the initial hessian          ...  (Almloef) done
Evaluating the coordinates              ...  done
Calculating the B-matrix                .... done
Calculating the G-matrix                .... done
Diagonalizing the G-matrix              .... done
Small eigenvalue found = 3.603e-03
Small eigenvalue found = 5.350e-03
Small eigenvalue found = 1.210e-02
Small eigenvalue found = 1.375e-02
Small eigenvalue found = 2.848e-02
The first mode is                       ....   68
The number of degrees of freedom        ....   96

    -----------------------------------------------------------------
                    Redundant Internal Coordinates


    -----------------------------------------------------------------
         Definition                    Initial Value    Approx d2E/dq
    -----------------------------------------------------------------
      1. B(H   1,C   0)                  1.0930         0.356095   
      2. B(H   2,C   0)                  1.0945         0.354184   
      3. B(H   3,C   0)                  1.0895         0.360704   
      4. B(C   4,C   0)                  1.5155         0.394044   
      5. B(O   5,C   4)                  1.2398         0.971816   
      6. B(N   6,C   4)                  1.3720         0.597924   
      7. B(C   7,N   6)                  1.4598         0.433001   
      8. B(H   8,C   7)                  1.0953         0.353193   
      9. B(H   9,C   7)                  1.0905         0.359500   
     10. B(C  10,N   6)                  1.4639         0.426492   
     11. B(H  11,C  10)                  1.0946         0.354076   
     12. B(H  12,C  10)                  1.0947         0.353912   
     13. B(C  13,C  10)                  1.5289         0.375034   
     14. B(H  14,C  13)                  1.0945         0.354181   
     15. B(H  15,C  13)                  1.0974         0.350461   
     16. B(C  16,C   7)                  1.5247         0.380932   
     17. B(N  17,C  16)                  1.3651         0.613190   
     18. B(O  18,C  16)                  1.2404         0.969528   
     19. B(C  19,N  17)                  1.4548         0.441052   
     20. B(H  20,C  19)                  1.0982         0.349420   
     21. B(H  21,C  19)                  1.0954         0.352996   
     22. B(H  22,C  19)                  1.0874         0.363588   
     23. B(C  23,N  17)                  1.4550         0.440665   
     24. B(H  24,C  23)                  1.0973         0.350531   
     25. B(H  25,C  23)                  1.0886         0.361896   
     26. B(H  26,C  23)                  1.0934         0.355629   
     27. B(C  27,C  13)                  1.5276         0.376910   
     28. B(H  28,C  27)                  1.0976         0.350190   
     29. B(H  29,C  27)                  1.0973         0.350622   
     30. B(C  30,C  27)                  1.5258         0.379412   
     31. B(H  31,C  30)                  1.0950         0.353569   
     32. B(H  32,C  30)                  1.0946         0.354004   
     33. B(H  33,C  30)                  1.0937         0.355299   
     34. A(H   3,C   0,C   4)          107.1577         0.327268   
     35. A(H   2,C   0,H   3)          108.7649         0.290160   
     36. A(H   2,C   0,C   4)          110.8424         0.326286   
     37. A(H   1,C   0,C   4)          112.5084         0.326575   
     38. A(H   1,C   0,H   2)          108.0075         0.289576   
     39. A(H   1,C   0,H   3)          109.5018         0.290406   
     40. A(C   0,C   4,N   6)          117.1496         0.395335   
     41. A(C   0,C   4,O   5)          120.8108         0.430932   
     42. A(O   5,C   4,N   6)          122.0377         0.461684   
     43. A(C   4,N   6,C  10)          124.3142         0.398304   
     44. A(C   7,N   6,C  10)          116.5470         0.376517   
     45. A(C   4,N   6,C   7)          118.9375         0.399367   
     46. A(H   8,C   7,C  16)          105.4177         0.324326   
     47. A(N   6,C   7,C  16)          111.2932         0.371583   
     48. A(N   6,C   7,H   9)          107.8286         0.330221   
     49. A(H   8,C   7,H   9)          108.9642         0.289881   
     50. A(N   6,C   7,H   8)          109.7231         0.329257   
     51. A(H   9,C   7,C  16)          113.5558         0.325271   
     52. A(H  12,C  10,C  13)          109.2420         0.323604   
     53. A(H  11,C  10,C  13)          110.1094         0.323629   
     54. A(N   6,C  10,C  13)          113.8368         0.369624   
     55. A(H  11,C  10,H  12)          107.0160         0.289283   
     56. A(N   6,C  10,H  12)          106.9539         0.328545   
     57. A(N   6,C  10,H  11)          109.4175         0.328570   
     58. A(H  14,C  13,H  15)          107.1441         0.288853   
     59. A(H  15,C  13,C  27)          109.7426         0.323349   
     60. A(C  10,C  13,H  15)          109.5407         0.323085   
     61. A(C  10,C  13,H  14)          109.1018         0.323645   
     62. A(H  14,C  13,C  27)          109.3139         0.323910   
     63. A(C  10,C  13,C  27)          111.8783         0.364147   
     64. A(N  17,C  16,O  18)          122.7628         0.463617   
     65. A(C   7,C  16,O  18)          119.3042         0.428142   
     66. A(C   7,C  16,N  17)          117.9229         0.394737   
     67. A(C  16,N  17,C  19)          124.9877         0.402447   
     68. A(C  19,N  17,C  23)          115.3975         0.379862   
     69. A(C  16,N  17,C  23)          118.0879         0.402385   
     70. A(H  21,C  19,H  22)          108.7131         0.290370   
     71. A(H  20,C  19,H  22)          108.5082         0.289906   
     72. A(N  17,C  19,H  22)          111.9299         0.331850   
     73. A(H  20,C  19,H  21)          108.2329         0.288567   
     74. A(N  17,C  19,H  21)          108.8443         0.330230   
     75. A(N  17,C  19,H  20)          110.5267         0.329675   
     76. A(H  25,C  23,H  26)          110.2250         0.290496   
     77. A(H  24,C  23,H  26)          108.6732         0.289046   
     78. A(N  17,C  23,H  26)          109.2554         0.330588   
     79. A(H  24,C  23,H  25)          109.2305         0.289839   
     80. A(N  17,C  23,H  25)          108.6001         0.331545   
     81. A(N  17,C  23,H  24)          110.8530         0.329800   
     82. A(H  29,C  27,C  30)          109.5775         0.323725   
     83. A(H  28,C  27,C  30)          109.7151         0.323659   
     84. A(C  13,C  27,C  30)          112.3592         0.364870   
     85. A(H  28,C  27,H  29)          106.5020         0.288361   
     86. A(C  13,C  27,H  29)          109.0101         0.323373   
     87. A(C  13,C  27,H  28)          109.5025         0.323308   
     88. A(H  32,C  30,H  33)          107.9183         0.289451   
     89. A(H  31,C  30,H  33)          107.9153         0.289395   
     90. A(C  27,C  30,H  33)          111.3736         0.324430   
     91. A(H  31,C  30,H  32)          107.8965         0.289230   
     92. A(C  27,C  30,H  32)          110.9252         0.324235   
     93. A(C  27,C  30,H  31)          110.6720         0.324170   
     94. D(O   5,C   4,C   0,H   2)    110.2917         0.011540   
     95. D(O   5,C   4,C   0,H   1)   -128.6557         0.011540   
     96. D(N   6,C   4,C   0,H   1)     51.8465         0.011540   
     97. D(N   6,C   4,C   0,H   2)    -69.2061         0.011540   
     98. D(O   5,C   4,C   0,H   3)     -8.2490         0.011540   
     99. D(N   6,C   4,C   0,H   3)    172.2532         0.011540   
    100. D(C   7,N   6,C   4,C   0)    173.8549         0.028793   
    101. D(C   7,N   6,C   4,O   5)     -5.6363         0.028793   
    102. D(C  10,N   6,C   4,C   0)     -0.8020         0.028793   
    103. D(C  10,N   6,C   4,O   5)    179.7068         0.028793   
    104. D(H   9,C   7,N   6,C  10)    176.8379         0.015985   
    105. D(H   9,C   7,N   6,C   4)      1.7702         0.015985   
    106. D(H   8,C   7,N   6,C  10)     58.2865         0.015985   
    107. D(C  16,C   7,N   6,C   4)    126.9335         0.015985   
    108. D(H   8,C   7,N   6,C   4)   -116.7812         0.015985   
    109. D(C  16,C   7,N   6,C  10)    -57.9988         0.015985   
    110. D(C  13,C  10,N   6,C   7)     95.0544         0.015508   
    111. D(C  13,C  10,N   6,C   4)    -90.1724         0.015508   
    112. D(H  12,C  10,N   6,C   7)    -25.6994         0.015508   
    113. D(H  12,C  10,N   6,C   4)    149.0738         0.015508   
    114. D(H  11,C  10,N   6,C   7)   -141.2841         0.015508   
    115. D(H  11,C  10,N   6,C   4)     33.4891         0.015508   
    116. D(H  15,C  13,C  10,H  12)    176.4417         0.011226   
    117. D(C  27,C  13,C  10,H  11)     55.6149         0.011226   
    118. D(H  15,C  13,C  10,H  11)    -66.3080         0.011226   
    119. D(H  15,C  13,C  10,N   6)     56.9775         0.011226   
    120. D(H  14,C  13,C  10,H  12)     59.4455         0.011226   
    121. D(C  27,C  13,C  10,N   6)    178.9004         0.011226   
    122. D(H  14,C  13,C  10,H  11)    176.6958         0.011226   
    123. D(C  27,C  13,C  10,H  12)    -61.6354         0.011226   
    124. D(H  14,C  13,C  10,N   6)    -60.0187         0.011226   
    125. D(O  18,C  16,C   7,H   9)   -135.9387         0.010825   
    126. D(O  18,C  16,C   7,H   8)    -16.7306         0.010825   
    127. D(O  18,C  16,C   7,N   6)    102.1644         0.010825   
    128. D(N  17,C  16,C   7,H   9)     45.1816         0.010825   
    129. D(N  17,C  16,C   7,H   8)    164.3898         0.010825   
    130. D(N  17,C  16,C   7,N   6)    -76.7153         0.010825   
    131. D(C  23,N  17,C  16,O  18)     -4.2102         0.030395   
    132. D(C  23,N  17,C  16,C   7)    174.6280         0.030395   
    133. D(C  19,N  17,C  16,O  18)   -169.4290         0.030395   
    134. D(C  19,N  17,C  16,C   7)      9.4091         0.030395   
    135. D(H  22,C  19,N  17,C  16)    -20.2110         0.016588   
    136. D(H  21,C  19,N  17,C  23)     54.0282         0.016588   
    137. D(H  21,C  19,N  17,C  16)   -140.3997         0.016588   
    138. D(H  20,C  19,N  17,C  23)    -64.7093         0.016588   
    139. D(H  22,C  19,N  17,C  23)    174.2168         0.016588   
    140. D(H  20,C  19,N  17,C  16)    100.8628         0.016588   
    141. D(H  26,C  23,N  17,C  19)    -53.0628         0.016559   
    142. D(H  26,C  23,N  17,C  16)    140.3156         0.016559   
    143. D(H  25,C  23,N  17,C  19)   -173.3234         0.016559   
    144. D(H  25,C  23,N  17,C  16)     20.0550         0.016559   
    145. D(H  24,C  23,N  17,C  19)     66.6716         0.016559   
    146. D(H  24,C  23,N  17,C  16)    -99.9500         0.016559   
    147. D(C  30,C  27,C  13,H  15)    -59.1346         0.011332   
    148. D(C  30,C  27,C  13,H  14)     58.1004         0.011332   
    149. D(C  30,C  27,C  13,C  10)    179.0584         0.011332   
    150. D(H  29,C  27,C  13,H  15)    179.2013         0.011332   
    151. D(H  29,C  27,C  13,H  14)    -63.5637         0.011332   
    152. D(H  29,C  27,C  13,C  10)     57.3943         0.011332   
    153. D(H  28,C  27,C  13,H  15)     63.0502         0.011332   
    154. D(H  28,C  27,C  13,H  14)   -179.7148         0.011332   
    155. D(H  28,C  27,C  13,C  10)    -58.7568         0.011332   
    156. D(H  31,C  30,C  27,C  13)    -59.7430         0.011475   
    157. D(H  33,C  30,C  27,H  28)     58.1448         0.011475   
    158. D(H  33,C  30,C  27,C  13)   -179.7911         0.011475   
    159. D(H  32,C  30,C  27,H  29)   -178.6734         0.011475   
    160. D(H  32,C  30,C  27,H  28)    -62.0775         0.011475   
    161. D(H  32,C  30,C  27,C  13)     59.9866         0.011475   
    162. D(H  31,C  30,C  27,H  29)     61.5970         0.011475   
    163. D(H  33,C  30,C  27,H  29)    -58.4510         0.011475   
    164. D(H  31,C  30,C  27,H  28)    178.1929         0.011475   
    -----------------------------------------------------------------

Number of atoms                         .... 34
Number of degrees of freedom            .... 164

         *************************************************************
         *                GEOMETRY OPTIMIZATION CYCLE   1            *
         *************************************************************
---------------------------------
CARTESIAN COORDINATES (ANGSTROEM)
---------------------------------
  C     -0.488000    3.158000   -0.634000
  H      0.413000    2.847000   -1.169000
  H     -0.183000    3.803000    0.196000
  H     -1.130000    3.729000   -1.304000
  C     -1.300000    1.981000   -0.132000
  O     -2.513000    1.897000   -0.374000
  N     -0.637000    1.031000    0.603000
  C     -1.404000   -0.047000    1.220000
  H     -1.315000    0.013000    2.310000
  H     -2.450000    0.086000    0.942000
  C      0.793000    1.077000    0.913000
  H      1.106000    2.119000    1.033000
  H      0.925000    0.589000    1.884000
  C      1.673000    0.380000   -0.125000
  H      1.385000   -0.674000   -0.189000
  H      1.497000    0.824000   -1.113000
  C     -0.842000   -1.413000    0.842000
  N     -1.118000   -1.895000   -0.405000
  O     -0.142000   -2.029000    1.660000
  C     -1.742000   -1.132000   -1.475000
  H     -0.986000   -0.785000   -2.192000
  H     -2.447000   -1.780000   -2.007000
  H     -2.281000   -0.267000   -1.096000
  C     -0.487000   -3.141000   -0.813000
  H      0.383000   -2.947000   -1.453000
  H     -0.164000   -3.675000    0.079000
  H     -1.207000   -3.743000   -1.374000
  C      3.156000    0.478000    0.228000
  H      3.447000    1.534000    0.298000
  H      3.316000    0.044000    1.223000
  C      4.043000   -0.234000   -0.789000
  H      3.787000   -1.297000   -0.848000
  H      3.918000    0.198000   -1.787000
  H      5.100000   -0.157000   -0.519000

----------------------------
CARTESIAN COORDINATES (A.U.)
----------------------------
  NO LB      ZA    FRAG     MASS         X           Y           Z
   0 C     6.0000    0    12.011   -0.922186    5.967755   -1.198086
   1 H     1.0000    0     1.008    0.780457    5.380050   -2.209090
   2 H     1.0000    0     1.008   -0.345820    7.186628    0.370386
   3 H     1.0000    0     1.008   -2.135391    7.046789   -2.464203
   4 C     6.0000    0    12.011   -2.456644    3.743547   -0.249444
   5 O     8.0000    0    15.999   -4.748882    3.584810   -0.706758
   6 N     7.0000    0    14.007   -1.203756    1.948308    1.139505
   7 C     6.0000    0    12.011   -2.653175   -0.088817    2.305466
   8 H     1.0000    0     1.008   -2.484990    0.024566    4.365267
   9 H     1.0000    0     1.008   -4.629829    0.162516    1.780122
  10 C     6.0000    0    12.011    1.498553    2.035235    1.725320
  11 H     1.0000    0     1.008    2.090037    4.004330    1.952087
  12 H     1.0000    0     1.008    1.747997    1.113049    3.560244
  13 C     6.0000    0    12.011    3.161512    0.718096   -0.236216
  14 H     1.0000    0     1.008    2.617271   -1.273675   -0.357158
  15 H     1.0000    0     1.008    2.828920    1.557134   -2.103265
  16 C     6.0000    0    12.011   -1.591149   -2.670183    1.591149
  17 N     7.0000    0    14.007   -2.112714   -3.581031   -0.765339
  18 O     8.0000    0    15.999   -0.268341   -3.834254    3.136945
  19 C     6.0000    0    12.011   -3.291903   -2.139170   -2.787346
  20 H     1.0000    0     1.008   -1.863270   -1.483435   -4.142280
  21 H     1.0000    0     1.008   -4.624160   -3.363713   -3.792680
  22 H     1.0000    0     1.008   -4.310465   -0.504557   -2.071140
  23 C     6.0000    0    12.011   -0.920297   -5.935630   -1.536347
  24 H     1.0000    0     1.008    0.723765   -5.569023   -2.745772
  25 H     1.0000    0     1.008   -0.309915   -6.944744    0.149288
  26 H     1.0000    0     1.008   -2.280899   -7.073245   -2.596484
  27 C     6.0000    0    12.011    5.963976    0.903289    0.430858
  28 H     1.0000    0     1.008    6.513886    2.898840    0.563138
  29 H     1.0000    0     1.008    6.266332    0.083148    2.311135
  30 C     6.0000    0    12.011    7.640163   -0.442196   -1.490994
  31 H     1.0000    0     1.008    7.156393   -2.450975   -1.602488
  32 H     1.0000    0     1.008    7.403947    0.374166   -3.376941
  33 H     1.0000    0     1.008    9.637603   -0.296687   -0.980768

--------------------------------
INTERNAL COORDINATES (ANGSTROEM)
--------------------------------
 C      0   0   0     0.000000000000     0.00000000     0.00000000
 H      1   0   0     1.093044829822     0.00000000     0.00000000
 H      1   2   0     1.094509022347   108.00746877     0.00000000
 H      1   2   3     1.089543482381   109.50182607   118.29190597
 C      1   2   3     1.515479132156   112.50842434   237.33841365
 O      5   1   2     1.239753604552   120.81076714   231.34430679
 N      5   1   2     1.371967200774   117.14955956    51.84650891
 C      7   5   1     1.459815741798   118.93747773   173.85486441
 H      8   7   5     1.095272112308   109.72310240   243.21878321
 H      8   7   5     1.090453575353   107.82863684     1.77019287
 C      7   5   1     1.463938523299   124.31421671   359.19799700
 H     11   7   5     1.094592618283   109.41749889    33.48907154
 H     11   7   5     1.094718685325   106.95390419   149.07375585
 C     11   7   5     1.528938520674   113.83676370   269.82759835
 H     14  11   7     1.094511763299   109.10181484   299.98129619
 H     14  11   7     1.097385984966   109.54068508    56.97751640
 C      8   7   5     1.524691444195   111.29322620   126.93349455
 N     17   8   7     1.365104025340   117.92287996   283.28470877
 O     17   8   7     1.240395098346   119.30424603   102.16436088
 C     18  17   8     1.454800673632   124.98772449     9.40914641
 H     20  18  17     1.098195793108   110.52665328   100.86279341
 H     20  18  17     1.095423662333   108.84428788   219.60033836
 H     20  18  17     1.087376199850   111.92989700   339.78897550
 C     18  17   8     1.455039861997   118.08790671   174.62798178
 H     24  18  17     1.097331308220   110.85300717   260.05000815
 H     24  18  17     1.088645488669   108.60008593    20.05502350
 H     24  18  17     1.093400658496   109.25539615   140.31563211
 C     14  11   7     1.527580439781   111.87828065   178.90044260
 H     28  14  11     1.097596009468   109.50247687   301.24315066
 H     28  14  11     1.097260680057   109.01014656    57.39425331
 C     28  14  11     1.525779145224   112.35916767   179.05840755
 H     31  28  14     1.094982191636   110.67200181   300.25699244
 H     31  28  14     1.094647431825   110.92521776    59.98659015
 H     31  28  14     1.093653510030   111.37362304   180.20892819

---------------------------
INTERNAL COORDINATES (A.U.)
---------------------------
 C      0   0   0     0.000000000000     0.00000000     0.00000000
 H      1   0   0     2.065555380462     0.00000000     0.00000000
 H      1   2   0     2.068322303343   108.00746877     0.00000000
 H      1   2   3     2.058938792700   109.50182607   118.29190597
 C      1   2   3     2.863840521447   112.50842434   237.33841365
 O      5   1   2     2.342794786145   120.81076714   231.34430679
 N      5   1   2     2.592642274186   117.14955956    51.84650891
 C      7   5   1     2.758651957985   118.93747773   173.85486441
 H      8   7   5     2.069764334384   109.72310240   243.21878321
 H      8   7   5     2.060658619172   107.82863684     1.77019287
 C      7   5   1     2.766442885933   124.31421671   359.19799700
 H     11   7   5     2.068480276767   109.41749889    33.48907154
 H     11   7   5     2.068718508951   106.95390419   149.07375585
 C     11   7   5     2.889275079676   113.83676370   269.82759835
 H     14  11   7     2.068327482990   109.10181484   299.98129619
 H     14  11   7     2.073758974789   109.54068508    56.97751640
 C      8   7   5     2.881249268261   111.29322620   126.93349455
 N     17   8   7     2.579672752206   117.92287996   283.28470877
 O     17   8   7     2.344007033732   119.30424603   102.16436088
 C     18  17   8     2.749174852609   124.98772449     9.40914641
 H     20  18  17     2.075289290398   110.52665328   100.86279341
 H     20  18  17     2.070050722427   108.84428788   219.60033836
 H     20  18  17     2.054843222260   111.92989700   339.78897550
 C     18  17   8     2.749626853113   118.08790671   174.62798178
 H     24  18  17     2.073655650713   110.85300717   260.05000815
 H     24  18  17     2.057241830514   108.60008593    20.05502350
 H     24  18  17     2.066227799207   109.25539615   140.31563211
 C     14  11   7     2.886708678720   111.87828065   178.90044260
 H     28  14  11     2.074155863579   109.50247687   301.24315066
 H     28  14  11     2.073522182829   109.01014656    57.39425331
 C     28  14  11     2.883304725322   112.35916767   179.05840755
 H     31  28  14     2.069216463713   110.67200181   300.25699244
 H     31  28  14     2.068583859349   110.92521776    59.98659015
 H     31  28  14     2.066705619358   111.37362304   180.20892819

---------------------
BASIS SET INFORMATION
---------------------
There are 4 groups of distinct atoms

 Group   1 Type C   : 10s4p1d contracted to 3s2p1d pattern {631/31/1}
 Group   2 Type H   : 4s contracted to 2s pattern {31}
 Group   3 Type O   : 10s4p1d contracted to 3s2p1d pattern {631/31/1}
 Group   4 Type N   : 10s4p1d contracted to 3s2p1d pattern {631/31/1}

Atom   0C    basis set group =>   1
Atom   1H    basis set group =>   2
Atom   2H    basis set group =>   2
Atom   3H    basis set group =>   2
Atom   4C    basis set group =>   1
Atom   5O    basis set group =>   3
Atom   6N    basis set group =>   4
Atom   7C    basis set group =>   1
Atom   8H    basis set group =>   2
Atom   9H    basis set group =>   2
Atom  10C    basis set group =>   1
Atom  11H    basis set group =>   2
Atom  12H    basis set group =>   2
Atom  13C    basis set group =>   1
Atom  14H    basis set group =>   2
Atom  15H    basis set group =>   2
Atom  16C    basis set group =>   1
Atom  17N    basis set group =>   4
Atom  18O    basis set group =>   3
Atom  19C    basis set group =>   1
Atom  20H    basis set group =>   2
Atom  21H    basis set group =>   2
Atom  22H    basis set group =>   2
Atom  23C    basis set group =>   1
Atom  24H    basis set group =>   2
Atom  25H    basis set group =>   2
Atom  26H    basis set group =>   2
Atom  27C    basis set group =>   1
Atom  28H    basis set group =>   2
Atom  29H    basis set group =>   2
Atom  30C    basis set group =>   1
Atom  31H    basis set group =>   2
Atom  32H    basis set group =>   2
Atom  33H    basis set group =>   2
---------------------------------
AUXILIARY/J BASIS SET INFORMATION
---------------------------------
There are 4 groups of distinct atoms

 Group   1 Type C   : 13s11p10d2f contracted to 13s11p10d2f pattern {1111111111111/11111111111/1111111111/11}
 Group   2 Type H   : 9s2p contracted to 9s2p pattern {111111111/11}
 Group   3 Type O   : 14s11p10d2f contracted to 14s11p10d2f pattern {11111111111111/11111111111/1111111111/11}
 Group   4 Type N   : 14s11p10d2f contracted to 14s11p10d2f pattern {11111111111111/11111111111/1111111111/11}

Atom   0C    basis set group =>   1
Atom   1H    basis set group =>   2
Atom   2H    basis set group =>   2
Atom   3H    basis set group =>   2
Atom   4C    basis set group =>   1
Atom   5O    basis set group =>   3
Atom   6N    basis set group =>   4
Atom   7C    basis set group =>   1
Atom   8H    basis set group =>   2
Atom   9H    basis set group =>   2
Atom  10C    basis set group =>   1
Atom  11H    basis set group =>   2
Atom  12H    basis set group =>   2
Atom  13C    basis set group =>   1
Atom  14H    basis set group =>   2
Atom  15H    basis set group =>   2
Atom  16C    basis set group =>   1
Atom  17N    basis set group =>   4
Atom  18O    basis set group =>   3
Atom  19C    basis set group =>   1
Atom  20H    basis set group =>   2
Atom  21H    basis set group =>   2
Atom  22H    basis set group =>   2
Atom  23C    basis set group =>   1
Atom  24H    basis set group =>   2
Atom  25H    basis set group =>   2
Atom  26H    basis set group =>   2
Atom  27C    basis set group =>   1
Atom  28H    basis set group =>   2
Atom  29H    basis set group =>   2
Atom  30C    basis set group =>   1
Atom  31H    basis set group =>   2
Atom  32H    basis set group =>   2
Atom  33H    basis set group =>   2
---------------------------------
AUXILIARY/C BASIS SET INFORMATION
---------------------------------
There are 4 groups of distinct atoms

 Group   1 Type C   : 13s11p10d2f contracted to 13s11p10d2f pattern {1111111111111/11111111111/1111111111/11}
 Group   2 Type H   : 9s2p contracted to 9s2p pattern {111111111/11}
 Group   3 Type O   : 14s11p10d2f contracted to 14s11p10d2f pattern {11111111111111/11111111111/1111111111/11}
 Group   4 Type N   : 14s11p10d2f contracted to 14s11p10d2f pattern {11111111111111/11111111111/1111111111/11}

Atom   0C    basis set group =>   1
Atom   1H    basis set group =>   2
Atom   2H    basis set group =>   2
Atom   3H    basis set group =>   2
Atom   4C    basis set group =>   1
Atom   5O    basis set group =>   3
Atom   6N    basis set group =>   4
Atom   7C    basis set group =>   1
Atom   8H    basis set group =>   2
Atom   9H    basis set group =>   2
Atom  10C    basis set group =>   1
Atom  11H    basis set group =>   2
Atom  12H    basis set group =>   2
Atom  13C    basis set group =>   1
Atom  14H    basis set group =>   2
Atom  15H    basis set group =>   2
Atom  16C    basis set group =>   1
Atom  17N    basis set group =>   4
Atom  18O    basis set group =>   3
Atom  19C    basis set group =>   1
Atom  20H    basis set group =>   2
Atom  21H    basis set group =>   2
Atom  22H    basis set group =>   2
Atom  23C    basis set group =>   1
Atom  24H    basis set group =>   2
Atom  25H    basis set group =>   2
Atom  26H    basis set group =>   2
Atom  27C    basis set group =>   1
Atom  28H    basis set group =>   2
Atom  29H    basis set group =>   2
Atom  30C    basis set group =>   1
Atom  31H    basis set group =>   2
Atom  32H    basis set group =>   2
Atom  33H    basis set group =>   2
----------------------------------
AUXILIARY/JK BASIS SET INFORMATION
----------------------------------
There are 4 groups of distinct atoms

 Group   1 Type C   : 13s11p10d2f contracted to 13s11p10d2f pattern {1111111111111/11111111111/1111111111/11}
 Group   2 Type H   : 9s2p contracted to 9s2p pattern {111111111/11}
 Group   3 Type O   : 14s11p10d2f contracted to 14s11p10d2f pattern {11111111111111/11111111111/1111111111/11}
 Group   4 Type N   : 14s11p10d2f contracted to 14s11p10d2f pattern {11111111111111/11111111111/1111111111/11}

Atom   0C    basis set group =>   1
Atom   1H    basis set group =>   2
Atom   2H    basis set group =>   2
Atom   3H    basis set group =>   2
Atom   4C    basis set group =>   1
Atom   5O    basis set group =>   3
Atom   6N    basis set group =>   4
Atom   7C    basis set group =>   1
Atom   8H    basis set group =>   2
Atom   9H    basis set group =>   2
Atom  10C    basis set group =>   1
Atom  11H    basis set group =>   2
Atom  12H    basis set group =>   2
Atom  13C    basis set group =>   1
Atom  14H    basis set group =>   2
Atom  15H    basis set group =>   2
Atom  16C    basis set group =>   1
Atom  17N    basis set group =>   4
Atom  18O    basis set group =>   3
Atom  19C    basis set group =>   1
Atom  20H    basis set group =>   2
Atom  21H    basis set group =>   2
Atom  22H    basis set group =>   2
Atom  23C    basis set group =>   1
Atom  24H    basis set group =>   2
Atom  25H    basis set group =>   2
Atom  26H    basis set group =>   2
Atom  27C    basis set group =>   1
Atom  28H    basis set group =>   2
Atom  29H    basis set group =>   2
Atom  30C    basis set group =>   1
Atom  31H    basis set group =>   2
Atom  32H    basis set group =>   2
Atom  33H    basis set group =>   2


           ************************************************************
           *        Program running with 4 parallel MPI-processes     *
           *              working on a common directory               *
           ************************************************************
------------------------------------------------------------------------------
                           ORCA GTO INTEGRAL CALCULATION
                           -- RI-GTO INTEGRALS CHOSEN --
------------------------------------------------------------------------------
------------------------------------------------------------------------------
                   ___                                                        
                  /   \      - P O W E R E D   B Y -                         
                 /     \                                                     
                 |  |  |   _    _      __       _____    __    __             
                 |  |  |  | |  | |    /  \     |  _  \  |  |  /  |          
                  \  \/   | |  | |   /    \    | | | |  |  | /  /          
                 / \  \   | |__| |  /  /\  \   | |_| |  |  |/  /          
                |  |  |   |  __  | /  /__\  \  |    /   |      \           
                |  |  |   | |  | | |   __   |  |    \   |  |\   \          
                \     /   | |  | | |  |  |  |  | |\  \  |  | \   \       
                 \___/    |_|  |_| |__|  |__|  |_| \__\ |__|  \__/        
                                                                              
                      - O R C A' S   B I G   F R I E N D -                    
                                      &                                       
                       - I N T E G R A L  F E E D E R -                       
                                                                              
 v1 FN, 2020, v2 2021                                                         
------------------------------------------------------------------------------


Reading SHARK input file Nab_octanol.SHARKINP.tmp ... ok
----------------------
SHARK INTEGRAL PACKAGE
----------------------

Number of atoms                             ...     34
Number of basis functions                   ...    236
Number of shells                            ...    124
Maximum angular momentum                    ...      2
Integral batch strategy                     ... SHARK/LIBINT Hybrid
RI-J (if used) integral strategy            ... SPLIT-RIJ (Revised 2003 algorithm where possible)
Printlevel                                  ...      1
Contraction scheme used                     ... SEGMENTED contraction
Coulomb Range Separation                    ... NOT USED
Exchange Range Separation                   ... NOT USED
Finite Nucleus Model                        ... NOT USED
Auxiliary Coulomb fitting basis             ... AVAILABLE
   # of basis functions in Aux-J            ...   1844
   # of shells in Aux-J                     ...    728
   Maximum angular momentum in Aux-J        ...      3
Auxiliary J/K fitting basis                 ... AVAILABLE
   # of basis functions in Aux-JK           ...   1844
   # of shells in Aux-JK                    ...    728
   Maximum angular momentum in Aux-JK       ...      3
Auxiliary Correlation fitting basis         ... AVAILABLE
   # of basis functions in Aux-C            ...   1844
   # of shells in Aux-C                     ...    728
   Maximum angular momentum in Aux-C        ...      3
Auxiliary 'external' fitting basis          ... NOT available
Integral threshold                          ...     2.500000e-11
Primitive cut-off                           ...     2.500000e-12
Primitive pair pre-selection threshold      ...     2.500000e-12

Calculating pre-screening integrals         ... done (  0.0 sec) Dimension = 124
Organizing shell pair data                  ... done (  0.6 sec)
Shell pair information
Total number of shell pairs                 ...      7750
Shell pairs after pre-screening             ...      6706
Total number of primitive shell pairs       ...     42549
Primitive shell pairs kept                  ...     21679
          la=0 lb=0:   2861 shell pairs
          la=1 lb=0:   2090 shell pairs
          la=1 lb=1:    393 shell pairs
          la=2 lb=0:    924 shell pairs
          la=2 lb=1:    353 shell pairs
          la=2 lb=2:     85 shell pairs

Calculating one electron integrals          ... done (  0.0 sec)
Calculating RI/J V-Matrix + Cholesky decomp.... done (  0.2 sec)
Calculating RI/JK V-Matrix + Cholesky decomp... done (  0.2 sec)
Calculating RI/C V-Matrix + Cholesky decomp.... done (  0.2 sec)
Calculating Nuclear repulsion               ... done (  0.0 sec) ENN=    993.883679092106 Eh

SHARK setup successfully completed in   1.5 seconds

Maximum memory used throughout the entire GTOINT-calculation: 30.9 MB


           ************************************************************
           *        Program running with 4 parallel MPI-processes     *
           *              working on a common directory               *
           ************************************************************
-------------------------------------------------------------------------------
                                 ORCA SCF
-------------------------------------------------------------------------------

------------
SCF SETTINGS
------------
Hamiltonian:
 Density Functional     Method          .... DFT(GTOs)
 Exchange Functional    Exchange        .... B88
   X-Alpha parameter    XAlpha          ....  0.666667
   Becke's b parameter  XBeta           ....  0.004200
 Correlation Functional Correlation     .... LYP
 LDA part of GGA corr.  LDAOpt          .... VWN-5
 Gradients option       PostSCFGGA      .... off
 Hybrid DFT is turned on
   Fraction HF Exchange ScalHFX         ....  0.200000
   Scaling of DF-GGA-X  ScalDFX         ....  0.720000
   Scaling of DF-GGA-C  ScalDFC         ....  0.810000
   Scaling of DF-LDA-C  ScalLDAC        ....  1.000000
   Perturbative correction              ....  0.000000
   Density functional embedding theory  .... OFF
   NL short-range parameter             ....  4.800000
 RI-approximation to the Coulomb term is turned on
   Number of AuxJ basis functions       .... 1844
   RIJ-COSX (HFX calculated with COS-X)).... on


General Settings:
 Integral files         IntName         .... Nab_octanol
 Hartree-Fock type      HFTyp           .... RHF
 Total Charge           Charge          ....    0
 Multiplicity           Mult            ....    1
 Number of Electrons    NEL             ....  110
 Basis Dimension        Dim             ....  236
 Nuclear Repulsion      ENuc            ....    993.8836790921 Eh

Convergence Acceleration:
 DIIS                   CNVDIIS         .... on
   Start iteration      DIISMaxIt       ....    12
   Startup error        DIISStart       ....  0.200000
   # of expansion vecs  DIISMaxEq       ....     5
   Bias factor          DIISBfac        ....   1.050
   Max. coefficient     DIISMaxC        ....  10.000
 Trust-Rad. Augm. Hess. CNVTRAH         .... auto
   Auto Start mean grad. ratio tolernc. ....  1.125000
   Auto Start start iteration           ....    20
   Auto Start num. interpolation iter.  ....    10
   Max. Number of Micro iterations      ....    16
   Max. Number of Macro iterations      .... Maxiter - #DIIS iter
   Number of Davidson start vectors     ....     2
   Converg. threshold I  (grad. norm)   ....   1.000e-05
   Converg. threshold II (energy diff.) ....   1.000e-08
   Grad. Scal. Fac. for Micro threshold ....   0.100
   Minimum threshold for Micro iter.    ....   0.010
   NR start threshold (gradient norm)   ....   0.001
   Initial trust radius                 ....   0.400
   Minimum AH scaling param. (alpha)    ....   1.000
   Maximum AH scaling param. (alpha)    .... 1000.000
   Orbital update algorithm             .... Taylor
   White noise on init. David. guess    .... on
   Maximum white noise                  ....   0.010
   Quad. conv. algorithm                .... NR
 SOSCF                  CNVSOSCF        .... on
   Start iteration      SOSCFMaxIt      ....   150
   Startup grad/error   SOSCFStart      ....  0.003300
 Level Shifting         CNVShift        .... on
   Level shift para.    LevelShift      ....    0.2500
   Turn off err/grad.   ShiftErr        ....    0.0010
 Zerner damping         CNVZerner       .... off
 Static damping         CNVDamp         .... on
   Fraction old density DampFac         ....    0.7000
   Max. Damping (<1)    DampMax         ....    0.9800
   Min. Damping (>=0)   DampMin         ....    0.0000
   Turn off err/grad.   DampErr         ....    0.1000
 Fernandez-Rico         CNVRico         .... off

SCF Procedure:
 Maximum # iterations   MaxIter         ....   125
 SCF integral mode      SCFMode         .... Direct
   Integral package                     .... SHARK and LIBINT hybrid scheme
 Reset frequency        DirectResetFreq ....    20
 Integral Threshold     Thresh          ....  2.500e-11 Eh
 Primitive CutOff       TCut            ....  2.500e-12 Eh

Convergence Tolerance:
 Convergence Check Mode ConvCheckMode   .... Total+1el-Energy
 Convergence forced     ConvForced      .... 0
 Energy Change          TolE            ....  1.000e-08 Eh
 1-El. energy change                    ....  1.000e-05 Eh
 Orbital Gradient       TolG            ....  1.000e-05
 Orbital Rotation angle TolX            ....  1.000e-05
 DIIS Error             TolErr          ....  5.000e-07


Diagonalization of the overlap matrix:
Smallest eigenvalue                        ... 2.889e-03
Time for diagonalization                   ...    0.009 sec
Threshold for overlap eigenvalues          ... 1.000e-08
Number of eigenvalues below threshold      ... 0
Time for construction of square roots      ...    0.005 sec
Total time needed                          ...    0.015 sec

Time for model grid setup =    0.829 sec

------------------------------
INITIAL GUESS: MODEL POTENTIAL
------------------------------
Loading Hartree-Fock densities                     ... done
Calculating cut-offs                               ... done
Initializing the effective Hamiltonian             ... done
Setting up the integral package (SHARK)            ... done
Starting the Coulomb interaction                   ... done (   0.7 sec)
Reading the grid                                   ... done
Mapping shells                                     ... done
Starting the XC term evaluation                    ... done (   0.2 sec)
  promolecular density results
     # of electrons  =    109.992457484
     EX              =    -86.929379850
     EC              =     -3.675893932
     EX+EC           =    -90.605273781
Transforming the Hamiltonian                       ... done (   0.0 sec)
Diagonalizing the Hamiltonian                      ... done (   0.0 sec)
Back transforming the eigenvectors                 ... done (   0.0 sec)
Now organizing SCF variables                       ... done
                      ------------------
                      INITIAL GUESS DONE (   1.7 sec)
                      ------------------
-------------------
DFT GRID GENERATION
-------------------

General Integration Accuracy     IntAcc      ... 4.388
Radial Grid Type                 RadialGrid  ... OptM3 with GC (2021)
Angular Grid (max. ang.)         AngularGrid ... 4 (Lebedev-302)
Angular grid pruning method      GridPruning ... 4 (adaptive)
Weight generation scheme         WeightScheme... Becke
Basis function cutoff            BFCut       ... 1.0000e-11
Integration weight cutoff        WCut        ... 1.0000e-14
Angular grids for H and He will be reduced by one unit
Partially contracted basis set               ... off
Rotationally invariant grid construction     ... off

Total number of grid points                  ...   147244
Total number of batches                      ...     2319
Average number of points per batch           ...       63
Average number of grid points per atom       ...     4331
Time for grid setup =    1.136 sec

--------------------
COSX GRID GENERATION
--------------------

GRIDX 1
-------
General Integration Accuracy     IntAcc      ... 3.816
Radial Grid Type                 RadialGrid  ... OptM3 with GC (2021)
Angular Grid (max. ang.)         AngularGrid ... 1 (Lebedev-50)
Angular grid pruning method      GridPruning ... 4 (adaptive)
Weight generation scheme         WeightScheme... Becke
Basis function cutoff            BFCut       ... 1.0000e-11
Integration weight cutoff        WCut        ... 1.0000e-14
Angular grids for H and He will be reduced by one unit
Partially contracted basis set               ... on
Rotationally invariant grid construction     ... off

Total number of grid points                  ...    18768
Total number of batches                      ...      315
Average number of points per batch           ...       59
Average number of grid points per atom       ...      552
UseSFitting                                  ... on

GRIDX 2
-------
General Integration Accuracy     IntAcc      ... 4.020
Radial Grid Type                 RadialGrid  ... OptM3 with GC (2021)
Angular Grid (max. ang.)         AngularGrid ... 2 (Lebedev-110)
Angular grid pruning method      GridPruning ... 4 (adaptive)
Weight generation scheme         WeightScheme... Becke
Basis function cutoff            BFCut       ... 1.0000e-11
Integration weight cutoff        WCut        ... 1.0000e-14
Angular grids for H and He will be reduced by one unit
Partially contracted basis set               ... on
Rotationally invariant grid construction     ... off

Total number of grid points                  ...    39329
Total number of batches                      ...      632
Average number of points per batch           ...       62
Average number of grid points per atom       ...     1157
UseSFitting                                  ... on

GRIDX 3
-------
General Integration Accuracy     IntAcc      ... 4.338
Radial Grid Type                 RadialGrid  ... OptM3 with GC (2021)
Angular Grid (max. ang.)         AngularGrid ... 3 (Lebedev-194)
Angular grid pruning method      GridPruning ... 4 (adaptive)
Weight generation scheme         WeightScheme... Becke
Basis function cutoff            BFCut       ... 1.0000e-11
Integration weight cutoff        WCut        ... 1.0000e-14
Angular grids for H and He will be reduced by one unit
Partially contracted basis set               ... on
Rotationally invariant grid construction     ... off

Total number of grid points                  ...    85594
Total number of batches                      ...     1356
Average number of points per batch           ...       63
Average number of grid points per atom       ...     2517
UseSFitting                                  ... on

Time for X-Grid setup             =    2.245 sec


--------------------
CPCM SOLVATION MODEL
--------------------
CPCM parameters:
  Epsilon                                         ...       9.8629
  Refrac                                          ...       1.4295
  Rsolv                                           ...       1.3000
  Surface type                                    ... GAUSSIAN VDW
  Epsilon function type                           ...         CPCM
Radii:
 Radius for C  used is    3.8550 Bohr (=   2.0400 Ang.)
 Radius for H  used is    2.4944 Bohr (=   1.3200 Ang.)
 Radius for O  used is    3.4469 Bohr (=   1.8240 Ang.)
 Radius for N  used is    3.5149 Bohr (=   1.8600 Ang.)
Calculating surface                               ...        done! (  0.0s)
GEPOL surface points                              ...         1779
GEPOL Volume                                      ...    1779.1980
GEPOL Surface-area                                ...     950.7165
Calculating surface distance matrix               ...        done! (  0.0s)
Performing Cholesky decomposition & store         ...        done! (  0.1s)
Overall time for CPCM initialization              ...                 0.2s
--------------
SCF ITERATIONS
--------------
ITER       Energy         Delta-E        Max-DP      RMS-DP      [F,P]     Damp
               ***  Starting incremental Fock matrix formation  ***
  0   -652.2283646167   0.000000000000 0.09469358  0.00217789  0.2733218 0.7000
  1   -652.4418587855  -0.213494168794 0.05368420  0.00147512  0.1106066 0.7000
                               ***Turning on DIIS***
  2   -652.5241558317  -0.082297046180 0.06312719  0.00232488  0.0379582 0.0000
  3   -652.6537800750  -0.129624243262 0.03563917  0.00099376  0.0545128 0.0000
  4   -652.6819680697  -0.028187994718 0.00864398  0.00033398  0.0126200 0.0000
  5   -652.6838295452  -0.001861475567 0.00410831  0.00010315  0.0066761 0.0000
                      *** Initiating the SOSCF procedure ***
                           *** Shutting down DIIS ***
                      *** Re-Reading the Fockian *** 
                      *** Removing any level shift *** 
ITER      Energy       Delta-E        Grad      Rot      Max-DP    RMS-DP
  6   -652.68397787  -0.0001483218  0.000249  0.000249  0.001307  0.000044
               *** Restarting incremental Fock matrix formation ***
  7   -652.68398322  -0.0000053537  0.000226  0.000873  0.001677  0.000025
  8   -652.68397846   0.0000047617  0.000417  0.000620  0.001110  0.000016
  9   -652.68398624  -0.0000077855  0.000054  0.000148  0.000289  0.000005
 10   -652.68398599   0.0000002530  0.000111  0.000101  0.000211  0.000004
 11   -652.68398634  -0.0000003464  0.000005  0.000010  0.000024  0.000001
 12   -652.68398634  -0.0000000041  0.000006  0.000005  0.000012  0.000000
                  ***Gradient check signals convergence***
              ***Rediagonalizing the Fockian in SOSCF/NRSCF***

               *****************************************************
               *                     SUCCESS                       *
               *           SCF CONVERGED AFTER  13 CYCLES          *
               *****************************************************

Old exchange energy                            =    -17.752494581 Eh
New exchange energy                            =    -17.752463757 Eh
Exchange energy change after final integration =      0.000030824 Eh
Total energy after final integration           =   -652.683955514 Eh
Final COS-X integration done in                =     9.702 sec

----------------
TOTAL SCF ENERGY
----------------

Total Energy       :         -652.68395551 Eh          -17760.43335 eV

Components:
Nuclear Repulsion  :          993.88367909 Eh           27044.94985 eV
Electronic Energy  :        -1646.56763461 Eh          -44805.38320 eV
One Electron Energy:        -2859.55240527 Eh          -77812.37685 eV
Two Electron Energy:         1212.98477066 Eh           33006.99365 eV
Max COSX asymmetry :            0.00000186 Eh               0.00005 eV
CPCM Dielectric    :           -0.01611476 Eh              -0.43850 eV

Virial components:
Potential Energy   :        -1301.54820193 Eh          -35416.92714 eV
Kinetic Energy     :          648.86424642 Eh           17656.49378 eV
Virial Ratio       :            2.00588676


DFT components:
N(Alpha)           :       55.000010610782 electrons
N(Beta)            :       55.000010610782 electrons
N(Total)           :      110.000021221565 electrons
E(X)               :      -70.456436865418 Eh       
E(C)               :       -4.335195107869 Eh       
E(XC)              :      -74.791631973286 Eh       
DFET-embed. en.    :        0.000000000000 Eh       
CPCM Solvation Model Properties:
Surface-charge          :           -0.02271698
Charge-correction       :           -0.00024465 Eh              -0.00666 eV
Free-energy (cav+disp)  :  This term is not implemented in the current solvation scheme

---------------
SCF CONVERGENCE
---------------

  Last Energy change         ...    4.1609e-09  Tolerance :   1.0000e-08
  Last MAX-Density change    ...    4.4409e-15  Tolerance :   1.0000e-07
  Last RMS-Density change    ...    4.7312e-17  Tolerance :   5.0000e-09
  Last Orbital Gradient      ...    6.0317e-07  Tolerance :   1.0000e-05
  Last Orbital Rotation      ...    2.1808e-06  Tolerance :   1.0000e-05

             **** THE GBW FILE WAS UPDATED (Nab_octanol.gbw) ****
             **** DENSITY Nab_octanol.scfp WAS UPDATED ****
             **** ENERGY FILE WAS UPDATED (Nab_octanol.en.tmp) ****
             **** THE GBW FILE WAS UPDATED (Nab_octanol.gbw) ****
             **** DENSITY Nab_octanol.scfp WAS UPDATED ****
----------------
ORBITAL ENERGIES
----------------

  NO   OCC          E(Eh)            E(eV) 
   0   2.0000     -19.109088      -519.9847 
   1   2.0000     -19.107266      -519.9351 
   2   2.0000     -14.359351      -390.7378 
   3   2.0000     -14.357877      -390.6977 
   4   2.0000     -10.283083      -279.8169 
   5   2.0000     -10.278331      -279.6876 
   6   2.0000     -10.209499      -277.8146 
   7   2.0000     -10.207245      -277.7533 
   8   2.0000     -10.197863      -277.4980 
   9   2.0000     -10.194601      -277.4092 
  10   2.0000     -10.172869      -276.8178 
  11   2.0000     -10.167309      -276.6665 
  12   2.0000     -10.166857      -276.6542 
  13   2.0000     -10.157228      -276.3922 
  14   2.0000      -1.031100       -28.0577 
  15   2.0000      -1.023870       -27.8609 
  16   2.0000      -0.933432       -25.4000 
  17   2.0000      -0.926211       -25.2035 
  18   2.0000      -0.791226       -21.5304 
  19   2.0000      -0.758613       -20.6429 
  20   2.0000      -0.727253       -19.7896 
  21   2.0000      -0.714741       -19.4491 
  22   2.0000      -0.704030       -19.1576 
  23   2.0000      -0.668792       -18.1988 
  24   2.0000      -0.639579       -17.4038 
  25   2.0000      -0.578637       -15.7455 
  26   2.0000      -0.549969       -14.9654 
  27   2.0000      -0.534758       -14.5515 
  28   2.0000      -0.510125       -13.8812 
  29   2.0000      -0.486648       -13.2424 
  30   2.0000      -0.477948       -13.0056 
  31   2.0000      -0.464109       -12.6291 
  32   2.0000      -0.456803       -12.4302 
  33   2.0000      -0.453596       -12.3430 
  34   2.0000      -0.447715       -12.1830 
  35   2.0000      -0.421473       -11.4689 
  36   2.0000      -0.408473       -11.1151 
  37   2.0000      -0.405633       -11.0378 
  38   2.0000      -0.402332       -10.9480 
  39   2.0000      -0.396026       -10.7764 
  40   2.0000      -0.394401       -10.7322 
  41   2.0000      -0.392909       -10.6916 
  42   2.0000      -0.388305       -10.5663 
  43   2.0000      -0.376144       -10.2354 
  44   2.0000      -0.372703       -10.1418 
  45   2.0000      -0.362276        -9.8580 
  46   2.0000      -0.349103        -9.4996 
  47   2.0000      -0.348763        -9.4903 
  48   2.0000      -0.334323        -9.0974 
  49   2.0000      -0.326493        -8.8843 
  50   2.0000      -0.319593        -8.6966 
  51   2.0000      -0.257511        -7.0072 
  52   2.0000      -0.251835        -6.8528 
  53   2.0000      -0.236116        -6.4250 
  54   2.0000      -0.233926        -6.3654 
  55   0.0000       0.015708         0.4274 
  56   0.0000       0.028203         0.7674 
  57   0.0000       0.085251         2.3198 
  58   0.0000       0.101951         2.7742 
  59   0.0000       0.111317         3.0291 
  60   0.0000       0.119631         3.2553 
  61   0.0000       0.139271         3.7898 
  62   0.0000       0.145694         3.9645 
  63   0.0000       0.147342         4.0094 
  64   0.0000       0.151364         4.1188 
  65   0.0000       0.158683         4.3180 
  66   0.0000       0.165786         4.5113 
  67   0.0000       0.168810         4.5936 
  68   0.0000       0.172884         4.7044 
  69   0.0000       0.179144         4.8748 
  70   0.0000       0.184897         5.0313 
  71   0.0000       0.189026         5.1437 
  72   0.0000       0.194303         5.2873 
  73   0.0000       0.197204         5.3662 
  74   0.0000       0.200053         5.4437 
  75   0.0000       0.207872         5.6565 
  76   0.0000       0.210262         5.7215 
  77   0.0000       0.230293         6.2666 
  78   0.0000       0.235293         6.4027 
  79   0.0000       0.236580         6.4377 
  80   0.0000       0.243894         6.6367 
  81   0.0000       0.247337         6.7304 
  82   0.0000       0.269253         7.3267 
  83   0.0000       0.274188         7.4610 
  84   0.0000       0.285474         7.7681 
  85   0.0000       0.296856         8.0779 
  86   0.0000       0.340377         9.2621 
  87   0.0000       0.361216         9.8292 
  88   0.0000       0.380458        10.3528 
  89   0.0000       0.421910        11.4808 
  90   0.0000       0.471480        12.8296 
  91   0.0000       0.493284        13.4229 
  92   0.0000       0.508409        13.8345 
  93   0.0000       0.511172        13.9097 
  94   0.0000       0.524348        14.2682 
  95   0.0000       0.526747        14.3335 
  96   0.0000       0.549779        14.9603 
  97   0.0000       0.555275        15.1098 
  98   0.0000       0.559689        15.2299 
  99   0.0000       0.574268        15.6266 
 100   0.0000       0.597120        16.2485 
 101   0.0000       0.607152        16.5214 
 102   0.0000       0.613018        16.6811 
 103   0.0000       0.616168        16.7668 
 104   0.0000       0.627243        17.0682 
 105   0.0000       0.645170        17.5560 
 106   0.0000       0.651158        17.7189 
 107   0.0000       0.668561        18.1925 
 108   0.0000       0.671952        18.2847 
 109   0.0000       0.685934        18.6652 
 110   0.0000       0.707961        19.2646 
 111   0.0000       0.722910        19.6714 
 112   0.0000       0.725368        19.7383 
 113   0.0000       0.737958        20.0808 
 114   0.0000       0.758899        20.6507 
 115   0.0000       0.773681        21.0529 
 116   0.0000       0.798937        21.7402 
 117   0.0000       0.808919        22.0118 
 118   0.0000       0.818085        22.2612 
 119   0.0000       0.831763        22.6334 
 120   0.0000       0.838519        22.8173 
 121   0.0000       0.847226        23.0542 
 122   0.0000       0.855056        23.2673 
 123   0.0000       0.862757        23.4768 
 124   0.0000       0.870436        23.6858 
 125   0.0000       0.881003        23.9733 
 126   0.0000       0.884110        24.0579 
 127   0.0000       0.893570        24.3153 
 128   0.0000       0.902705        24.5638 
 129   0.0000       0.909033        24.7361 
 130   0.0000       0.915486        24.9116 
 131   0.0000       0.923982        25.1428 
 132   0.0000       0.931116        25.3370 
 133   0.0000       0.931567        25.3492 
 134   0.0000       0.956337        26.0232 
 135   0.0000       0.961903        26.1747 
 136   0.0000       0.962456        26.1898 
 137   0.0000       0.972250        26.4563 
 138   0.0000       0.980880        26.6911 
 139   0.0000       0.984047        26.7773 
 140   0.0000       0.998268        27.1642 
 141   0.0000       1.017076        27.6760 
 142   0.0000       1.022304        27.8183 
 143   0.0000       1.028312        27.9818 
 144   0.0000       1.043771        28.4024 
 145   0.0000       1.055639        28.7254 
 146   0.0000       1.066951        29.0332 
 147   0.0000       1.099551        29.9203 
 148   0.0000       1.135508        30.8987 
 149   0.0000       1.138625        30.9836 
 150   0.0000       1.169532        31.8246 
 151   0.0000       1.226759        33.3818 
 152   0.0000       1.249176        33.9918 
 153   0.0000       1.282492        34.8984 
 154   0.0000       1.294112        35.2146 
 155   0.0000       1.315286        35.7908 
 156   0.0000       1.359166        36.9848 
 157   0.0000       1.360647        37.0251 
 158   0.0000       1.410694        38.3869 
 159   0.0000       1.413352        38.4593 
 160   0.0000       1.430931        38.9376 
 161   0.0000       1.437487        39.1160 
 162   0.0000       1.450360        39.4663 
 163   0.0000       1.463474        39.8231 
 164   0.0000       1.492159        40.6037 
 165   0.0000       1.516137        41.2562 
 166   0.0000       1.544764        42.0352 
 167   0.0000       1.560737        42.4698 
 168   0.0000       1.602942        43.6183 
 169   0.0000       1.648397        44.8552 
 170   0.0000       1.690904        46.0118 
 171   0.0000       1.715287        46.6753 
 172   0.0000       1.751872        47.6709 
 173   0.0000       1.760668        47.9102 
 174   0.0000       1.787350        48.6363 
 175   0.0000       1.794248        48.8240 
 176   0.0000       1.813215        49.3401 
 177   0.0000       1.839428        50.0534 
 178   0.0000       1.849039        50.3149 
 179   0.0000       1.861497        50.6539 
 180   0.0000       1.879731        51.1501 
 181   0.0000       1.896981        51.6195 
 182   0.0000       1.911543        52.0157 
 183   0.0000       1.920129        52.2494 
 184   0.0000       1.935951        52.6799 
 185   0.0000       1.947622        52.9975 
 186   0.0000       1.960581        53.3501 
 187   0.0000       1.963960        53.4421 
 188   0.0000       1.982154        53.9372 
 189   0.0000       1.994075        54.2615 
 190   0.0000       2.001295        54.4580 
 191   0.0000       2.005543        54.5736 
 192   0.0000       2.041198        55.5438 
 193   0.0000       2.049785        55.7775 
 194   0.0000       2.052472        55.8506 
 195   0.0000       2.075829        56.4862 
 196   0.0000       2.088841        56.8402 
 197   0.0000       2.094621        56.9975 
 198   0.0000       2.109314        57.3973 
 199   0.0000       2.122381        57.7529 
 200   0.0000       2.156508        58.6816 
 201   0.0000       2.193488        59.6879 
 202   0.0000       2.202192        59.9247 
 203   0.0000       2.228922        60.6521 
 204   0.0000       2.251964        61.2790 
 205   0.0000       2.270356        61.7795 
 206   0.0000       2.276229        61.9393 
 207   0.0000       2.293044        62.3969 
 208   0.0000       2.309264        62.8383 
 209   0.0000       2.323927        63.2373 
 210   0.0000       2.335075        63.5406 
 211   0.0000       2.366703        64.4013 
 212   0.0000       2.380503        64.7768 
 213   0.0000       2.397126        65.2291 
 214   0.0000       2.407962        65.5240 
 215   0.0000       2.432807        66.2000 
 216   0.0000       2.447180        66.5912 
 217   0.0000       2.497169        67.9514 
 218   0.0000       2.528256        68.7973 
 219   0.0000       2.558240        69.6132 
 220   0.0000       2.575205        70.0749 
 221   0.0000       2.605999        70.9129 
 222   0.0000       2.617830        71.2348 
 223   0.0000       2.635619        71.7188 
 224   0.0000       2.646974        72.0278 
 225   0.0000       2.690302        73.2068 
 226   0.0000       2.714498        73.8652 
 227   0.0000       2.729686        74.2785 
 228   0.0000       2.760820        75.1257 
 229   0.0000       2.813214        76.5514 
 230   0.0000       2.936115        79.8957 
 231   0.0000       2.957503        80.4777 
 232   0.0000       3.003334        81.7249 
 233   0.0000       3.007716        81.8441 
 234   0.0000       3.165051        86.1254 
 235   0.0000       3.184786        86.6624 

                    ********************************
                    * MULLIKEN POPULATION ANALYSIS *
                    ********************************

-----------------------
MULLIKEN ATOMIC CHARGES
-----------------------
   0 C :   -0.561383
   1 H :    0.191228
   2 H :    0.196723
   3 H :    0.181325
   4 C :    0.529274
   5 O :   -0.533254
   6 N :   -0.371371
   7 C :   -0.250088
   8 H :    0.179592
   9 H :    0.204067
  10 C :   -0.167814
  11 H :    0.172439
  12 H :    0.172177
  13 C :   -0.269215
  14 H :    0.157976
  15 H :    0.146181
  16 C :    0.527636
  17 N :   -0.361859
  18 O :   -0.542606
  19 C :   -0.347520
  20 H :    0.168239
  21 H :    0.170379
  22 H :    0.198299
  23 C :   -0.329501
  24 H :    0.168484
  25 H :    0.185859
  26 H :    0.169586
  27 C :   -0.253597
  28 H :    0.138571
  29 H :    0.140978
  30 C :   -0.452913
  31 H :    0.148174
  32 H :    0.146745
  33 H :    0.147192
Sum of atomic charges:   -0.0000000

--------------------------------
MULLIKEN REDUCED ORBITAL CHARGES
--------------------------------
  0 C s       :     3.323076  s :     3.323076
      pz      :     1.089056  p :     3.206334
      px      :     1.085309
      py      :     1.031969
      dz2     :     0.002653  d :     0.031973
      dxz     :     0.008388
      dyz     :     0.008949
      dx2y2   :     0.004165
      dxy     :     0.007818
  1 H s       :     0.808772  s :     0.808772
  2 H s       :     0.803277  s :     0.803277
  3 H s       :     0.818675  s :     0.818675
  4 C s       :     2.982763  s :     2.982763
      pz      :     0.794087  p :     2.380030
      px      :     0.776966
      py      :     0.808977
      dz2     :     0.013848  d :     0.107933
      dxz     :     0.025775
      dyz     :     0.009264
      dx2y2   :     0.022039
      dxy     :     0.037007
  5 O s       :     3.863899  s :     3.863899
      pz      :     1.567424  p :     4.644350
      px      :     1.360097
      py      :     1.716829
      dz2     :     0.002829  d :     0.025005
      dxz     :     0.007968
      dyz     :     0.000523
      dx2y2   :     0.007275
      dxy     :     0.006410
  6 N s       :     3.533585  s :     3.533585
      pz      :     1.433464  p :     3.801155
      px      :     1.118820
      py      :     1.248871
      dz2     :     0.005601  d :     0.036631
      dxz     :     0.007069
      dyz     :     0.005152
      dx2y2   :     0.009168
      dxy     :     0.009641
  7 C s       :     3.250121  s :     3.250121
      pz      :     1.057559  p :     2.948029
      px      :     1.029596
      py      :     0.860874
      dz2     :     0.015620  d :     0.051938
      dxz     :     0.005748
      dyz     :     0.007812
      dx2y2   :     0.012820
      dxy     :     0.009937
  8 H s       :     0.820408  s :     0.820408
  9 H s       :     0.795933  s :     0.795933
 10 C s       :     3.218359  s :     3.218359
      pz      :     1.037534  p :     2.895485
      px      :     0.774907
      py      :     1.083043
      dz2     :     0.012043  d :     0.053970
      dxz     :     0.010445
      dyz     :     0.006734
      dx2y2   :     0.016657
      dxy     :     0.008090
 11 H s       :     0.827561  s :     0.827561
 12 H s       :     0.827823  s :     0.827823
 13 C s       :     3.252374  s :     3.252374
      pz      :     0.995451  p :     2.976955
      px      :     0.936946
      py      :     1.044559
      dz2     :     0.010102  d :     0.039886
      dxz     :     0.007212
      dyz     :     0.005895
      dx2y2   :     0.010178
      dxy     :     0.006498
 14 H s       :     0.842024  s :     0.842024
 15 H s       :     0.853819  s :     0.853819
 16 C s       :     2.984508  s :     2.984508
      pz      :     0.760317  p :     2.380483
      px      :     0.783274
      py      :     0.836892
      dz2     :     0.034825  d :     0.107374
      dxz     :     0.021245
      dyz     :     0.022705
      dx2y2   :     0.013721
      dxy     :     0.014877
 17 N s       :     3.533680  s :     3.533680
      pz      :     1.114459  p :     3.790414
      px      :     1.475543
      py      :     1.200413
      dz2     :     0.008882  d :     0.037765
      dxz     :     0.007301
      dyz     :     0.010424
      dx2y2   :     0.004913
      dxy     :     0.006245
 18 O s       :     3.860855  s :     3.860855
      pz      :     1.583970  p :     4.656681
      px      :     1.443809
      py      :     1.628902
      dz2     :     0.005193  d :     0.025071
      dxz     :     0.005707
      dyz     :     0.005585
      dx2y2   :     0.004906
      dxy     :     0.003679
 19 C s       :     3.269445  s :     3.269445
      pz      :     0.938273  p :     3.029823
      px      :     1.046334
      py      :     1.045215
      dz2     :     0.005428  d :     0.048252
      dxz     :     0.015085
      dyz     :     0.012678
      dx2y2   :     0.004010
      dxy     :     0.011050
 20 H s       :     0.831761  s :     0.831761
 21 H s       :     0.829621  s :     0.829621
 22 H s       :     0.801701  s :     0.801701
 23 C s       :     3.258732  s :     3.258732
      pz      :     1.098034  p :     3.022803
      px      :     1.040348
      py      :     0.884422
      dz2     :     0.004683  d :     0.047966
      dxz     :     0.011776
      dyz     :     0.010228
      dx2y2   :     0.009738
      dxy     :     0.011541
 24 H s       :     0.831516  s :     0.831516
 25 H s       :     0.814141  s :     0.814141
 26 H s       :     0.830414  s :     0.830414
 27 C s       :     3.243681  s :     3.243681
      pz      :     1.002434  p :     2.969143
      px      :     0.937026
      py      :     1.029683
      dz2     :     0.011063  d :     0.040772
      dxz     :     0.006454
      dyz     :     0.005701
      dx2y2   :     0.011380
      dxy     :     0.006175
 28 H s       :     0.861429  s :     0.861429
 29 H s       :     0.859022  s :     0.859022
 30 C s       :     3.293783  s :     3.293783
      pz      :     1.028555  p :     3.124100
      px      :     1.042867
      py      :     1.052679
      dz2     :     0.010470  d :     0.035029
      dxz     :     0.004368
      dyz     :     0.005336
      dx2y2   :     0.011914
      dxy     :     0.002942
 31 H s       :     0.851826  s :     0.851826
 32 H s       :     0.853255  s :     0.853255
 33 H s       :     0.852808  s :     0.852808


                     *******************************
                     * LOEWDIN POPULATION ANALYSIS *
                     *******************************

----------------------
LOEWDIN ATOMIC CHARGES
----------------------
   0 C :   -0.392655
   1 H :    0.151896
   2 H :    0.157771
   3 H :    0.150408
   4 C :    0.116475
   5 O :   -0.336845
   6 N :   -0.068200
   7 C :   -0.178439
   8 H :    0.144224
   9 H :    0.158949
  10 C :   -0.159982
  11 H :    0.138444
  12 H :    0.139529
  13 C :   -0.244227
  14 H :    0.130266
  15 H :    0.123097
  16 C :    0.097584
  17 N :   -0.071610
  18 O :   -0.337178
  19 C :   -0.286592
  20 H :    0.130657
  21 H :    0.135353
  22 H :    0.150174
  23 C :   -0.280892
  24 H :    0.130167
  25 H :    0.147891
  26 H :    0.135665
  27 C :   -0.233471
  28 H :    0.120490
  29 H :    0.122185
  30 C :   -0.366612
  31 H :    0.124845
  32 H :    0.124213
  33 H :    0.126417

-------------------------------
LOEWDIN REDUCED ORBITAL CHARGES
-------------------------------
  0 C s       :     2.981714  s :     2.981714
      pz      :     1.132437  p :     3.348062
      px      :     1.125619
      py      :     1.090006
      dz2     :     0.004819  d :     0.062879
      dxz     :     0.015852
      dyz     :     0.017395
      dx2y2   :     0.008462
      dxy     :     0.016350
  1 H s       :     0.848104  s :     0.848104
  2 H s       :     0.842229  s :     0.842229
  3 H s       :     0.849592  s :     0.849592
  4 C s       :     2.849656  s :     2.849656
      pz      :     0.850225  p :     2.779324
      px      :     0.990243
      py      :     0.938856
      dz2     :     0.030685  d :     0.254545
      dxz     :     0.060308
      dyz     :     0.020638
      dx2y2   :     0.052252
      dxy     :     0.090662
  5 O s       :     3.565500  s :     3.565500
      pz      :     1.561429  p :     4.719995
      px      :     1.450899
      py      :     1.707666
[...]
     76      -0.000661  -0.000168  -0.001495  -0.000095  -0.142089  -0.473035
     77       0.001105   0.000285   0.001903   0.000104   0.225078   0.744613
     78       0.000276  -0.000090  -0.001102   0.000146   0.051636   0.162609
     79       0.000154  -0.000088  -0.001088   0.000121   0.041977   0.127782
     80       0.000228  -0.000082  -0.001025   0.000124   0.039603   0.124107
     81      -0.000492  -0.000096  -0.000002   0.000012  -0.000003   0.000001
     82      -0.005451  -0.001269   0.000027  -0.000130  -0.000001   0.000011
     83       0.003003   0.000758   0.000011   0.000131  -0.000021  -0.000005
     84       0.016228   0.003721  -0.000019   0.000446  -0.000028  -0.000029
     85       0.050051   0.011201  -0.000153   0.001075  -0.000016  -0.000112
     86       0.001014   0.000279  -0.000002   0.000029   0.000001  -0.000002
     87      -0.009037  -0.002234   0.000049  -0.000383   0.000044   0.000019
     88       0.014943   0.003705  -0.000035   0.000547  -0.000060  -0.000025
     89      -0.037475  -0.009381   0.000072  -0.001434   0.000170   0.000075
     90      -0.000583  -0.000067   0.000002   0.000036  -0.000008   0.000001
     91      -0.002105  -0.000471  -0.000013  -0.000027   0.000008   0.000011
     92       0.001041   0.000303  -0.000010   0.000008  -0.000001  -0.000006
     93       0.003789   0.000813   0.000032   0.000046  -0.000020  -0.000045
     94       0.021601   0.004630   0.000159   0.000383  -0.000069  -0.000120
     95       0.001302   0.000298  -0.000000   0.000051  -0.000012  -0.000014
     96      -0.001892  -0.000490   0.000005   0.000018  -0.000003   0.000010
     97       0.005449   0.001499  -0.000030   0.000030  -0.000011  -0.000038
     98      -0.015485  -0.004208   0.000084  -0.000119   0.000025   0.000086
     99       0.005315   0.000649  -0.000145  -0.000581   0.000178   0.000002
    100       0.000483   0.000047   0.000007  -0.000014   0.000004   0.000001
    101       0.001196   0.000100  -0.000006  -0.000100   0.000022   0.000002


-----------
IR SPECTRUM
-----------

 Mode   freq       eps      Int      T**2         TX        TY        TZ
       cm**-1   L/(mol*cm) km/mol    a.u.
----------------------------------------------------------------------------
  6:     42.25   0.000700    3.54  0.005169  ( 0.070735 -0.003971 -0.012222)
  7:     47.09   0.000062    0.31  0.000411  (-0.001404 -0.005235  0.019535)
  8:     55.24   0.000658    3.32  0.003716  (-0.040254 -0.035605  0.028778)
  9:     75.12   0.001016    5.13  0.004220  ( 0.039942  0.037166 -0.035262)
 10:     79.31   0.000282    1.42  0.001108  ( 0.017031  0.021603 -0.018743)
 11:     85.88   0.000027    0.14  0.000099  (-0.000793 -0.004289 -0.008919)
 12:    104.90   0.002163   10.93  0.006433  ( 0.007408 -0.064608 -0.046950)
 13:    127.98   0.001101    5.57  0.002685  (-0.010478 -0.044145 -0.025038)
 14:    142.44   0.000768    3.88  0.001683  ( 0.002132  0.040340  0.007132)
 15:    159.16   0.000177    0.90  0.000347  ( 0.009173  0.005684 -0.015200)
 16:    169.05   0.000070    0.35  0.000129  (-0.003275  0.000934  0.010858)
 17:    204.36   0.000219    1.11  0.000334  (-0.015783 -0.005023  0.007728)
 18:    239.53   0.000721    3.64  0.000939  (-0.014344 -0.026522  0.005466)
 19:    248.35   0.000162    0.82  0.000204  (-0.010967 -0.009117  0.000697)
 20:    264.47   0.001318    6.66  0.001555  (-0.035435 -0.017306 -0.000046)
 21:    278.81   0.001016    5.13  0.001137  ( 0.017944  0.024512  0.014633)
 22:    342.30   0.001874    9.47  0.001709  (-0.002677  0.026967  0.031215)
 23:    360.73   0.001526    7.71  0.001320  (-0.009515  0.013159 -0.032507)
 24:    388.37   0.001782    9.01  0.001432  (-0.011348  0.017650  0.031491)
 25:    428.50   0.000821    4.15  0.000598  (-0.004205  0.022598  0.008327)
 26:    443.53   0.001444    7.30  0.001016  ( 0.010534 -0.026393 -0.014434)
 27:    458.43   0.002568   12.98  0.001748  ( 0.039890 -0.011909  0.003902)
 28:    497.97   0.004512   22.80  0.002828  (-0.032828 -0.035711  0.021786)
 29:    579.98   0.003571   18.05  0.001922  (-0.016742  0.038442  0.012787)
 30:    599.69   0.001917    9.69  0.000997  (-0.020776  0.022455  0.007847)
 31:    634.38   0.004611   23.30  0.002268  (-0.006076  0.000305 -0.047235)
 32:    703.12   0.000735    3.71  0.000326  (-0.012096 -0.001174 -0.013359)
 33:    738.02   0.002245   11.35  0.000949  (-0.003753 -0.027597  0.013179)
 34:    762.04   0.002493   12.60  0.001021  ( 0.005858  0.023265  0.021107)
 35:    797.52   0.001472    7.44  0.000576  (-0.013376 -0.013510 -0.014648)
 36:    824.68   0.003803   19.22  0.001439  ( 0.019815  0.008110  0.031315)
 37:    918.13   0.000659    3.33  0.000224  (-0.013798  0.003152  0.004857)
 38:    951.07   0.001996   10.09  0.000655  ( 0.001681  0.018693 -0.017398)
 39:    958.83   0.000598    3.02  0.000195  (-0.009837 -0.009684 -0.002029)
 40:   1003.11   0.006133   30.99  0.001908  ( 0.005076 -0.020883 -0.038025)
 41:   1009.51   0.005015   25.34  0.001550  (-0.029999  0.022064 -0.012788)
 42:   1027.90   0.004549   22.99  0.001381  (-0.022685  0.021862  0.019707)
 43:   1062.07   0.001659    8.38  0.000487  (-0.002120  0.014226  0.016750)
 44:   1067.81   0.000456    2.30  0.000133  ( 0.007822 -0.007602 -0.003770)
 45:   1079.23   0.006607   33.39  0.001910  (-0.012645  0.023022 -0.034935)
 46:   1090.88   0.001425    7.20  0.000408  ( 0.012649 -0.015733  0.000494)
 47:   1135.05   0.000614    3.10  0.000169  ( 0.000541  0.012966 -0.000622)
 48:   1138.53   0.002411   12.18  0.000661  (-0.016272 -0.001368 -0.019854)
 49:   1156.81   0.008930   45.13  0.002409  (-0.018329 -0.027065 -0.036613)
 50:   1183.51   0.002342   11.83  0.000617  ( 0.009580  0.003889  0.022596)
 51:   1201.65   0.009463   47.82  0.002457  (-0.008319  0.007647 -0.048268)
 52:   1233.46   0.003882   19.62  0.000982  (-0.023616  0.007817  0.019062)
 53:   1267.39   0.020315  102.66  0.005002  (-0.022919  0.058022 -0.033321)
 54:   1288.27   0.010584   53.49  0.002564  (-0.020848  0.037188  0.027317)
 55:   1293.63   0.022483  113.62  0.005424  (-0.000153 -0.066902  0.030786)
 56:   1309.26   0.000709    3.58  0.000169  ( 0.007990 -0.010153 -0.001419)
 57:   1336.60   0.001929    9.75  0.000450  ( 0.016567 -0.012639  0.004026)
 58:   1349.10   0.002010   10.16  0.000465  (-0.013002  0.016993 -0.002651)
 59:   1370.16   0.000523    2.64  0.000119  (-0.006718  0.000798 -0.008563)
 60:   1399.18   0.001031    5.21  0.000230  ( 0.014695 -0.001135  0.003555)
 61:   1411.02   0.004078   20.61  0.000902  ( 0.026324  0.008500 -0.011694)
 62:   1425.25   0.007210   36.44  0.001579  (-0.033940  0.018135 -0.009893)
 63:   1430.35   0.000812    4.10  0.000177  (-0.008486  0.001977 -0.010056)
 64:   1440.78   0.014152   71.52  0.003065  (-0.002726 -0.024668 -0.049491)
 65:   1456.59   0.017464   88.26  0.003742  ( 0.004233 -0.050637 -0.034052)
 66:   1474.93   0.044605  225.42  0.009438  ( 0.048465 -0.071894  0.043816)
 67:   1485.80   0.003417   17.27  0.000718  ( 0.022711  0.014051  0.002107)
 68:   1490.22   0.000729    3.68  0.000153  ( 0.008619 -0.000224 -0.008849)
 69:   1498.79   0.001460    7.38  0.000304  (-0.001062 -0.011755  0.012834)
 70:   1503.39   0.001061    5.36  0.000220  (-0.002107 -0.006406 -0.013218)
 71:   1504.77   0.005587   28.23  0.001159  ( 0.008706  0.023260 -0.023277)
 72:   1512.28   0.001902    9.61  0.000392  ( 0.008863 -0.017184  0.004306)
 73:   1513.26   0.001062    5.37  0.000219  ( 0.002119 -0.014362  0.002867)
 74:   1514.83   0.001059    5.35  0.000218  ( 0.000656  0.012066 -0.008498)
 75:   1518.96   0.002697   13.63  0.000554  (-0.018230 -0.013089 -0.007094)
 76:   1527.51   0.000912    4.61  0.000186  (-0.001515 -0.011763  0.006759)
 77:   1530.10   0.006494   32.82  0.001324  ( 0.035381  0.008510  0.000427)
 78:   1537.28   0.004125   20.85  0.000837  (-0.000824 -0.004401  0.028589)
 79:   1555.25   0.016431   83.04  0.003297  ( 0.009414 -0.037573 -0.042387)
 80:   1706.51   0.133354  673.92  0.024386  ( 0.137547 -0.032372  0.066475)
 81:   1715.44   0.086962  439.47  0.015820  ( 0.022614 -0.033060  0.119228)
 82:   3023.40   0.008304   41.97  0.000857  (-0.009066 -0.016312 -0.022558)
 83:   3031.65   0.004895   24.74  0.000504  ( 0.012157 -0.018492  0.003754)
 84:   3035.42   0.006750   34.11  0.000694  ( 0.018244 -0.012607 -0.014217)
 85:   3036.60   0.018009   91.01  0.001851  ( 0.013959 -0.004931 -0.040393)
 86:   3044.09   0.007478   37.79  0.000767  (-0.006832 -0.012071 -0.023963)
 87:   3053.51   0.006104   30.85  0.000624  ( 0.002360 -0.012475  0.021510)
 88:   3063.67   0.000634    3.21  0.000065  (-0.004281 -0.005402  0.004137)
 89:   3074.56   0.009365   47.32  0.000950  ( 0.015670  0.009771  0.024688)
 90:   3083.30   0.009132   46.15  0.000924  ( 0.001294  0.006384 -0.029696)
 91:   3092.51   0.000339    1.71  0.000034  (-0.003735  0.004483 -0.000384)
 92:   3096.22   0.014170   71.61  0.001428  ( 0.029207  0.021747  0.010109)
 93:   3099.99   0.003520   17.79  0.000354  ( 0.014997  0.009095  0.006834)
 94:   3100.77   0.022730  114.87  0.002288  (-0.003223 -0.041024  0.024377)
 95:   3105.84   0.012683   64.10  0.001274  ( 0.030397  0.009957  0.015851)
 96:   3127.23   0.011609   58.67  0.001158  (-0.004588 -0.032958  0.007155)
 97:   3129.84   0.002491   12.59  0.000248  (-0.005462 -0.003708  0.014312)
 98:   3161.85   0.001725    8.72  0.000170  ( 0.000034 -0.012191 -0.004647)
 99:   3170.41   0.002741   13.85  0.000270  (-0.012446  0.008126 -0.006991)
100:   3190.37   0.000819    4.14  0.000080  ( 0.003925  0.007758 -0.002135)
101:   3192.70   0.000714    3.61  0.000070  (-0.004550  0.005558 -0.004259)

* The epsilon (eps) is given for a Dirac delta lineshape.
** The dipole moment derivative (T) already includes vibrational overlap.

The first frequency considered to be a vibration is 6
The total number of vibrations considered is 96


--------------------------
THERMOCHEMISTRY AT 298.15K
--------------------------

Temperature         ... 298.15 K
Pressure            ... 1.00 atm
Total Mass          ... 200.28 AMU

Throughout the following assumptions are being made:
  (1) The electronic state is orbitally nondegenerate
  (2) There are no thermally accessible electronically excited states
  (3) Hindered rotations indicated by low frequency modes are not
      treated as such but are treated as vibrations and this may
      cause some error
  (4) All equations used are the standard statistical mechanics
      equations for an ideal gas
  (5) All vibrations are strictly harmonic

freq.      42.25  E(vib)   ...       0.53 
freq.      47.09  E(vib)   ...       0.53 
freq.      55.24  E(vib)   ...       0.52 
freq.      75.12  E(vib)   ...       0.49 
freq.      79.31  E(vib)   ...       0.49 
freq.      85.88  E(vib)   ...       0.48 
freq.     104.90  E(vib)   ...       0.46 
freq.     127.98  E(vib)   ...       0.43 
freq.     142.44  E(vib)   ...       0.41 
freq.     159.16  E(vib)   ...       0.39 
freq.     169.05  E(vib)   ...       0.38 
freq.     204.36  E(vib)   ...       0.35 
freq.     239.53  E(vib)   ...       0.31 
freq.     248.35  E(vib)   ...       0.31 
freq.     264.47  E(vib)   ...       0.29 
freq.     278.81  E(vib)   ...       0.28 
freq.     342.30  E(vib)   ...       0.23 
freq.     360.73  E(vib)   ...       0.22 
freq.     388.37  E(vib)   ...       0.20 
freq.     428.50  E(vib)   ...       0.18 
freq.     443.53  E(vib)   ...       0.17 
freq.     458.43  E(vib)   ...       0.16 
freq.     497.97  E(vib)   ...       0.14 
freq.     579.98  E(vib)   ...       0.11 
freq.     599.69  E(vib)   ...       0.10 
freq.     634.38  E(vib)   ...       0.09 
freq.     703.12  E(vib)   ...       0.07 
freq.     738.02  E(vib)   ...       0.06 
freq.     762.04  E(vib)   ...       0.06 
freq.     797.52  E(vib)   ...       0.05 
freq.     824.68  E(vib)   ...       0.04 
freq.     918.13  E(vib)   ...       0.03 
freq.     951.07  E(vib)   ...       0.03 
freq.     958.83  E(vib)   ...       0.03 
freq.    1003.11  E(vib)   ...       0.02 
freq.    1009.51  E(vib)   ...       0.02 
freq.    1027.90  E(vib)   ...       0.02 
freq.    1062.07  E(vib)   ...       0.02 
freq.    1067.81  E(vib)   ...       0.02 
freq.    1079.23  E(vib)   ...       0.02 
freq.    1090.88  E(vib)   ...       0.02 
freq.    1135.05  E(vib)   ...       0.01 
freq.    1138.53  E(vib)   ...       0.01 
freq.    1156.81  E(vib)   ...       0.01 
freq.    1183.51  E(vib)   ...       0.01 
freq.    1201.65  E(vib)   ...       0.01 
freq.    1233.46  E(vib)   ...       0.01 
freq.    1267.39  E(vib)   ...       0.01 
freq.    1288.27  E(vib)   ...       0.01 
freq.    1293.63  E(vib)   ...       0.01 
freq.    1309.26  E(vib)   ...       0.01 
freq.    1336.60  E(vib)   ...       0.01 
freq.    1349.10  E(vib)   ...       0.01 
freq.    1370.16  E(vib)   ...       0.01 
freq.    1399.18  E(vib)   ...       0.00 
freq.    1411.02  E(vib)   ...       0.00 
freq.    1425.25  E(vib)   ...       0.00 
freq.    1430.35  E(vib)   ...       0.00 
freq.    1440.78  E(vib)   ...       0.00 
freq.    1456.59  E(vib)   ...       0.00 
freq.    1474.93  E(vib)   ...       0.00 
freq.    1485.80  E(vib)   ...       0.00 
freq.    1490.22  E(vib)   ...       0.00 
freq.    1498.79  E(vib)   ...       0.00 
freq.    1503.39  E(vib)   ...       0.00 
freq.    1504.77  E(vib)   ...       0.00 
freq.    1512.28  E(vib)   ...       0.00 
freq.    1513.26  E(vib)   ...       0.00 
freq.    1514.83  E(vib)   ...       0.00 
freq.    1518.96  E(vib)   ...       0.00 
freq.    1527.51  E(vib)   ...       0.00 
freq.    1530.10  E(vib)   ...       0.00 
freq.    1537.28  E(vib)   ...       0.00 
freq.    1555.25  E(vib)   ...       0.00 
freq.    1706.51  E(vib)   ...       0.00 
freq.    1715.44  E(vib)   ...       0.00 
freq.    3023.40  E(vib)   ...       0.00 
freq.    3031.65  E(vib)   ...       0.00 
freq.    3035.42  E(vib)   ...       0.00 
freq.    3036.60  E(vib)   ...       0.00 
freq.    3044.09  E(vib)   ...       0.00 
freq.    3053.51  E(vib)   ...       0.00 
freq.    3063.67  E(vib)   ...       0.00 
freq.    3074.56  E(vib)   ...       0.00 
freq.    3083.30  E(vib)   ...       0.00 
freq.    3092.51  E(vib)   ...       0.00 
freq.    3096.22  E(vib)   ...       0.00 
freq.    3099.99  E(vib)   ...       0.00 
freq.    3100.77  E(vib)   ...       0.00 
freq.    3105.84  E(vib)   ...       0.00 
freq.    3127.23  E(vib)   ...       0.00 
freq.    3129.84  E(vib)   ...       0.00 
freq.    3161.85  E(vib)   ...       0.00 
freq.    3170.41  E(vib)   ...       0.00 
freq.    3190.37  E(vib)   ...       0.00 
freq.    3192.70  E(vib)   ...       0.00 

------------
INNER ENERGY
------------

The inner energy is: U= E(el) + E(ZPE) + E(vib) + E(rot) + E(trans)
    E(el)   - is the total energy from the electronic structure calculation
              = E(kin-el) + E(nuc-el) + E(el-el) + E(nuc-nuc)
    E(ZPE)  - the the zero temperature vibrational energy from the frequency calculation
    E(vib)  - the the finite temperature correction to E(ZPE) due to population
              of excited vibrational states
    E(rot)  - is the rotational thermal energy
    E(trans)- is the translational thermal energy

Summary of contributions to the inner energy U:
Electronic energy                ...   -652.73999046 Eh
Zero point energy                ...      0.30158745 Eh     189.25 kcal/mol
Thermal vibrational correction   ...      0.01424547 Eh       8.94 kcal/mol
Thermal rotational correction    ...      0.00141627 Eh       0.89 kcal/mol
Thermal translational correction ...      0.00141627 Eh       0.89 kcal/mol
-----------------------------------------------------------------------
Total thermal energy                   -652.42132500 Eh


Summary of corrections to the electronic energy:
(perhaps to be used in another calculation)
Total thermal correction                  0.01707801 Eh      10.72 kcal/mol
Non-thermal (ZPE) correction              0.30158745 Eh     189.25 kcal/mol
-----------------------------------------------------------------------
Total correction                          0.31866546 Eh     199.97 kcal/mol


--------
ENTHALPY
--------

The enthalpy is H = U + kB*T
                kB is Boltzmann's constant
Total free energy                 ...   -652.42132500 Eh 
Thermal Enthalpy correction       ...      0.00094421 Eh       0.59 kcal/mol
-----------------------------------------------------------------------
Total Enthalpy                    ...   -652.42038079 Eh


Note: Only C1 symmetry has been detected, increase convergence thresholds 
      if your molecule has a higher symmetry. Symmetry factor of 1.0 is   
      used for the rotational entropy correction. 
 

Note: Rotational entropy computed according to Herzberg 
Infrared and Raman Spectra, Chapter V,1, Van Nostrand Reinhold, 1945 
Point Group:  C1, Symmetry Number:   1  
Rotational constants in cm-1:     0.021089     0.019594     0.012944 

Vibrational entropy computed according to the QRRHO of S. Grimme
Chem.Eur.J. 2012 18 9955


-------
ENTROPY
-------

The entropy contributions are T*S = T*(S(el)+S(vib)+S(rot)+S(trans))
     S(el)   - electronic entropy
     S(vib)  - vibrational entropy
     S(rot)  - rotational entropy
     S(trans)- translational entropy
The entropies will be listed as multiplied by the temperature to get
units of energy

Electronic entropy                ...      0.00000000 Eh      0.00 kcal/mol
Vibrational entropy               ...      0.02567162 Eh     16.11 kcal/mol
Rotational entropy                ...      0.01524136 Eh      9.56 kcal/mol
Translational entropy             ...      0.01985492 Eh     12.46 kcal/mol
-----------------------------------------------------------------------
Final entropy term                ...      0.06076790 Eh     38.13 kcal/mol

In case the symmetry of your molecule has not been determined correctly
or in case you have a reason to use a different symmetry number we print 
out the resulting rotational entropy values for sn=1,12 :
 --------------------------------------------------------
|  sn= 1 | S(rot)=       0.01524136 Eh      9.56 kcal/mol|
|  sn= 2 | S(rot)=       0.01458691 Eh      9.15 kcal/mol|
|  sn= 3 | S(rot)=       0.01420407 Eh      8.91 kcal/mol|
|  sn= 4 | S(rot)=       0.01393245 Eh      8.74 kcal/mol|
|  sn= 5 | S(rot)=       0.01372176 Eh      8.61 kcal/mol|
|  sn= 6 | S(rot)=       0.01354962 Eh      8.50 kcal/mol|
|  sn= 7 | S(rot)=       0.01340407 Eh      8.41 kcal/mol|
|  sn= 8 | S(rot)=       0.01327799 Eh      8.33 kcal/mol|
|  sn= 9 | S(rot)=       0.01316679 Eh      8.26 kcal/mol|
|  sn=10 | S(rot)=       0.01306731 Eh      8.20 kcal/mol|
|  sn=11 | S(rot)=       0.01297732 Eh      8.14 kcal/mol|
|  sn=12 | S(rot)=       0.01289516 Eh      8.09 kcal/mol|
 --------------------------------------------------------


-------------------
GIBBS FREE ENERGY
-------------------

The Gibbs free energy is G = H - T*S

Total enthalpy                    ...   -652.42038079 Eh 
Total entropy correction          ...     -0.06076790 Eh    -38.13 kcal/mol
-----------------------------------------------------------------------
Final Gibbs free energy         ...   -652.48114869 Eh

For completeness - the Gibbs free energy minus the electronic energy
G-E(el)                           ...      0.25884177 Eh    162.43 kcal/mol


Timings for individual modules:

Sum of individual times         ...     1363.050 sec (=  22.717 min)
GTO integral calculation        ...       13.089 sec (=   0.218 min)   1.0 %
SCF iterations                  ...      564.119 sec (=   9.402 min)  41.4 %
SCF Gradient evaluation         ...      166.494 sec (=   2.775 min)  12.2 %
Geometry relaxation             ...        0.924 sec (=   0.015 min)   0.1 %
Analytical frequency calculation...      618.424 sec (=  10.307 min)  45.4 %
                             ****ORCA TERMINATED NORMALLY****
TOTAL RUN TIME: 0 days 0 hours 22 minutes 47 seconds 721 msec
