
                                 *****************
                                 * O   R   C   A *
                                 *****************

                                            #,                                       
                                            ###                                      
                                            ####                                     
                                            #####                                    
                                            ######                                   
                                           ########,                                 
                                     ,,################,,,,,                         
                               ,,#################################,,                 
                          ,,##########################################,,             
                       ,#########################################, ''#####,          
                    ,#############################################,,   '####,        
                  ,##################################################,,,,####,       
                ,###########''''           ''''###############################       
              ,#####''   ,,,,##########,,,,          '''####'''          '####       
            ,##' ,,,,###########################,,,                        '##       
           ' ,,###''''                  '''############,,,                           
         ,,##''                                '''############,,,,        ,,,,,,###''
      ,#''                                            '''#######################'''  
     '                                                          ''''####''''         
             ,#######,   #######,   ,#######,      ##                                
            ,#'     '#,  ##    ##  ,#'     '#,    #''#        ######   ,####,        
            ##       ##  ##   ,#'  ##            #'  '#       #        #'  '#        
            ##       ##  #######   ##           ,######,      #####,   #    #        
            '#,     ,#'  ##    ##  '#,     ,#' ,#      #,         ##   #,  ,#        
             '#######'   ##     ##  '#######'  #'      '#     #####' # '####'        



                  #######################################################
                  #                        -***-                        #
                  #          Department of theory and spectroscopy      #
                  #    Directorship and core code : Frank Neese         #
                  #        Max Planck Institute fuer Kohlenforschung    #
                  #                Kaiser Wilhelm Platz 1               #
                  #                 D-45470 Muelheim/Ruhr               #
                  #                      Germany                        #
                  #                                                     #
                  #                  All rights reserved                #
                  #                        -***-                        #
                  #######################################################


                         Program Version 5.0.4 -  RELEASE  -


 With contributions from (in alphabetic order):
   Daniel Aravena         : Magnetic Suceptibility
   Michael Atanasov       : Ab Initio Ligand Field Theory (pilot matlab implementation)
   Alexander A. Auer      : GIAO ZORA, VPT2 properties, NMR spectrum
   Ute Becker             : Parallelization
   Giovanni Bistoni       : ED, misc. LED, open-shell LED, HFLD
   Martin Brehm           : Molecular dynamics
   Dmytro Bykov           : SCF Hessian
   Vijay G. Chilkuri      : MRCI spin determinant printing, contributions to CSF-ICE
   Dipayan Datta          : RHF DLPNO-CCSD density
   Achintya Kumar Dutta   : EOM-CC, STEOM-CC
   Dmitry Ganyushin       : Spin-Orbit,Spin-Spin,Magnetic field MRCI
   Miquel Garcia          : C-PCM and meta-GGA Hessian, CC/C-PCM, Gaussian charge scheme
   Yang Guo               : DLPNO-NEVPT2, F12-NEVPT2, CIM, IAO-localization
   Andreas Hansen         : Spin unrestricted coupled pair/coupled cluster methods
   Benjamin Helmich-Paris : MC-RPA, TRAH-SCF, COSX integrals
   Lee Huntington         : MR-EOM, pCC
   Robert Izsak           : Overlap fitted RIJCOSX, COSX-SCS-MP3, EOM
   Marcus Kettner         : VPT2
   Christian Kollmar      : KDIIS, OOCD, Brueckner-CCSD(T), CCSD density, CASPT2, CASPT2-K
   Simone Kossmann        : Meta GGA functionals, TD-DFT gradient, OOMP2, MP2 Hessian
   Martin Krupicka        : Initial AUTO-CI
   Lucas Lang             : DCDCAS
   Marvin Lechner         : AUTO-CI (C++ implementation), FIC-MRCC
   Dagmar Lenk            : GEPOL surface, SMD
   Dimitrios Liakos       : Extrapolation schemes; Compound Job, initial MDCI parallelization
   Dimitrios Manganas     : Further ROCIS development; embedding schemes
   Dimitrios Pantazis     : SARC Basis sets
   Anastasios Papadopoulos: AUTO-CI, single reference methods and gradients
   Taras Petrenko         : DFT Hessian,TD-DFT gradient, ASA, ECA, R-Raman, ABS, FL, XAS/XES, NRVS
   Peter Pinski           : DLPNO-MP2, DLPNO-MP2 Gradient
   Christoph Reimann      : Effective Core Potentials
   Marius Retegan         : Local ZFS, SOC
   Christoph Riplinger    : Optimizer, TS searches, QM/MM, DLPNO-CCSD(T), (RO)-DLPNO pert. Triples
   Tobias Risthaus        : Range-separated hybrids, TD-DFT gradient, RPA, STAB
   Michael Roemelt        : Original ROCIS implementation
   Masaaki Saitow         : Open-shell DLPNO-CCSD energy and density
   Barbara Sandhoefer     : DKH picture change effects
   Avijit Sen             : IP-ROCIS
   Kantharuban Sivalingam : CASSCF convergence, NEVPT2, FIC-MRCI
   Bernardo de Souza      : ESD, SOC TD-DFT
   Georgi Stoychev        : AutoAux, RI-MP2 NMR, DLPNO-MP2 response
   Willem Van den Heuvel  : Paramagnetic NMR
   Boris Wezisla          : Elementary symmetry handling
   Frank Wennmohs         : Technical directorship


 We gratefully acknowledge several colleagues who have allowed us to
 interface, adapt or use parts of their codes:
   Stefan Grimme, W. Hujo, H. Kruse, P. Pracht,  : VdW corrections, initial TS optimization,
                  C. Bannwarth, S. Ehlert          DFT functionals, gCP, sTDA/sTD-DF
   Ed Valeev, F. Pavosevic, A. Kumar             : LibInt (2-el integral package), F12 methods
   Garnet Chan, S. Sharma, J. Yang, R. Olivares  : DMRG
   Ulf Ekstrom                                   : XCFun DFT Library
   Mihaly Kallay                                 : mrcc  (arbitrary order and MRCC methods)
   Jiri Pittner, Ondrej Demel                    : Mk-CCSD
   Frank Weinhold                                : gennbo (NPA and NBO analysis)
   Christopher J. Cramer and Donald G. Truhlar   : smd solvation model
   Lars Goerigk                                  : TD-DFT with DH, B97 family of functionals
   V. Asgeirsson, H. Jonsson                     : NEB implementation
   FAccTs GmbH                                   : IRC, NEB, NEB-TS, DLPNO-Multilevel, CI-OPT
                                                   MM, QMMM, 2- and 3-layer-ONIOM, Crystal-QMMM,
                                                   LR-CPCM, SF, NACMEs, symmetry and pop. for TD-DFT,
                                                   nearIR, NL-DFT gradient (VV10), updates on ESD,
                                                   ML-optimized integration grids
   S Lehtola, MJT Oliveira, MAL Marques          : LibXC Library
   Liviu Ungur et al                             : ANISO software


 Your calculation uses the libint2 library for the computation of 2-el integrals
 For citations please refer to: http://libint.valeyev.net

 Your ORCA version has been built with support for libXC version: 5.1.0
 For citations please refer to: https://tddft.org/programs/libxc/

 This ORCA versions uses:
   CBLAS   interface :  Fast vector & matrix operations
   LAPACKE interface :  Fast linear algebra routines
   SCALAPACK package :  Parallel linear algebra routines
   Shared memory     :  Shared parallel matrices
   BLAS/LAPACK       :  OpenBLAS 0.3.15  USE64BITINT DYNAMIC_ARCH NO_AFFINITY SkylakeX SINGLE_THREADED
        Core in use  :  SkylakeX
   Copyright (c) 2011-2014, The OpenBLAS Project




***************************************
The coordinates will be read from file: /users/fjb15167/WWenergy/structures/Ni.xyz
***************************************


Your calculation utilizes the atom-pairwise dispersion correction
based on tight binding partial charges (D4)
Cite in your paper:
E.Caldeweyher, C.Bannwarth, S.Grimme, J.Chem.Phys., (2017), 147, 034112.
E.Caldeweyher, S.Ehlert, A.Hansen, H.Neugebauer, S.Grimme, J.Chem.Phys., (2018), in progress.
   

================================================================================

----- Orbital basis set information -----
Your calculation utilizes the basis: 6-31G(d)
   H-He, Li-Ne : W. J. Hehre, R. Ditchfield and J.A. Pople, J. Chem. Phys. 56, 2257 (1972).
                 Note: He and Ne are unpublished basis sets taken from the Gaussian program.
                 Note: Li and B from J. D. Dill and J. A. Pople, J. Chem. Phys. 62, 2921 (1975).
   Na - Ar     : M. M. Francl, W. J. Pietro, W. J. Hehre, J. S. Binkley, M. S. Gordon, 
                 D. J. DeFrees and J. A. Pople, J. Chem. Phys. 77, 3654 (1982).
   K - Zn      : V. A. Rassolov, J. A. Pople, M. A. Ratner, and T. L. Windus, J. Chem. Phys. 109, 1223 (1998).

----- AuxJ basis set information -----
Your calculation utilizes the AutoAux generation procedure.
  G. L. Stoychev, A. A. Auer, F. Neese, J. Chem. Theory Comput. 13, 554 (2017)

----- AuxC basis set information -----
Your calculation utilizes the AutoAux generation procedure.
  G. L. Stoychev, A. A. Auer, F. Neese, J. Chem. Theory Comput. 13, 554 (2017)

----- AuxJK basis set information -----
Your calculation utilizes the AutoAux generation procedure.
  G. L. Stoychev, A. A. Auer, F. Neese, J. Chem. Theory Comput. 13, 554 (2017)

================================================================================
                                        WARNINGS
                       Please study these warnings very carefully!
================================================================================


WARNING: Geometry Optimization
  ===> : Switching off AutoStart
         For restart on a previous wavefunction, please use MOREAD

INFO   : the flag for use of the SHARK integral package has been found!

================================================================================
                                       INPUT FILE
================================================================================
NAME = Ni_octanol.inp
|  1> ! OPT FREQ B3LYP 6-31G(d) D4 AUTOAUX
|  2> ! CPCM
|  3> 
|  4> %cpcm
|  5> epsilon 9.8629 
|  6> refrac  1.4295 
|  7> end
|  8> 
|  9> %PAL NPROCS 4 END
| 10> 
| 11> %maxcore 3375
| 12> 
| 13> *xyzfile 0 1 /users/fjb15167/WWenergy/structures/Ni.xyz
| 14> 
| 15>                          ****END OF INPUT****
================================================================================

                       *****************************
                       * Geometry Optimization Run *
                       *****************************

Geometry optimization settings:
Update method            Update   .... BFGS
Choice of coordinates    CoordSys .... Z-matrix Internals
Initial Hessian          InHess   .... Almoef's Model

Convergence Tolerances:
Energy Change            TolE     ....  5.0000e-06 Eh
Max. Gradient            TolMAXG  ....  3.0000e-04 Eh/bohr
RMS Gradient             TolRMSG  ....  1.0000e-04 Eh/bohr
Max. Displacement        TolMAXD  ....  4.0000e-03 bohr
RMS Displacement         TolRMSD  ....  2.0000e-03 bohr
Strict Convergence                ....  False
------------------------------------------------------------------------------
                        ORCA OPTIMIZATION COORDINATE SETUP
------------------------------------------------------------------------------

The optimization will be done in new redundant internal coordinates
Making redundant internal coordinates   ...  (new redundants) done
Evaluating the initial hessian          ...  (Almloef) done
Evaluating the coordinates              ...  done
Calculating the B-matrix                .... done
Calculating the G-matrix                .... done
Diagonalizing the G-matrix              .... done
Small eigenvalue found = 5.612e-03
Small eigenvalue found = 6.497e-03
Small eigenvalue found = 1.315e-02
Small eigenvalue found = 1.507e-02
The first mode is                       ....   68
The number of degrees of freedom        ....   96

    -----------------------------------------------------------------
                    Redundant Internal Coordinates


    -----------------------------------------------------------------
         Definition                    Initial Value    Approx d2E/dq
    -----------------------------------------------------------------
      1. B(H   1,C   0)                  1.0884         0.362162   
      2. B(H   2,C   0)                  1.0930         0.356098   
      3. B(H   3,C   0)                  1.0896         0.360638   
      4. B(C   4,C   0)                  1.5139         0.396281   
      5. B(O   5,C   4)                  1.2417         0.964857   
      6. B(N   6,C   4)                  1.3742         0.592976   
      7. B(C   7,N   6)                  1.4653         0.424389   
      8. B(H   8,C   7)                  1.0955         0.352960   
      9. B(H   9,C   7)                  1.0901         0.359984   
     10. B(C  10,C   7)                  1.5256         0.379619   
     11. B(N  11,C  10)                  1.3658         0.611592   
     12. B(O  12,C  10)                  1.2416         0.965367   
     13. B(C  13,N  11)                  1.4541         0.442217   
     14. B(H  14,C  13)                  1.0982         0.349352   
     15. B(H  15,C  13)                  1.0953         0.353119   
     16. B(H  16,C  13)                  1.0873         0.363647   
     17. B(C  17,N  11)                  1.4548         0.441032   
     18. B(H  18,C  17)                  1.0970         0.351019   
     19. B(H  19,C  17)                  1.0881         0.362669   
     20. B(H  20,C  17)                  1.0934         0.355618   
     21. B(C  21,N   6)                  1.4797         0.402471   
     22. B(H  22,C  21)                  1.0954         0.353083   
     23. B(C  23,C  21)                  1.5339         0.368211   
     24. B(H  24,C  23)                  1.0952         0.353263   
     25. B(H  25,C  23)                  1.0949         0.353633   
     26. B(C  26,C  23)                  1.5277         0.376763   
     27. B(H  27,C  26)                  1.0944         0.354341   
     28. B(H  28,C  26)                  1.0929         0.356223   
     29. B(H  29,C  26)                  1.0948         0.353801   
     30. B(C  30,C  21)                  1.5295         0.374272   
     31. B(H  31,C  30)                  1.0932         0.355875   
     32. B(H  32,C  30)                  1.0918         0.357761   
     33. B(H  33,C  30)                  1.0941         0.354704   
     34. A(H   1,C   0,H   2)          108.5387         0.290590   
     35. A(H   3,C   0,C   4)          106.5966         0.327563   
     36. A(H   2,C   0,C   4)          109.9045         0.326880   
     37. A(H   2,C   0,H   3)          108.2734         0.290398   
     38. A(H   1,C   0,C   4)          113.7589         0.327791   
     39. A(H   1,C   0,H   3)          109.6347         0.291169   
     40. A(C   0,C   4,N   6)          119.3183         0.395151   
     41. A(O   5,C   4,N   6)          121.5064         0.460379   
     42. A(C   0,C   4,O   5)          119.1680         0.430814   
     43. A(C   4,N   6,C  21)          128.2319         0.393699   
     44. A(C   4,N   6,C   7)          117.5111         0.397378   
     45. A(C   7,N   6,C  21)          114.1905         0.371481   
     46. A(N   6,C   7,C  10)          111.1896         0.370082   
     47. A(N   6,C   7,H   8)          109.6699         0.328131   
     48. A(N   6,C   7,H   9)          108.0865         0.329200   
     49. A(H   8,C   7,C  10)          105.3978         0.324107   
     50. A(H   8,C   7,H   9)          108.8510         0.289912   
     51. A(H   9,C   7,C  10)          113.5726         0.325158   
     52. A(N  11,C  10,O  12)          122.6092         0.463032   
     53. A(C   7,C  10,O  12)          119.2701         0.427547   
     54. A(C   7,C  10,N  11)          118.1076         0.394318   
     55. A(C  13,N  11,C  17)          115.3657         0.380091   
     56. A(C  10,N  11,C  13)          125.4279         0.402449   
     57. A(C  10,N  11,C  17)          118.5135         0.402259   
     58. A(H  14,C  13,H  16)          108.5159         0.289905   
     59. A(N  11,C  13,H  16)          111.9790         0.332004   
     60. A(H  15,C  13,H  16)          108.8008         0.290393   
     61. A(H  14,C  13,H  15)          108.1512         0.288574   
     62. A(N  11,C  13,H  15)          108.9905         0.330393   
     63. A(N  11,C  13,H  14)          110.3165         0.329808   
     64. A(H  18,C  17,H  19)          109.4592         0.289999   
     65. A(N  11,C  17,H  19)          108.4896         0.331708   
     66. A(N  11,C  17,H  18)          110.6121         0.329921   
     67. A(H  19,C  17,H  20)          110.1247         0.290592   
     68. A(H  18,C  17,H  20)          108.6479         0.289108   
     69. A(N  11,C  17,H  20)          109.5027         0.330632   
     70. A(C  23,C  21,C  30)          114.1462         0.362570   
     71. A(H  22,C  21,C  30)          106.4065         0.323372   
     72. A(N   6,C  21,C  30)          114.0846         0.365838   
     73. A(H  22,C  21,C  23)          105.8595         0.322507   
     74. A(N   6,C  21,C  23)          112.0314         0.364817   
     75. A(N   6,C  21,H  22)          103.1465         0.325297   
     76. A(H  25,C  23,C  26)          109.7298         0.323807   
     77. A(H  24,C  23,C  26)          109.3236         0.323751   
     78. A(C  21,C  23,C  26)          112.6861         0.362981   
     79. A(H  24,C  23,H  25)          106.8591         0.289143   
     80. A(C  21,C  23,H  25)          110.3853         0.322590   
     81. A(C  21,C  23,H  24)          107.6632         0.322534   
     82. A(H  28,C  26,H  29)          108.3667         0.289543   
     83. A(H  27,C  26,H  29)          107.8454         0.289303   
     84. A(C  23,C  26,H  29)          110.5109         0.323832   
     85. A(H  27,C  26,H  28)          107.5265         0.289612   
     86. A(C  23,C  26,H  28)          111.8854         0.324195   
     87. A(C  23,C  26,H  27)          110.5613         0.323913   
     88. A(H  32,C  30,H  33)          108.7441         0.289854   
     89. A(H  31,C  30,H  33)          107.8216         0.289614   
     90. A(C  21,C  30,H  33)          110.2457         0.323615   
     91. A(H  31,C  30,H  32)          107.6024         0.290004   
     92. A(C  21,C  30,H  32)          112.8266         0.324071   
     93. A(C  21,C  30,H  31)          109.4455         0.323790   
     94. D(O   5,C   4,C   0,H   1)   -142.1752         0.011664   
     95. D(O   5,C   4,C   0,H   3)    -21.2248         0.011664   
     96. D(O   5,C   4,C   0,H   2)     95.8973         0.011664   
     97. D(N   6,C   4,C   0,H   1)     38.7883         0.011664   
     98. D(N   6,C   4,C   0,H   2)    -83.1391         0.011664   
     99. D(N   6,C   4,C   0,H   3)    159.7387         0.011664   
    100. D(C   7,N   6,C   4,O   5)     -2.3886         0.028286   
    101. D(C  21,N   6,C   4,C   0)     -0.2164         0.028286   
    102. D(C  21,N   6,C   4,O   5)   -179.2295         0.028286   
    103. D(C   7,N   6,C   4,C   0)    176.6246         0.028286   
    104. D(C  10,C   7,N   6,C   4)    124.9252         0.015356   
    105. D(H   8,C   7,N   6,C  21)     58.3727         0.015356   
    106. D(H   9,C   7,N   6,C   4)     -0.3715         0.015356   
    107. D(H   9,C   7,N   6,C  21)    176.9085         0.015356   
    108. D(H   8,C   7,N   6,C   4)   -118.9074         0.015356   
    109. D(C  10,C   7,N   6,C  21)    -57.7947         0.015356   
    110. D(O  12,C  10,C   7,H   9)   -136.1336         0.010755   
    111. D(O  12,C  10,C   7,H   8)    -17.0677         0.010755   
    112. D(O  12,C  10,C   7,N   6)    101.6970         0.010755   
    113. D(N  11,C  10,C   7,H   8)    164.2114         0.010755   
    114. D(N  11,C  10,C   7,N   6)    -77.0238         0.010755   
    115. D(N  11,C  10,C   7,H   9)     45.1455         0.010755   
    116. D(C  17,N  11,C  10,C   7)    175.7429         0.030225   
    117. D(C  13,N  11,C  10,O  12)   -172.9238         0.030225   
    118. D(C  13,N  11,C  10,C   7)      5.7515         0.030225   
    119. D(C  17,N  11,C  10,O  12)     -2.9324         0.030225   
    120. D(H  15,C  13,N  11,C  10)   -135.0915         0.016676   
    121. D(H  14,C  13,N  11,C  17)    -63.9636         0.016676   
    122. D(H  15,C  13,N  11,C  17)     54.6387         0.016676   
    123. D(H  14,C  13,N  11,C  10)    106.3062         0.016676   
    124. D(H  16,C  13,N  11,C  10)    -14.6647         0.016676   
    125. D(H  16,C  13,N  11,C  17)    175.0655         0.016676   
    126. D(H  20,C  17,N  11,C  13)    -56.2232         0.016586   
    127. D(H  20,C  17,N  11,C  10)    132.7938         0.016586   
    128. D(H  19,C  17,N  11,C  13)   -176.4421         0.016586   
    129. D(H  19,C  17,N  11,C  10)     12.5749         0.016586   
    130. D(H  18,C  17,N  11,C  13)     63.4877         0.016586   
    131. D(H  18,C  17,N  11,C  10)   -107.4954         0.016586   
    132. D(C  30,C  21,N   6,C   7)   -122.8496         0.013827   
    133. D(C  30,C  21,N   6,C   4)     54.0789         0.013827   
    134. D(C  23,C  21,N   6,C   7)    105.5253         0.013827   
    135. D(C  23,C  21,N   6,C   4)    -77.5462         0.013827   
    136. D(H  22,C  21,N   6,C   7)     -7.8815         0.013827   
    137. D(H  22,C  21,N   6,C   4)    169.0471         0.013827   
    138. D(C  26,C  23,C  21,C  30)     63.9299         0.010845   
    139. D(C  26,C  23,C  21,H  22)    -52.7586         0.010845   
    140. D(C  26,C  23,C  21,N   6)   -164.4760         0.010845   
    141. D(H  25,C  23,C  21,C  30)    -59.1413         0.010845   
    142. D(H  25,C  23,C  21,H  22)   -175.8297         0.010845   
    143. D(H  25,C  23,C  21,N   6)     72.4528         0.010845   
    144. D(H  24,C  23,C  21,C  30)   -175.4390         0.010845   
    145. D(H  24,C  23,C  21,H  22)     67.8725         0.010845   
    146. D(H  24,C  23,C  21,N   6)    -43.8449         0.010845   
    147. D(H  29,C  26,C  23,H  25)    179.2990         0.011324   
    148. D(H  29,C  26,C  23,H  24)    -63.8123         0.011324   
    149. D(H  29,C  26,C  23,C  21)     55.8628         0.011324   
    150. D(H  28,C  26,C  23,H  25)     58.4464         0.011324   
    151. D(H  28,C  26,C  23,H  24)    175.3351         0.011324   
    152. D(H  28,C  26,C  23,C  21)    -64.9898         0.011324   
    153. D(H  27,C  26,C  23,H  25)    -61.3749         0.011324   
    154. D(H  27,C  26,C  23,H  24)     55.5139         0.011324   
    155. D(H  27,C  26,C  23,C  21)    175.1889         0.011324   
    156. D(H  31,C  30,C  21,N   6)    159.6022         0.011183   
    157. D(H  33,C  30,C  21,H  22)    -71.8692         0.011183   
    158. D(H  33,C  30,C  21,N   6)     41.1675         0.011183   
    159. D(H  32,C  30,C  21,C  23)     49.9664         0.011183   
    160. D(H  32,C  30,C  21,H  22)    166.3379         0.011183   
    161. D(H  32,C  30,C  21,N   6)    -80.6255         0.011183   
    162. D(H  31,C  30,C  21,C  23)    -69.8059         0.011183   
    163. D(H  33,C  30,C  21,C  23)    171.7593         0.011183   
    164. D(H  31,C  30,C  21,H  22)     46.5656         0.011183   
    -----------------------------------------------------------------

Number of atoms                         .... 34
Number of degrees of freedom            .... 164

         *************************************************************
         *                GEOMETRY OPTIMIZATION CYCLE   1            *
         *************************************************************
---------------------------------
CARTESIAN COORDINATES (ANGSTROEM)
---------------------------------
  C     -2.586000   -1.487000   -0.907000
  H     -2.589000   -0.598000   -1.535000
  H     -3.465000   -1.457000   -0.258000
  H     -2.653000   -2.377000   -1.532000
  C     -1.333000   -1.639000   -0.071000
  O     -0.856000   -2.772000    0.104000
  N     -0.761000   -0.524000    0.493000
  C      0.406000   -0.725000    1.356000
  H      0.183000   -0.367000    2.367000
  H      0.615000   -1.794000    1.399000
  C      1.592000    0.110000    0.883000
  N      2.295000   -0.328000   -0.203000
  O      1.867000    1.165000    1.477000
  C      1.942000   -1.470000   -1.031000
  H      1.546000   -1.132000   -1.998000
  H      2.842000   -2.065000   -1.220000
  H      1.197000   -2.103000   -0.555000
  C      3.368000    0.508000   -0.719000
  H      3.074000    0.971000   -1.669000
  H      3.582000    1.285000    0.012000
  H      4.258000   -0.104000   -0.889000
  C     -1.209000    0.883000    0.397000
  H     -0.594000    1.392000    1.147000
  C     -0.836000    1.515000   -0.950000
  H      0.195000    1.225000   -1.179000
  H     -1.465000    1.109000   -1.749000
  C     -0.941000    3.039000   -0.935000
  H     -0.587000    3.458000   -1.882000
  H     -1.971000    3.375000   -0.791000
  H     -0.326000    3.458000   -0.132000
  C     -2.665000    1.104000    0.810000
  H     -2.816000    2.157000    1.062000
  H     -3.373000    0.849000    0.019000
  H     -2.901000    0.510000    1.698000

----------------------------
CARTESIAN COORDINATES (A.U.)
----------------------------
  NO LB      ZA    FRAG     MASS         X           Y           Z
   0 C     6.0000    0    12.011   -4.886832   -2.810023   -1.713982
   1 H     1.0000    0     1.008   -4.892501   -1.130056   -2.900730
   2 H     1.0000    0     1.008   -6.547901   -2.753331   -0.487549
   3 H     1.0000    0     1.008   -5.013443   -4.491879   -2.895060
   4 C     6.0000    0    12.011   -2.519005   -3.097261   -0.134171
   5 O     8.0000    0    15.999   -1.617606   -5.238321    0.196532
   6 N     7.0000    0    14.007   -1.438082   -0.990216    0.931635
   7 C     6.0000    0    12.011    0.767229   -1.370051    2.562469
   8 H     1.0000    0     1.008    0.345820   -0.693529    4.472982
   9 H     1.0000    0     1.008    1.162182   -3.390169    2.643727
  10 C     6.0000    0    12.011    3.008444    0.207870    1.668628
  11 N     7.0000    0    14.007    4.336921   -0.619830   -0.383614
  12 O     8.0000    0    15.999    3.528119    2.201531    2.791125
  13 C     6.0000    0    12.011    3.669848   -2.777897   -1.948308
  14 H     1.0000    0     1.008    2.921517   -2.139170   -3.775673
  15 H     1.0000    0     1.008    5.370602   -3.902284   -2.305466
  16 H     1.0000    0     1.008    2.262002   -3.974094   -1.048798
  17 C     6.0000    0    12.011    6.364598    0.959981   -1.358713
  18 H     1.0000    0     1.008    5.809018    1.834924   -3.153953
  19 H     1.0000    0     1.008    6.768999    2.428298    0.022677
  20 H     1.0000    0     1.008    8.046454   -0.196532   -1.679967
  21 C     6.0000    0    12.011   -2.284679    1.668628    0.750221
  22 H     1.0000    0     1.008   -1.122497    2.630499    2.167516
  23 C     6.0000    0    12.011   -1.579811    2.862935   -1.795240
  24 H     1.0000    0     1.008    0.368497    2.314915   -2.227987
  25 H     1.0000    0     1.008   -2.768449    2.095706   -3.305131
  26 C     6.0000    0    12.011   -1.778232    5.742878   -1.766894
  27 H     1.0000    0     1.008   -1.109269    6.534673   -3.556465
  28 H     1.0000    0     1.008   -3.724650    6.377826   -1.494773
  29 H     1.0000    0     1.008   -0.616051    6.534673   -0.249444
  30 C     6.0000    0    12.011   -5.036120    2.086258    1.530678
  31 H     1.0000    0     1.008   -5.321469    4.076139    2.006889
  32 H     1.0000    0     1.008   -6.374046    1.604377    0.035905
  33 H     1.0000    0     1.008   -5.482096    0.963760    3.208755

--------------------------------
INTERNAL COORDINATES (ANGSTROEM)
--------------------------------
 C      0   0   0     0.000000000000     0.00000000     0.00000000
 H      1   0   0     1.088445680776     0.00000000     0.00000000
 H      1   2   0     1.093042542630   108.53870737     0.00000000
 H      1   2   3     1.089593502183   109.63465752   118.08430171
 C      1   2   3     1.513938241805   113.75885438   237.31933208
 O      5   1   2     1.241709708426   119.16800064   217.82480087
 N      5   1   2     1.374228874678   119.31834807    38.78832469
 C      7   5   1     1.465284613991   117.51113731   176.62461646
 H      8   7   5     1.095451505088   109.66990437   241.09262925
 H      8   7   5     1.090087611158   108.08645554   359.62849422
 C      8   7   5     1.525631016989   111.18961397   124.92523544
 N     11   8   7     1.365814409061   118.10763609   282.97616381
 O     11   8   7     1.241565946698   119.27012939   101.69701544
 C     12  11   8     1.454082872466   125.42790647     5.75152915
 H     14  12  11     1.098248150465   110.31649823   106.30618850
 H     14  12  11     1.095329174267   108.99048089   224.90845482
 H     14  12  11     1.087331596156   111.97903890   345.33525958
 C     12  11   8     1.454813046408   118.51346465   175.74291762
 H     18  12  11     1.096952596970   110.61210741   252.50462279
 H     18  12  11     1.088065255396   108.48955955    12.57487093
 H     18  12  11     1.093409346951   109.50265052   132.79378444
 C      7   5   1     1.479719230124   128.23185601   359.78363163
 H     22   7   5     1.095356562951   103.14653343   169.04709477
 C     22   7   5     1.533936765320   112.03135468   282.45384468
 H     24  22   7     1.095217786561   107.66320303   316.15505636
 H     24  22   7     1.094932874655   110.38533669    72.45276824
 C     24  22   7     1.527686486161   112.68610338   195.52395930
 H     27  24  22     1.094388413681   110.56131218   175.18894722
 H     27  24  22     1.092946476274   111.88535208   295.01019994
 H     27  24  22     1.094803635361   110.51091021    55.86277772
 C     22   7   5     1.529492072552   114.08463138    54.07894713
 H     31  22   7     1.093212696597   109.44547631   159.60221583
 H     31  22   7     1.091773786093   112.82655810   279.37452121
 H     31  22   7     1.094109683715   110.24571603    41.16746236

---------------------------
INTERNAL COORDINATES (A.U.)
---------------------------
 C      0   0   0     0.000000000000     0.00000000     0.00000000
 H      1   0   0     2.056864248316     0.00000000     0.00000000
 H      1   2   0     2.065551058296   108.53870737     0.00000000
 H      1   2   3     2.059033316427   109.63465752   118.08430171
 C      1   2   3     2.860928660682   113.75885438   237.31933208
 O      5   1   2     2.346491286757   119.16800064   217.82480087
 N      5   1   2     2.596916218469   119.31834807    38.78832469
 C      7   5   1     2.768986628692   117.51113731   176.62461646
 H      8   7   5     2.070103337609   109.66990437   241.09262925
 H      8   7   5     2.059967047069   108.08645554   359.62849422
 C      8   7   5     2.883024803526   111.18961397   124.92523544
 N     11   8   7     2.581015182890   118.10763609   282.97616381
 O     11   8   7     2.346219616462   119.27012939   101.69701544
 C     12  11   8     2.747818404987   125.42790647     5.75152915
 H     14  12  11     2.075388231465   110.31649823   106.30618850
 H     14  12  11     2.069872165858   108.99048089   224.90845482
 H     14  12  11     2.054758933495   111.97903890   345.33525958
 C     12  11   8     2.749198233767   118.51346465   175.74291762
 H     18  12  11     2.072939990168   110.61210741   252.50462279
 H     18  12  11     2.056145348534   108.48955955    12.57487093
 H     18  12  11     2.066244218007   109.50265052   132.79378444
 C      7   5   1     2.796264100032   128.23185601   359.78363163
 H     22   7   5     2.069923922971   103.14653343   169.04709477
 C     22   7   5     2.898720393208   112.03135468   282.45384468
 H     24  22   7     2.069661673600   107.66320303   316.15505636
 H     24  22   7     2.069123268125   110.38533669    72.45276824
 C     24  22   7     2.886909077337   112.68610338   195.52395930
 H     27  24  22     2.068094385994   110.56131218   175.18894722
 H     27  24  22     2.065369519192   111.88535208   295.01019994
 H     27  24  22     2.068879041254   110.51091021    55.86277772
 C     22   7   5     2.890321141127   114.08463138    54.07894713
 H     31  22   7     2.065872602693   109.44547631   159.60221583
 H     31  22   7     2.063153455910   112.82655810   279.37452121
 H     31  22   7     2.067567662693   110.24571603    41.16746236

---------------------
BASIS SET INFORMATION
---------------------
There are 4 groups of distinct atoms

 Group   1 Type C   : 10s4p1d contracted to 3s2p1d pattern {631/31/1}
 Group   2 Type H   : 4s contracted to 2s pattern {31}
 Group   3 Type O   : 10s4p1d contracted to 3s2p1d pattern {631/31/1}
 Group   4 Type N   : 10s4p1d contracted to 3s2p1d pattern {631/31/1}

Atom   0C    basis set group =>   1
Atom   1H    basis set group =>   2
Atom   2H    basis set group =>   2
Atom   3H    basis set group =>   2
Atom   4C    basis set group =>   1
Atom   5O    basis set group =>   3
Atom   6N    basis set group =>   4
Atom   7C    basis set group =>   1
Atom   8H    basis set group =>   2
Atom   9H    basis set group =>   2
Atom  10C    basis set group =>   1
Atom  11N    basis set group =>   4
Atom  12O    basis set group =>   3
Atom  13C    basis set group =>   1
Atom  14H    basis set group =>   2
Atom  15H    basis set group =>   2
Atom  16H    basis set group =>   2
Atom  17C    basis set group =>   1
Atom  18H    basis set group =>   2
Atom  19H    basis set group =>   2
Atom  20H    basis set group =>   2
Atom  21C    basis set group =>   1
Atom  22H    basis set group =>   2
Atom  23C    basis set group =>   1
Atom  24H    basis set group =>   2
Atom  25H    basis set group =>   2
Atom  26C    basis set group =>   1
Atom  27H    basis set group =>   2
Atom  28H    basis set group =>   2
Atom  29H    basis set group =>   2
Atom  30C    basis set group =>   1
Atom  31H    basis set group =>   2
Atom  32H    basis set group =>   2
Atom  33H    basis set group =>   2
---------------------------------
AUXILIARY/J BASIS SET INFORMATION
---------------------------------
There are 4 groups of distinct atoms

 Group   1 Type C   : 13s11p10d2f contracted to 13s11p10d2f pattern {1111111111111/11111111111/1111111111/11}
 Group   2 Type H   : 9s2p contracted to 9s2p pattern {111111111/11}
 Group   3 Type O   : 14s11p10d2f contracted to 14s11p10d2f pattern {11111111111111/11111111111/1111111111/11}
 Group   4 Type N   : 14s11p10d2f contracted to 14s11p10d2f pattern {11111111111111/11111111111/1111111111/11}

Atom   0C    basis set group =>   1
Atom   1H    basis set group =>   2
Atom   2H    basis set group =>   2
Atom   3H    basis set group =>   2
Atom   4C    basis set group =>   1
Atom   5O    basis set group =>   3
Atom   6N    basis set group =>   4
Atom   7C    basis set group =>   1
Atom   8H    basis set group =>   2
Atom   9H    basis set group =>   2
Atom  10C    basis set group =>   1
Atom  11N    basis set group =>   4
Atom  12O    basis set group =>   3
Atom  13C    basis set group =>   1
Atom  14H    basis set group =>   2
Atom  15H    basis set group =>   2
Atom  16H    basis set group =>   2
Atom  17C    basis set group =>   1
Atom  18H    basis set group =>   2
Atom  19H    basis set group =>   2
Atom  20H    basis set group =>   2
Atom  21C    basis set group =>   1
Atom  22H    basis set group =>   2
Atom  23C    basis set group =>   1
Atom  24H    basis set group =>   2
Atom  25H    basis set group =>   2
Atom  26C    basis set group =>   1
Atom  27H    basis set group =>   2
Atom  28H    basis set group =>   2
Atom  29H    basis set group =>   2
Atom  30C    basis set group =>   1
Atom  31H    basis set group =>   2
Atom  32H    basis set group =>   2
Atom  33H    basis set group =>   2
---------------------------------
AUXILIARY/C BASIS SET INFORMATION
---------------------------------
There are 4 groups of distinct atoms

 Group   1 Type C   : 13s11p10d2f contracted to 13s11p10d2f pattern {1111111111111/11111111111/1111111111/11}
 Group   2 Type H   : 9s2p contracted to 9s2p pattern {111111111/11}
 Group   3 Type O   : 14s11p10d2f contracted to 14s11p10d2f pattern {11111111111111/11111111111/1111111111/11}
 Group   4 Type N   : 14s11p10d2f contracted to 14s11p10d2f pattern {11111111111111/11111111111/1111111111/11}

Atom   0C    basis set group =>   1
Atom   1H    basis set group =>   2
Atom   2H    basis set group =>   2
Atom   3H    basis set group =>   2
Atom   4C    basis set group =>   1
Atom   5O    basis set group =>   3
Atom   6N    basis set group =>   4
Atom   7C    basis set group =>   1
Atom   8H    basis set group =>   2
Atom   9H    basis set group =>   2
Atom  10C    basis set group =>   1
Atom  11N    basis set group =>   4
Atom  12O    basis set group =>   3
Atom  13C    basis set group =>   1
Atom  14H    basis set group =>   2
Atom  15H    basis set group =>   2
Atom  16H    basis set group =>   2
Atom  17C    basis set group =>   1
Atom  18H    basis set group =>   2
Atom  19H    basis set group =>   2
Atom  20H    basis set group =>   2
Atom  21C    basis set group =>   1
Atom  22H    basis set group =>   2
Atom  23C    basis set group =>   1
Atom  24H    basis set group =>   2
Atom  25H    basis set group =>   2
Atom  26C    basis set group =>   1
Atom  27H    basis set group =>   2
Atom  28H    basis set group =>   2
Atom  29H    basis set group =>   2
Atom  30C    basis set group =>   1
Atom  31H    basis set group =>   2
Atom  32H    basis set group =>   2
Atom  33H    basis set group =>   2
----------------------------------
AUXILIARY/JK BASIS SET INFORMATION
----------------------------------
There are 4 groups of distinct atoms

 Group   1 Type C   : 13s11p10d2f contracted to 13s11p10d2f pattern {1111111111111/11111111111/1111111111/11}
 Group   2 Type H   : 9s2p contracted to 9s2p pattern {111111111/11}
 Group   3 Type O   : 14s11p10d2f contracted to 14s11p10d2f pattern {11111111111111/11111111111/1111111111/11}
 Group   4 Type N   : 14s11p10d2f contracted to 14s11p10d2f pattern {11111111111111/11111111111/1111111111/11}

Atom   0C    basis set group =>   1
Atom   1H    basis set group =>   2
Atom   2H    basis set group =>   2
Atom   3H    basis set group =>   2
Atom   4C    basis set group =>   1
Atom   5O    basis set group =>   3
Atom   6N    basis set group =>   4
Atom   7C    basis set group =>   1
Atom   8H    basis set group =>   2
Atom   9H    basis set group =>   2
Atom  10C    basis set group =>   1
Atom  11N    basis set group =>   4
Atom  12O    basis set group =>   3
Atom  13C    basis set group =>   1
Atom  14H    basis set group =>   2
Atom  15H    basis set group =>   2
Atom  16H    basis set group =>   2
Atom  17C    basis set group =>   1
Atom  18H    basis set group =>   2
Atom  19H    basis set group =>   2
Atom  20H    basis set group =>   2
Atom  21C    basis set group =>   1
Atom  22H    basis set group =>   2
Atom  23C    basis set group =>   1
Atom  24H    basis set group =>   2
Atom  25H    basis set group =>   2
Atom  26C    basis set group =>   1
Atom  27H    basis set group =>   2
Atom  28H    basis set group =>   2
Atom  29H    basis set group =>   2
Atom  30C    basis set group =>   1
Atom  31H    basis set group =>   2
Atom  32H    basis set group =>   2
Atom  33H    basis set group =>   2


           ************************************************************
           *        Program running with 4 parallel MPI-processes     *
           *              working on a common directory               *
           ************************************************************
------------------------------------------------------------------------------
                           ORCA GTO INTEGRAL CALCULATION
                           -- RI-GTO INTEGRALS CHOSEN --
------------------------------------------------------------------------------
------------------------------------------------------------------------------
                   ___                                                        
                  /   \      - P O W E R E D   B Y -                         
                 /     \                                                     
                 |  |  |   _    _      __       _____    __    __             
                 |  |  |  | |  | |    /  \     |  _  \  |  |  /  |          
                  \  \/   | |  | |   /    \    | | | |  |  | /  /          
                 / \  \   | |__| |  /  /\  \   | |_| |  |  |/  /          
                |  |  |   |  __  | /  /__\  \  |    /   |      \           
                |  |  |   | |  | | |   __   |  |    \   |  |\   \          
                \     /   | |  | | |  |  |  |  | |\  \  |  | \   \       
                 \___/    |_|  |_| |__|  |__|  |_| \__\ |__|  \__/        
                                                                              
                      - O R C A' S   B I G   F R I E N D -                    
                                      &                                       
                       - I N T E G R A L  F E E D E R -                       
                                                                              
 v1 FN, 2020, v2 2021                                                         
------------------------------------------------------------------------------


Reading SHARK input file Ni_octanol.SHARKINP.tmp ... ok
----------------------
SHARK INTEGRAL PACKAGE
----------------------

Number of atoms                             ...     34
Number of basis functions                   ...    236
Number of shells                            ...    124
Maximum angular momentum                    ...      2
Integral batch strategy                     ... SHARK/LIBINT Hybrid
RI-J (if used) integral strategy            ... SPLIT-RIJ (Revised 2003 algorithm where possible)
Printlevel                                  ...      1
Contraction scheme used                     ... SEGMENTED contraction
Coulomb Range Separation                    ... NOT USED
Exchange Range Separation                   ... NOT USED
Finite Nucleus Model                        ... NOT USED
Auxiliary Coulomb fitting basis             ... AVAILABLE
   # of basis functions in Aux-J            ...   1844
   # of shells in Aux-J                     ...    728
   Maximum angular momentum in Aux-J        ...      3
Auxiliary J/K fitting basis                 ... AVAILABLE
   # of basis functions in Aux-JK           ...   1844
   # of shells in Aux-JK                    ...    728
   Maximum angular momentum in Aux-JK       ...      3
Auxiliary Correlation fitting basis         ... AVAILABLE
   # of basis functions in Aux-C            ...   1844
   # of shells in Aux-C                     ...    728
   Maximum angular momentum in Aux-C        ...      3
Auxiliary 'external' fitting basis          ... NOT available
Integral threshold                          ...     2.500000e-11
Primitive cut-off                           ...     2.500000e-12
Primitive pair pre-selection threshold      ...     2.500000e-12

Calculating pre-screening integrals         ... done (  0.0 sec) Dimension = 124
Organizing shell pair data                  ... done (  1.1 sec)
Shell pair information
Total number of shell pairs                 ...      7750
Shell pairs after pre-screening             ...      6863
Total number of primitive shell pairs       ...     42549
Primitive shell pairs kept                  ...     22280
          la=0 lb=0:   2912 shell pairs
          la=1 lb=0:   2132 shell pairs
          la=1 lb=1:    398 shell pairs
          la=2 lb=0:    961 shell pairs
          la=2 lb=1:    369 shell pairs
          la=2 lb=2:     91 shell pairs

Calculating one electron integrals          ... done (  0.0 sec)
Calculating RI/J V-Matrix + Cholesky decomp.... done (  0.2 sec)
Calculating RI/JK V-Matrix + Cholesky decomp... done (  0.2 sec)
Calculating RI/C V-Matrix + Cholesky decomp.... done (  0.3 sec)
Calculating Nuclear repulsion               ... done (  0.0 sec) ENN=   1014.900127189518 Eh

SHARK setup successfully completed in   2.2 seconds

Maximum memory used throughout the entire GTOINT-calculation: 31.1 MB


           ************************************************************
           *        Program running with 4 parallel MPI-processes     *
           *              working on a common directory               *
           ************************************************************
-------------------------------------------------------------------------------
                                 ORCA SCF
-------------------------------------------------------------------------------

------------
SCF SETTINGS
------------
Hamiltonian:
 Density Functional     Method          .... DFT(GTOs)
 Exchange Functional    Exchange        .... B88
   X-Alpha parameter    XAlpha          ....  0.666667
   Becke's b parameter  XBeta           ....  0.004200
 Correlation Functional Correlation     .... LYP
 LDA part of GGA corr.  LDAOpt          .... VWN-5
 Gradients option       PostSCFGGA      .... off
 Hybrid DFT is turned on
   Fraction HF Exchange ScalHFX         ....  0.200000
   Scaling of DF-GGA-X  ScalDFX         ....  0.720000
   Scaling of DF-GGA-C  ScalDFC         ....  0.810000
   Scaling of DF-LDA-C  ScalLDAC        ....  1.000000
   Perturbative correction              ....  0.000000
   Density functional embedding theory  .... OFF
   NL short-range parameter             ....  4.800000
 RI-approximation to the Coulomb term is turned on
   Number of AuxJ basis functions       .... 1844
   RIJ-COSX (HFX calculated with COS-X)).... on


General Settings:
 Integral files         IntName         .... Ni_octanol
 Hartree-Fock type      HFTyp           .... RHF
 Total Charge           Charge          ....    0
 Multiplicity           Mult            ....    1
 Number of Electrons    NEL             ....  110
 Basis Dimension        Dim             ....  236
 Nuclear Repulsion      ENuc            ....   1014.9001271895 Eh

Convergence Acceleration:
 DIIS                   CNVDIIS         .... on
   Start iteration      DIISMaxIt       ....    12
   Startup error        DIISStart       ....  0.200000
   # of expansion vecs  DIISMaxEq       ....     5
   Bias factor          DIISBfac        ....   1.050
   Max. coefficient     DIISMaxC        ....  10.000
 Trust-Rad. Augm. Hess. CNVTRAH         .... auto
   Auto Start mean grad. ratio tolernc. ....  1.125000
   Auto Start start iteration           ....    20
   Auto Start num. interpolation iter.  ....    10
   Max. Number of Micro iterations      ....    16
   Max. Number of Macro iterations      .... Maxiter - #DIIS iter
   Number of Davidson start vectors     ....     2
   Converg. threshold I  (grad. norm)   ....   1.000e-05
   Converg. threshold II (energy diff.) ....   1.000e-08
   Grad. Scal. Fac. for Micro threshold ....   0.100
   Minimum threshold for Micro iter.    ....   0.010
   NR start threshold (gradient norm)   ....   0.001
   Initial trust radius                 ....   0.400
   Minimum AH scaling param. (alpha)    ....   1.000
   Maximum AH scaling param. (alpha)    .... 1000.000
   Orbital update algorithm             .... Taylor
   White noise on init. David. guess    .... on
   Maximum white noise                  ....   0.010
   Quad. conv. algorithm                .... NR
 SOSCF                  CNVSOSCF        .... on
   Start iteration      SOSCFMaxIt      ....   150
   Startup grad/error   SOSCFStart      ....  0.003300
 Level Shifting         CNVShift        .... on
   Level shift para.    LevelShift      ....    0.2500
   Turn off err/grad.   ShiftErr        ....    0.0010
 Zerner damping         CNVZerner       .... off
 Static damping         CNVDamp         .... on
   Fraction old density DampFac         ....    0.7000
   Max. Damping (<1)    DampMax         ....    0.9800
   Min. Damping (>=0)   DampMin         ....    0.0000
   Turn off err/grad.   DampErr         ....    0.1000
 Fernandez-Rico         CNVRico         .... off

SCF Procedure:
 Maximum # iterations   MaxIter         ....   125
 SCF integral mode      SCFMode         .... Direct
   Integral package                     .... SHARK and LIBINT hybrid scheme
 Reset frequency        DirectResetFreq ....    20
 Integral Threshold     Thresh          ....  2.500e-11 Eh
 Primitive CutOff       TCut            ....  2.500e-12 Eh

Convergence Tolerance:
 Convergence Check Mode ConvCheckMode   .... Total+1el-Energy
 Convergence forced     ConvForced      .... 0
 Energy Change          TolE            ....  1.000e-08 Eh
 1-El. energy change                    ....  1.000e-05 Eh
 Orbital Gradient       TolG            ....  1.000e-05
 Orbital Rotation angle TolX            ....  1.000e-05
 DIIS Error             TolErr          ....  5.000e-07


Diagonalization of the overlap matrix:
Smallest eigenvalue                        ... 3.078e-03
Time for diagonalization                   ...    0.009 sec
Threshold for overlap eigenvalues          ... 1.000e-08
Number of eigenvalues below threshold      ... 0
Time for construction of square roots      ...    0.005 sec
Total time needed                          ...    0.015 sec

Time for model grid setup =    0.252 sec

------------------------------
INITIAL GUESS: MODEL POTENTIAL
------------------------------
Loading Hartree-Fock densities                     ... done
Calculating cut-offs                               ... done
Initializing the effective Hamiltonian             ... done
Setting up the integral package (SHARK)            ... done
Starting the Coulomb interaction                   ... done (   0.2 sec)
Reading the grid                                   ... done
Mapping shells                                     ... done
Starting the XC term evaluation                    ... done (   0.2 sec)
  promolecular density results
     # of electrons  =    109.978183819
     EX              =    -86.925642766
     EC              =     -3.679143140
     EX+EC           =    -90.604785905
Transforming the Hamiltonian                       ... done (   0.0 sec)
Diagonalizing the Hamiltonian                      ... done (   0.0 sec)
Back transforming the eigenvectors                 ... done (   0.0 sec)
Now organizing SCF variables                       ... done
                      ------------------
                      INITIAL GUESS DONE (   0.6 sec)
                      ------------------
-------------------
DFT GRID GENERATION
-------------------

General Integration Accuracy     IntAcc      ... 4.388
Radial Grid Type                 RadialGrid  ... OptM3 with GC (2021)
Angular Grid (max. ang.)         AngularGrid ... 4 (Lebedev-302)
Angular grid pruning method      GridPruning ... 4 (adaptive)
Weight generation scheme         WeightScheme... Becke
Basis function cutoff            BFCut       ... 1.0000e-11
Integration weight cutoff        WCut        ... 1.0000e-14
Angular grids for H and He will be reduced by one unit
Partially contracted basis set               ... off
Rotationally invariant grid construction     ... off

Total number of grid points                  ...   147012
Total number of batches                      ...     2314
Average number of points per batch           ...       63
Average number of grid points per atom       ...     4324
Time for grid setup =    1.164 sec

--------------------
COSX GRID GENERATION
--------------------

GRIDX 1
-------
General Integration Accuracy     IntAcc      ... 3.816
Radial Grid Type                 RadialGrid  ... OptM3 with GC (2021)
Angular Grid (max. ang.)         AngularGrid ... 1 (Lebedev-50)
Angular grid pruning method      GridPruning ... 4 (adaptive)
Weight generation scheme         WeightScheme... Becke
Basis function cutoff            BFCut       ... 1.0000e-11
Integration weight cutoff        WCut        ... 1.0000e-14
Angular grids for H and He will be reduced by one unit
Partially contracted basis set               ... on
Rotationally invariant grid construction     ... off

Total number of grid points                  ...    18751
Total number of batches                      ...      313
Average number of points per batch           ...       59
Average number of grid points per atom       ...      552
UseSFitting                                  ... on

GRIDX 2
-------
General Integration Accuracy     IntAcc      ... 4.020
Radial Grid Type                 RadialGrid  ... OptM3 with GC (2021)
Angular Grid (max. ang.)         AngularGrid ... 2 (Lebedev-110)
Angular grid pruning method      GridPruning ... 4 (adaptive)
Weight generation scheme         WeightScheme... Becke
Basis function cutoff            BFCut       ... 1.0000e-11
Integration weight cutoff        WCut        ... 1.0000e-14
Angular grids for H and He will be reduced by one unit
Partially contracted basis set               ... on
Rotationally invariant grid construction     ... off

Total number of grid points                  ...    39200
Total number of batches                      ...      628
Average number of points per batch           ...       62
Average number of grid points per atom       ...     1153
UseSFitting                                  ... on

GRIDX 3
-------
General Integration Accuracy     IntAcc      ... 4.338
Radial Grid Type                 RadialGrid  ... OptM3 with GC (2021)
Angular Grid (max. ang.)         AngularGrid ... 3 (Lebedev-194)
Angular grid pruning method      GridPruning ... 4 (adaptive)
Weight generation scheme         WeightScheme... Becke
Basis function cutoff            BFCut       ... 1.0000e-11
Integration weight cutoff        WCut        ... 1.0000e-14
Angular grids for H and He will be reduced by one unit
Partially contracted basis set               ... on
Rotationally invariant grid construction     ... off

Total number of grid points                  ...    85275
Total number of batches                      ...     1351
Average number of points per batch           ...       63
Average number of grid points per atom       ...     2508
UseSFitting                                  ... on

Time for X-Grid setup             =    1.169 sec


--------------------
CPCM SOLVATION MODEL
--------------------
CPCM parameters:
  Epsilon                                         ...       9.8629
  Refrac                                          ...       1.4295
  Rsolv                                           ...       1.3000
  Surface type                                    ... GAUSSIAN VDW
  Epsilon function type                           ...         CPCM
Radii:
 Radius for C  used is    3.8550 Bohr (=   2.0400 Ang.)
 Radius for H  used is    2.4944 Bohr (=   1.3200 Ang.)
 Radius for O  used is    3.4469 Bohr (=   1.8240 Ang.)
 Radius for N  used is    3.5149 Bohr (=   1.8600 Ang.)
Calculating surface                               ...        done! (  0.0s)
GEPOL surface points                              ...         1729
GEPOL Volume                                      ...    1772.2364
GEPOL Surface-area                                ...     927.2863
Calculating surface distance matrix               ...        done! (  0.0s)
Performing Cholesky decomposition & store         ...        done! (  0.1s)
Overall time for CPCM initialization              ...                 0.2s
--------------
SCF ITERATIONS
--------------
ITER       Energy         Delta-E        Max-DP      RMS-DP      [F,P]     Damp
               ***  Starting incremental Fock matrix formation  ***
  0   -652.2173322739   0.000000000000 0.09448797  0.00217893  0.2727376 0.7000
  1   -652.4332460827  -0.215913808807 0.05313708  0.00146668  0.1099365 0.7000
                               ***Turning on DIIS***
  2   -652.5163226888  -0.083076606110 0.06408992  0.00229745  0.0374170 0.0000
  3   -652.6471853148  -0.130862626050 0.03549270  0.00099281  0.0536273 0.0000
  4   -652.6756700237  -0.028484708817 0.00870161  0.00033375  0.0119356 0.0000
  5   -652.6775379988  -0.001867975159 0.00400374  0.00010151  0.0064080 0.0000
                      *** Initiating the SOSCF procedure ***
                           *** Shutting down DIIS ***
                      *** Re-Reading the Fockian *** 
                      *** Removing any level shift *** 
ITER      Energy       Delta-E        Grad      Rot      Max-DP    RMS-DP
  6   -652.67768247  -0.0001444697  0.000264  0.000264  0.001218  0.000043
               *** Restarting incremental Fock matrix formation ***
  7   -652.67765181   0.0000306605  0.000230  0.000849  0.001454  0.000026
  8   -652.67764686   0.0000049475  0.000402  0.000605  0.000946  0.000016
  9   -652.67765491  -0.0000080517  0.000058  0.000160  0.000247  0.000006
 10   -652.67765463   0.0000002772  0.000119  0.000108  0.000183  0.000004
 11   -652.67765502  -0.0000003870  0.000007  0.000010  0.000026  0.000001
 12   -652.67765502   0.0000000051  0.000008  0.000005  0.000012  0.000000
                  ***Gradient check signals convergence***
              ***Rediagonalizing the Fockian in SOSCF/NRSCF***

               *****************************************************
               *                     SUCCESS                       *
               *           SCF CONVERGED AFTER  13 CYCLES          *
               *****************************************************

Old exchange energy                            =    -17.751670977 Eh
New exchange energy                            =    -17.751685716 Eh
Exchange energy change after final integration =     -0.000014739 Eh
Total energy after final integration           =   -652.677669750 Eh
Final COS-X integration done in                =     9.962 sec

----------------
TOTAL SCF ENERGY
----------------

Total Energy       :         -652.67766975 Eh          -17760.26231 eV

Components:
Nuclear Repulsion  :         1014.90012719 Eh           27616.83647 eV
Electronic Energy  :        -1667.57779694 Eh          -45377.09878 eV
One Electron Energy:        -2901.64725606 Eh          -78957.83598 eV
Two Electron Energy:         1234.06945912 Eh           33580.73719 eV
Max COSX asymmetry :            0.00000296 Eh               0.00008 eV
CPCM Dielectric    :           -0.01556826 Eh              -0.42363 eV

Virial components:
Potential Energy   :        -1301.54626270 Eh          -35416.87437 eV
Kinetic Energy     :          648.86859295 Eh           17656.61206 eV
Virial Ratio       :            2.00587034


DFT components:
N(Alpha)           :       54.999890870046 electrons
N(Beta)            :       54.999890870046 electrons
N(Total)           :      109.999781740093 electrons
E(X)               :      -70.454444358963 Eh       
E(C)               :       -4.337580412159 Eh       
E(XC)              :      -74.792024771122 Eh       
DFET-embed. en.    :        0.000000000000 Eh       
CPCM Solvation Model Properties:
Surface-charge          :           -0.02204971
Charge-correction       :           -0.00025347 Eh              -0.00690 eV
Free-energy (cav+disp)  :  This term is not implemented in the current solvation scheme

---------------
SCF CONVERGENCE
---------------

  Last Energy change         ...    6.1303e-09  Tolerance :   1.0000e-08
  Last MAX-Density change    ...    3.5527e-15  Tolerance :   1.0000e-07
  Last RMS-Density change    ...    4.3904e-17  Tolerance :   5.0000e-09
  Last Orbital Gradient      ...    6.2652e-07  Tolerance :   1.0000e-05
  Last Orbital Rotation      ...    2.3032e-06  Tolerance :   1.0000e-05

             **** THE GBW FILE WAS UPDATED (Ni_octanol.gbw) ****
             **** DENSITY Ni_octanol.scfp WAS UPDATED ****
             **** ENERGY FILE WAS UPDATED (Ni_octanol.en.tmp) ****
             **** THE GBW FILE WAS UPDATED (Ni_octanol.gbw) ****
             **** DENSITY Ni_octanol.scfp WAS UPDATED ****
----------------
ORBITAL ENERGIES
----------------

  NO   OCC          E(Eh)            E(eV) 
   0   2.0000     -19.107566      -519.9433 
   1   2.0000     -19.107125      -519.9313 
   2   2.0000     -14.358582      -390.7169 
   3   2.0000     -14.357609      -390.6904 
   4   2.0000     -10.282750      -279.8079 
   5   2.0000     -10.279017      -279.7063 
   6   2.0000     -10.214755      -277.9576 
   7   2.0000     -10.208338      -277.7830 
   8   2.0000     -10.197555      -277.4896 
   9   2.0000     -10.194371      -277.4029 
  10   2.0000     -10.170955      -276.7658 
  11   2.0000     -10.169704      -276.7317 
  12   2.0000     -10.162701      -276.5412 
  13   2.0000     -10.159761      -276.4612 
  14   2.0000      -1.030287       -28.0355 
  15   2.0000      -1.023152       -27.8414 
  16   2.0000      -0.931332       -25.3428 
  17   2.0000      -0.925701       -25.1896 
  18   2.0000      -0.791519       -21.5383 
  19   2.0000      -0.754347       -20.5268 
  20   2.0000      -0.722538       -19.6613 
  21   2.0000      -0.715959       -19.4822 
  22   2.0000      -0.705351       -19.1936 
  23   2.0000      -0.669189       -18.2096 
  24   2.0000      -0.649840       -17.6830 
  25   2.0000      -0.595546       -16.2056 
  26   2.0000      -0.542073       -14.7506 
  27   2.0000      -0.524853       -14.2820 
  28   2.0000      -0.503503       -13.7010 
  29   2.0000      -0.490449       -13.3458 
  30   2.0000      -0.479117       -13.0374 
  31   2.0000      -0.461271       -12.5518 
  32   2.0000      -0.458009       -12.4631 
  33   2.0000      -0.449266       -12.2252 
  34   2.0000      -0.441215       -12.0061 
  35   2.0000      -0.425634       -11.5821 
  36   2.0000      -0.410399       -11.1675 
  37   2.0000      -0.407116       -11.0782 
  38   2.0000      -0.399862       -10.8808 
  39   2.0000      -0.395091       -10.7510 
  40   2.0000      -0.393664       -10.7121 
  41   2.0000      -0.389983       -10.6120 
  42   2.0000      -0.382565       -10.4101 
  43   2.0000      -0.380376       -10.3506 
  44   2.0000      -0.373196       -10.1552 
  45   2.0000      -0.365162        -9.9366 
  46   2.0000      -0.358195        -9.7470 
  47   2.0000      -0.346144        -9.4190 
  48   2.0000      -0.340174        -9.2566 
  49   2.0000      -0.326780        -8.8921 
  50   2.0000      -0.322559        -8.7773 
  51   2.0000      -0.256858        -6.9895 
  52   2.0000      -0.250344        -6.8122 
  53   2.0000      -0.236480        -6.4349 
  54   2.0000      -0.233205        -6.3458 
  55   0.0000       0.014258         0.3880 
  56   0.0000       0.029212         0.7949 
  57   0.0000       0.082631         2.2485 
  58   0.0000       0.103393         2.8135 
  59   0.0000       0.112743         3.0679 
  60   0.0000       0.125195         3.4067 
  61   0.0000       0.138660         3.7731 
  62   0.0000       0.148385         4.0378 
  63   0.0000       0.149556         4.0696 
  64   0.0000       0.158494         4.3128 
  65   0.0000       0.160737         4.3739 
  66   0.0000       0.169664         4.6168 
  67   0.0000       0.170421         4.6374 
  68   0.0000       0.174392         4.7455 
  69   0.0000       0.175976         4.7886 
  70   0.0000       0.180033         4.8989 
  71   0.0000       0.184698         5.0259 
  72   0.0000       0.190377         5.1804 
  73   0.0000       0.195460         5.3187 
  74   0.0000       0.200461         5.4548 
  75   0.0000       0.214478         5.8362 
  76   0.0000       0.223746         6.0884 
  77   0.0000       0.226323         6.1586 
  78   0.0000       0.229660         6.2494 
  79   0.0000       0.236334         6.4310 
  80   0.0000       0.247632         6.7384 
  81   0.0000       0.251776         6.8512 
  82   0.0000       0.263487         7.1698 
  83   0.0000       0.271124         7.3777 
  84   0.0000       0.279726         7.6117 
  85   0.0000       0.305268         8.3068 
  86   0.0000       0.344775         9.3818 
  87   0.0000       0.367507        10.0004 
  88   0.0000       0.390294        10.6204 
  89   0.0000       0.423737        11.5305 
  90   0.0000       0.470500        12.8029 
  91   0.0000       0.495256        13.4766 
  92   0.0000       0.505932        13.7671 
  93   0.0000       0.510107        13.8807 
  94   0.0000       0.520759        14.1706 
  95   0.0000       0.524456        14.2712 
  96   0.0000       0.541921        14.7464 
  97   0.0000       0.554724        15.0948 
  98   0.0000       0.556392        15.1402 
  99   0.0000       0.581802        15.8316 
 100   0.0000       0.588429        16.0120 
 101   0.0000       0.602999        16.4084 
 102   0.0000       0.616888        16.7864 
 103   0.0000       0.621328        16.9072 
 104   0.0000       0.632304        17.2059 
 105   0.0000       0.646301        17.5867 
 106   0.0000       0.661171        17.9914 
 107   0.0000       0.666777        18.1439 
 108   0.0000       0.682310        18.5666 
 109   0.0000       0.687695        18.7131 
 110   0.0000       0.718651        19.5555 
 111   0.0000       0.730387        19.8748 
 112   0.0000       0.736709        20.0469 
 113   0.0000       0.744278        20.2528 
 114   0.0000       0.774408        21.0727 
 115   0.0000       0.786604        21.4046 
 116   0.0000       0.802735        21.8435 
 117   0.0000       0.814500        22.1637 
 118   0.0000       0.815866        22.2008 
 119   0.0000       0.835192        22.7267 
 120   0.0000       0.847324        23.0569 
 121   0.0000       0.854257        23.2455 
 122   0.0000       0.865041        23.5390 
 123   0.0000       0.877871        23.8881 
 124   0.0000       0.883149        24.0317 
 125   0.0000       0.888239        24.1702 
 126   0.0000       0.897070        24.4105 
 127   0.0000       0.900650        24.5079 
 128   0.0000       0.902903        24.5692 
 129   0.0000       0.908076        24.7100 
 130   0.0000       0.914351        24.8807 
 131   0.0000       0.919121        25.0106 
 132   0.0000       0.925922        25.1956 
 133   0.0000       0.938457        25.5367 
 134   0.0000       0.951258        25.8850 
 135   0.0000       0.963805        26.2265 
 136   0.0000       0.966888        26.3104 
 137   0.0000       0.977097        26.5882 
 138   0.0000       0.986110        26.8334 
 139   0.0000       0.992235        27.0001 
 140   0.0000       1.005538        27.3621 
 141   0.0000       1.027026        27.9468 
 142   0.0000       1.028354        27.9829 
 143   0.0000       1.034642        28.1540 
 144   0.0000       1.061475        28.8842 
 145   0.0000       1.076448        29.2916 
 146   0.0000       1.095868        29.8201 
 147   0.0000       1.097731        29.8708 
 148   0.0000       1.123894        30.5827 
 149   0.0000       1.132863        30.8268 
 150   0.0000       1.165502        31.7149 
 151   0.0000       1.188182        32.3321 
 152   0.0000       1.252607        34.0852 
 153   0.0000       1.275735        34.7145 
 154   0.0000       1.291236        35.1363 
 155   0.0000       1.312790        35.7228 
 156   0.0000       1.347500        36.6673 
 157   0.0000       1.369335        37.2615 
 158   0.0000       1.375749        37.4360 
 159   0.0000       1.396480        38.0002 
 160   0.0000       1.432579        38.9825 
 161   0.0000       1.441810        39.2336 
 162   0.0000       1.444787        39.3147 
 163   0.0000       1.463711        39.8296 
 164   0.0000       1.490863        40.5685 
 165   0.0000       1.547526        42.1103 
 166   0.0000       1.558338        42.4045 
 167   0.0000       1.609180        43.7880 
 168   0.0000       1.630632        44.3717 
 169   0.0000       1.652084        44.9555 
 170   0.0000       1.697897        46.2021 
 171   0.0000       1.726078        46.9690 
 172   0.0000       1.735153        47.2159 
 173   0.0000       1.756019        47.7837 
 174   0.0000       1.768862        48.1332 
 175   0.0000       1.798661        48.9440 
 176   0.0000       1.821510        49.5658 
 177   0.0000       1.825971        49.6872 
 178   0.0000       1.842097        50.1260 
 179   0.0000       1.863289        50.7027 
 180   0.0000       1.870532        50.8998 
 181   0.0000       1.890469        51.4423 
 182   0.0000       1.905786        51.8591 
 183   0.0000       1.913155        52.0596 
 184   0.0000       1.943353        52.8813 
 185   0.0000       1.954505        53.1848 
 186   0.0000       1.957516        53.2667 
 187   0.0000       1.963347        53.4254 
 188   0.0000       1.966040        53.4987 
 189   0.0000       1.991117        54.1811 
 190   0.0000       2.009280        54.6753 
 191   0.0000       2.028044        55.1859 
 192   0.0000       2.044819        55.6423 
 193   0.0000       2.051536        55.8251 
 194   0.0000       2.072230        56.3883 
 195   0.0000       2.080778        56.6209 
 196   0.0000       2.098505        57.1032 
 197   0.0000       2.110141        57.4198 
 198   0.0000       2.115417        57.5634 
 199   0.0000       2.140361        58.2422 
 200   0.0000       2.182688        59.3940 
 201   0.0000       2.196298        59.7643 
 202   0.0000       2.213179        60.2237 
 203   0.0000       2.232118        60.7390 
 204   0.0000       2.233843        60.7859 
 205   0.0000       2.269875        61.7664 
 206   0.0000       2.287706        62.2517 
 207   0.0000       2.289666        62.3050 
 208   0.0000       2.317586        63.0647 
 209   0.0000       2.327425        63.3325 
 210   0.0000       2.337052        63.5944 
 211   0.0000       2.346313        63.8464 
 212   0.0000       2.376747        64.6746 
 213   0.0000       2.389419        65.0194 
 214   0.0000       2.416537        65.7573 
 215   0.0000       2.422626        65.9230 
 216   0.0000       2.452550        66.7373 
 217   0.0000       2.489449        67.7413 
 218   0.0000       2.512591        68.3711 
 219   0.0000       2.546039        69.2812 
 220   0.0000       2.570033        69.9342 
 221   0.0000       2.602687        70.8227 
 222   0.0000       2.615728        71.1776 
 223   0.0000       2.636900        71.7537 
 224   0.0000       2.643473        71.9326 
 225   0.0000       2.688943        73.1699 
 226   0.0000       2.722000        74.0694 
 227   0.0000       2.752240        74.8923 
 228   0.0000       2.772435        75.4418 
 229   0.0000       2.799981        76.1914 
 230   0.0000       2.939273        79.9817 
 231   0.0000       2.973012        80.8998 
 232   0.0000       3.004077        81.7451 
 233   0.0000       3.004839        81.7658 
 234   0.0000       3.167345        86.1878 
 235   0.0000       3.185256        86.6752 

                    ********************************
                    * MULLIKEN POPULATION ANALYSIS *
                    ********************************

-----------------------
MULLIKEN ATOMIC CHARGES
-----------------------
   0 C :   -0.555272
   1 H :    0.186177
   2 H :    0.198183
   3 H :    0.180318
   4 C :    0.530761
   5 O :   -0.536850
   6 N :   -0.384523
   7 C :   -0.256424
   8 H :    0.180693
   9 H :    0.205627
  10 C :    0.527610
  11 N :   -0.360885
  12 O :   -0.538681
  13 C :   -0.349125
  14 H :    0.167947
  15 H :    0.169838
  16 H :    0.200027
  17 C :   -0.330398
  18 H :    0.168550
  19 H :    0.186818
  20 H :    0.169874
  21 C :    0.022812
  22 H :    0.167808
  23 C :   -0.269083
  24 H :    0.154899
  25 H :    0.150483
  26 C :   -0.463467
  27 H :    0.152533
  28 H :    0.156524
  29 H :    0.153756
  30 C :   -0.474868
  31 H :    0.166089
  32 H :    0.161552
  33 H :    0.160699
Sum of atomic charges:    0.0000000

--------------------------------
MULLIKEN REDUCED ORBITAL CHARGES
--------------------------------
  0 C s       :     3.321540  s :     3.321540
      pz      :     1.061576  p :     3.201536
      px      :     1.027204
      py      :     1.112756
      dz2     :     0.001268  d :     0.032196
      dxz     :     0.009562
      dyz     :     0.010228
      dx2y2   :     0.009830
      dxy     :     0.001308
  1 H s       :     0.813823  s :     0.813823
  2 H s       :     0.801817  s :     0.801817
  3 H s       :     0.819682  s :     0.819682
  4 C s       :     2.988143  s :     2.988143
      pz      :     0.811107  p :     2.373526
      px      :     0.811721
      py      :     0.750697
      dz2     :     0.010439  d :     0.107570
      dxz     :     0.008864
      dyz     :     0.028463
      dx2y2   :     0.029254
      dxy     :     0.030550
  5 O s       :     3.866126  s :     3.866126
      pz      :     1.593547  p :     4.645834
      px      :     1.621840
      py      :     1.430448
      dz2     :     0.002591  d :     0.024890
      dxz     :     0.001280
      dyz     :     0.006940
      dx2y2   :     0.007063
      dxy     :     0.007016
  6 N s       :     3.541505  s :     3.541505
      pz      :     1.421750  p :     3.806880
      px      :     1.281710
      py      :     1.103420
      dz2     :     0.005206  d :     0.036137
      dxz     :     0.004783
      dyz     :     0.007747
      dx2y2   :     0.009292
      dxy     :     0.009110
  7 C s       :     3.253036  s :     3.253036
      pz      :     0.991661  p :     2.951578
      px      :     0.856355
      py      :     1.103563
      dz2     :     0.014373  d :     0.051810
      dxz     :     0.011754
      dyz     :     0.005009
      dx2y2   :     0.012830
      dxy     :     0.007843
  8 H s       :     0.819307  s :     0.819307
  9 H s       :     0.794373  s :     0.794373
 10 C s       :     2.981607  s :     2.981607
      pz      :     0.775752  p :     2.383583
      px      :     0.830972
      py      :     0.776859
      dz2     :     0.027239  d :     0.107200
      dxz     :     0.015348
      dyz     :     0.022268
      dx2y2   :     0.015695
      dxy     :     0.026651
 11 N s       :     3.532987  s :     3.532987
      pz      :     1.233609  p :     3.790206
      px      :     1.303469
      py      :     1.253128
      dz2     :     0.007961  d :     0.037693
      dxz     :     0.007244
      dyz     :     0.008054
      dx2y2   :     0.006282
      dxy     :     0.008152
 12 O s       :     3.860840  s :     3.860840
      pz      :     1.599410  p :     4.652872
      px      :     1.659102
      py      :     1.394360
      dz2     :     0.004172  d :     0.024969
      dxz     :     0.002478
      dyz     :     0.006934
      dx2y2   :     0.006267
      dxy     :     0.005118
 13 C s       :     3.269482  s :     3.269482
      pz      :     1.008403  p :     3.031391
      px      :     1.106246
      py      :     0.916742
      dz2     :     0.009742  d :     0.048252
      dxz     :     0.008148
      dyz     :     0.011877
      dx2y2   :     0.006062
      dxy     :     0.012423
 14 H s       :     0.832053  s :     0.832053
 15 H s       :     0.830162  s :     0.830162
 16 H s       :     0.799973  s :     0.799973
 17 C s       :     3.258551  s :     3.258551
      pz      :     1.075518  p :     3.023894
      px      :     0.931632
      py      :     1.016744
      dz2     :     0.008392  d :     0.047953
      dxz     :     0.006099
      dyz     :     0.012676
      dx2y2   :     0.007489
      dxy     :     0.013296
 18 H s       :     0.831450  s :     0.831450
 19 H s       :     0.813182  s :     0.813182
 20 H s       :     0.830126  s :     0.830126
 21 C s       :     3.175358  s :     3.175358
      pz      :     0.997550  p :     2.743451
      px      :     0.972592
      py      :     0.773309
      dz2     :     0.009740  d :     0.058379
      dxz     :     0.011385
      dyz     :     0.011796
      dx2y2   :     0.014085
      dxy     :     0.011373
 22 H s       :     0.832192  s :     0.832192
 23 C s       :     3.251056  s :     3.251056
      pz      :     0.970728  p :     2.977926
      px      :     1.057581
      py      :     0.949617
      dz2     :     0.007931  d :     0.040101
      dxz     :     0.007964
      dyz     :     0.008431
      dx2y2   :     0.009472
      dxy     :     0.006303
 24 H s       :     0.845101  s :     0.845101
 25 H s       :     0.849517  s :     0.849517
 26 C s       :     3.297075  s :     3.297075
      pz      :     1.075362  p :     3.131668
      px      :     1.079361
      py      :     0.976945
      dz2     :     0.006834  d :     0.034725
      dxz     :     0.005963
      dyz     :     0.007297
      dx2y2   :     0.008115
      dxy     :     0.006515
 27 H s       :     0.847467  s :     0.847467
 28 H s       :     0.843476  s :     0.843476
 29 H s       :     0.846244  s :     0.846244
 30 C s       :     3.301741  s :     3.301741
      pz      :     1.076355  p :     3.139134
      px      :     0.975911
      py      :     1.086867
      dz2     :     0.005197  d :     0.033994
      dxz     :     0.009445
      dyz     :     0.006162
      dx2y2   :     0.010023
      dxy     :     0.003168
 31 H s       :     0.833911  s :     0.833911
 32 H s       :     0.838448  s :     0.838448
 33 H s       :     0.839301  s :     0.839301


                     *******************************
                     * LOEWDIN POPULATION ANALYSIS *
                     *******************************

----------------------
LOEWDIN ATOMIC CHARGES
----------------------
   0 C :   -0.391315
   1 H :    0.146191
   2 H :    0.160066
   3 H :    0.150717
   4 C :    0.118912
   5 O :   -0.340962
   6 N :   -0.067531
   7 C :   -0.179696
   8 H :    0.144038
   9 H :    0.159324
  10 C :    0.098126
  11 N :   -0.069326
  12 O :   -0.338313
  13 C :   -0.287721
  14 H :    0.131016
  15 H :    0.134785
  16 H :    0.151076
  17 C :   -0.281143
  18 H :    0.131193
  19 H :    0.148516
  20 H :    0.134959
  21 C :   -0.062961
  22 H :    0.142885
  23 C :   -0.239870
  24 H :    0.129738
  25 H :    0.124837
  26 C :   -0.368564
  27 H :    0.130544
  28 H :    0.127853
  29 H :    0.128006
  30 C :   -0.370572
  31 H :    0.138223
  32 H :    0.131874
  33 H :    0.135093

-------------------------------
LOEWDIN REDUCED ORBITAL CHARGES
-------------------------------
  0 C s       :     2.981151  s :     2.981151
      pz      :     1.113578  p :     3.346776
      px      :     1.086449
      py      :     1.146748
      dz2     :     0.002364  d :     0.063388
      dxz     :     0.019762
      dyz     :     0.019159
      dx2y2   :     0.019399
      dxy     :     0.002704
  1 H s       :     0.853809  s :     0.853809
  2 H s       :     0.839934  s :     0.839934
  3 H s       :     0.849283  s :     0.849283
  4 C s       :     2.850385  s :     2.850385
      pz      :     0.867415  p :     2.777522
      px      :     0.942679
      py      :     0.967428
      dz2     :     0.023350  d :     0.253181
      dxz     :     0.019157
      dyz     :     0.065440
      dx2y2   :     0.072115
      dxy     :     0.073119
  5 O s       :     3.566660  s :     3.566660
      pz      :     1.589404  p :     4.723044
      px      :     1.634663
      py      :     1.498977
      dz2     :     0.006237  d :     0.051258
[...]
     76      -0.016774  -0.006860   0.000742  -0.029245   0.000203  -0.000258
     77      -0.030037  -0.005765   0.001969  -0.042544   0.000309  -0.000438
     78      -0.001773   0.002719   0.000013   0.000440   0.000024   0.000006
     79       0.000259  -0.000327   0.000024   0.000101   0.000015  -0.000007
     80       0.001509  -0.000690  -0.000041   0.000474   0.000006   0.000020
     81       0.004589  -0.002887  -0.000220   0.000633  -0.000063   0.000071
     82       0.005543  -0.003414  -0.000372   0.000871  -0.000126   0.000138
     83      -0.013738   0.009156   0.000715  -0.001859   0.000208  -0.000211
     84       0.020496  -0.028191  -0.000066  -0.002259  -0.000097  -0.000107
     85      -0.006007   0.008459   0.000030   0.000841   0.000029   0.000022
     86      -0.003207   0.004564  -0.000006   0.000300   0.000009   0.000027
     87      -0.003076  -0.002045   0.000068  -0.003517  -0.000148  -0.000069
     88      -0.002188  -0.001556   0.000087  -0.002808  -0.000112  -0.000049
     89      -0.002630  -0.003813   0.000031  -0.004353  -0.000204  -0.000072
     90       0.025341  -0.029441  -0.000166   0.003480  -0.000044   0.000052
     91       0.021679  -0.025055  -0.000198   0.002131   0.000002   0.000009
     92       0.049507  -0.056076  -0.000119   0.005555  -0.000033   0.000028
     93       0.032850  -0.036314  -0.000312   0.002493   0.000119  -0.000125
     94      -0.217104   0.246183   0.002108  -0.018589  -0.000306   0.000246
     95      -0.031553   0.036003   0.000388  -0.003386  -0.000068   0.000063
     96      -0.377023   0.433935   0.002279  -0.048170   0.000499  -0.000575
     97      -0.160738   0.184322   0.000758  -0.020174   0.000215  -0.000237
     98      -0.395706   0.455738   0.002012  -0.050483   0.000500  -0.000558
     99       0.042261  -0.046403   0.000063   0.003881  -0.000024  -0.000004
    100       0.110822  -0.120677   0.000253   0.010317  -0.000029  -0.000060
    101      -0.167639   0.180655  -0.000597  -0.015927   0.000056   0.000104


-----------
IR SPECTRUM
-----------

 Mode   freq       eps      Int      T**2         TX        TY        TZ
       cm**-1   L/(mol*cm) km/mol    a.u.
----------------------------------------------------------------------------
  6:     41.42   0.000416    2.10  0.003138  (-0.035011  0.036896 -0.023468)
  7:     47.88   0.000869    4.39  0.005663  (-0.014470  0.048072 -0.056056)
  8:     63.34   0.000437    2.21  0.002154  ( 0.028420 -0.011517  0.034832)
  9:     76.46   0.000491    2.48  0.002002  ( 0.030921 -0.000631  0.032335)
 10:     87.31   0.000218    1.10  0.000781  ( 0.012094 -0.004823  0.024720)
 11:     97.93   0.000201    1.02  0.000641  (-0.025230  0.001583  0.001351)
 12:    109.03   0.002976   15.04  0.008519  ( 0.079008  0.008727 -0.046913)
 13:    141.44   0.000810    4.09  0.001786  ( 0.040334 -0.012618  0.000329)
 14:    163.56   0.000045    0.23  0.000086  (-0.007883  0.000326 -0.004877)
 15:    187.25   0.000224    1.13  0.000373  ( 0.018224  0.002952 -0.005671)
 16:    202.70   0.000128    0.65  0.000197  ( 0.010835  0.008916  0.000323)
 17:    217.03   0.000575    2.91  0.000827  ( 0.005693 -0.014423  0.024219)
 18:    239.83   0.000765    3.87  0.000995  (-0.027549  0.001019 -0.015344)
 19:    266.68   0.000285    1.44  0.000333  (-0.004534 -0.015523  0.008474)
 20:    270.36   0.001877    9.48  0.002166  ( 0.042242 -0.019370  0.002536)
 21:    284.81   0.000300    1.51  0.000328  ( 0.011174  0.013972 -0.002854)
 22:    313.26   0.000571    2.89  0.000569  ( 0.015650 -0.009373  0.015370)
 23:    345.69   0.001807    9.13  0.001631  ( 0.031188 -0.001755 -0.025607)
 24:    378.05   0.002224   11.24  0.001836  ( 0.009299 -0.031257 -0.027788)
 25:    397.31   0.001663    8.40  0.001306  ( 0.006870  0.025551 -0.024613)
 26:    424.62   0.001626    8.22  0.001195  (-0.033305  0.000183  0.009265)
 27:    441.54   0.001653    8.35  0.001168  ( 0.018166  0.024531 -0.015385)
 28:    478.84   0.001233    6.23  0.000804  ( 0.019372  0.017763  0.010621)
 29:    537.28   0.004703   23.77  0.002732  (-0.037580 -0.000372 -0.036321)
 30:    582.92   0.003820   19.30  0.002045  (-0.030903 -0.027870  0.017696)
 31:    610.72   0.001849    9.34  0.000945  (-0.000329 -0.017363  0.025361)
 32:    642.54   0.005261   26.59  0.002555  (-0.024261  0.026089  0.035857)
 33:    703.73   0.001053    5.32  0.000467  ( 0.012851  0.008347  0.015229)
 34:    746.43   0.000262    1.33  0.000110  ( 0.005563  0.007812 -0.004202)
 35:    782.96   0.005811   29.37  0.002316  (-0.039426  0.011518  0.025079)
 36:    795.00   0.001301    6.57  0.000511  (-0.007407  0.015340  0.014845)
 37:    864.81   0.000660    3.34  0.000238  ( 0.004563 -0.013337 -0.006285)
 38:    943.97   0.000733    3.71  0.000242  (-0.007205 -0.007557  0.011550)
 39:    984.70   0.004214   21.29  0.001335  ( 0.016794 -0.006833 -0.031727)
 40:    996.48   0.002957   14.95  0.000926  ( 0.020287  0.003485 -0.022415)
 41:   1006.84   0.002663   13.46  0.000825  ( 0.018125 -0.003412 -0.022030)
 42:   1015.45   0.004930   24.92  0.001515  ( 0.002805  0.038787  0.001702)
 43:   1041.41   0.002617   13.22  0.000784  ( 0.002901  0.020969 -0.018329)
 44:   1064.16   0.002749   13.89  0.000806  ( 0.021916  0.004996 -0.017347)
 45:   1074.41   0.004426   22.37  0.001285  ( 0.003774  0.008955  0.034511)
 46:   1091.74   0.001763    8.91  0.000504  (-0.010726 -0.019680  0.001260)
 47:   1137.43   0.000142    0.72  0.000039  (-0.003693  0.001497 -0.004818)
 48:   1143.42   0.009337   47.19  0.002548  (-0.009445  0.046562  0.017064)
 49:   1154.34   0.007309   36.94  0.001976  (-0.039164  0.012953  0.016560)
 50:   1167.36   0.002570   12.99  0.000687  (-0.017192  0.000574  0.019777)
 51:   1184.28   0.001429    7.22  0.000377  (-0.006444  0.012348  0.013516)
 52:   1200.73   0.010480   52.96  0.002724  (-0.007456  0.018728  0.048140)
 53:   1228.67   0.006261   31.64  0.001590  (-0.003115  0.028628 -0.027584)
 54:   1273.52   0.030973  156.52  0.007590  (-0.059386 -0.043992 -0.046126)
 55:   1287.03   0.019576   98.93  0.004747  ( 0.056144  0.037031 -0.014939)
 56:   1311.47   0.001903    9.62  0.000453  (-0.013611  0.011277 -0.011847)
 57:   1356.82   0.006680   33.76  0.001536  (-0.022310 -0.032168 -0.001938)
 58:   1367.18   0.002019   10.20  0.000461  (-0.004415  0.020050  0.006272)
 59:   1381.68   0.013902   70.25  0.003140  ( 0.018277  0.051889  0.010649)
 60:   1398.79   0.007665   38.73  0.001710  (-0.019450 -0.036346 -0.003260)
 61:   1418.89   0.007776   39.30  0.001710  (-0.030899 -0.020653 -0.018135)
 62:   1429.87   0.000432    2.18  0.000094  (-0.006843  0.003964  0.005638)
 63:   1436.05   0.001657    8.37  0.000360  ( 0.000480 -0.017772 -0.006635)
 64:   1441.20   0.014696   74.27  0.003182  (-0.019738  0.027589  0.045072)
 65:   1458.98   0.017234   87.10  0.003686  (-0.043815  0.001787  0.041992)
 66:   1486.34   0.013504   68.24  0.002835  ( 0.011580  0.051972  0.000045)
 67:   1490.47   0.002219   11.21  0.000465  (-0.019132 -0.009927 -0.000023)
 68:   1500.89   0.001404    7.10  0.000292  ( 0.015929  0.004567 -0.004167)
 69:   1501.61   0.000752    3.80  0.000156  (-0.010311 -0.001492 -0.006908)
 70:   1507.56   0.000079    0.40  0.000016  ( 0.003920 -0.000988 -0.000286)
 71:   1509.54   0.001011    5.11  0.000209  (-0.006896 -0.011643  0.005092)
 72:   1513.50   0.000366    1.85  0.000075  (-0.008334 -0.001328 -0.002055)
 73:   1515.65   0.011536   58.30  0.002375  ( 0.039323  0.014412  0.024925)
 74:   1521.17   0.003405   17.21  0.000698  (-0.024452  0.004388 -0.009017)
 75:   1524.94   0.006714   33.93  0.001374  (-0.004162  0.029257  0.022377)
 76:   1527.73   0.002059   10.40  0.000420  (-0.004184 -0.003285  0.019804)
 77:   1532.00   0.005136   25.95  0.001046  (-0.008029  0.029373 -0.010904)
 78:   1539.97   0.010542   53.27  0.002136  ( 0.031371  0.018737  0.028301)
 79:   1557.36   0.015521   78.44  0.003110  (-0.036997 -0.010379  0.040418)
 80:   1690.36   0.117814  595.38  0.021750  (-0.023335  0.144864  0.014833)
 81:   1710.61   0.101128  511.06  0.018449  ( 0.003607  0.076408  0.112238)
 82:   3035.27   0.007410   37.45  0.000762  (-0.008237 -0.014799 -0.021795)
 83:   3042.75   0.016701   84.40  0.001713  ( 0.021043 -0.001467 -0.035607)
 84:   3043.31   0.007353   37.16  0.000754  ( 0.006135  0.026150 -0.005703)
 85:   3060.16   0.007781   39.32  0.000793  (-0.009580  0.017205  0.020141)
 86:   3064.11   0.002203   11.13  0.000224  ( 0.014286 -0.000864 -0.004416)
 87:   3075.84   0.000968    4.89  0.000098  (-0.008809 -0.003707 -0.002619)
 88:   3079.68   0.001103    5.57  0.000112  (-0.006961  0.007877  0.001119)
 89:   3087.74   0.006802   34.38  0.000687  ( 0.000844  0.007188  0.025201)
 90:   3091.89   0.017345   87.66  0.001751  ( 0.032447 -0.025034  0.008432)
 91:   3094.97   0.001479    7.47  0.000149  (-0.010390 -0.005406 -0.003453)
 92:   3095.38   0.000554    2.80  0.000056  ( 0.002882 -0.002081  0.006571)
 93:   3111.11   0.013797   69.73  0.001384  ( 0.016937  0.001642  0.033082)
 94:   3118.58   0.016198   81.86  0.001621  (-0.037954 -0.009973  0.008992)
 95:   3129.04   0.007049   35.62  0.000703  (-0.010682  0.023134 -0.007331)
 96:   3146.44   0.009433   47.67  0.000936  ( 0.010022  0.013535  0.025534)
 97:   3149.09   0.001345    6.80  0.000133  (-0.008863 -0.004248 -0.006055)
 98:   3167.44   0.001916    9.68  0.000189  ( 0.013143  0.003132 -0.002501)
 99:   3189.28   0.002974   15.03  0.000291  ( 0.004750 -0.014738  0.007160)
100:   3193.80   0.001061    5.36  0.000104  ( 0.008541  0.004710  0.002916)
101:   3195.70   0.000577    2.91  0.000056  (-0.004680  0.005851 -0.000427)

* The epsilon (eps) is given for a Dirac delta lineshape.
** The dipole moment derivative (T) already includes vibrational overlap.

The first frequency considered to be a vibration is 6
The total number of vibrations considered is 96


--------------------------
THERMOCHEMISTRY AT 298.15K
--------------------------

Temperature         ... 298.15 K
Pressure            ... 1.00 atm
Total Mass          ... 200.28 AMU

Throughout the following assumptions are being made:
  (1) The electronic state is orbitally nondegenerate
  (2) There are no thermally accessible electronically excited states
  (3) Hindered rotations indicated by low frequency modes are not
      treated as such but are treated as vibrations and this may
      cause some error
  (4) All equations used are the standard statistical mechanics
      equations for an ideal gas
  (5) All vibrations are strictly harmonic

freq.      41.42  E(vib)   ...       0.54 
freq.      47.88  E(vib)   ...       0.53 
freq.      63.34  E(vib)   ...       0.51 
freq.      76.46  E(vib)   ...       0.49 
freq.      87.31  E(vib)   ...       0.48 
freq.      97.93  E(vib)   ...       0.46 
freq.     109.03  E(vib)   ...       0.45 
freq.     141.44  E(vib)   ...       0.41 
freq.     163.56  E(vib)   ...       0.39 
freq.     187.25  E(vib)   ...       0.36 
freq.     202.70  E(vib)   ...       0.35 
freq.     217.03  E(vib)   ...       0.34 
freq.     239.83  E(vib)   ...       0.31 
freq.     266.68  E(vib)   ...       0.29 
freq.     270.36  E(vib)   ...       0.29 
freq.     284.81  E(vib)   ...       0.28 
freq.     313.26  E(vib)   ...       0.25 
freq.     345.69  E(vib)   ...       0.23 
freq.     378.05  E(vib)   ...       0.21 
freq.     397.31  E(vib)   ...       0.20 
freq.     424.62  E(vib)   ...       0.18 
freq.     441.54  E(vib)   ...       0.17 
freq.     478.84  E(vib)   ...       0.15 
freq.     537.28  E(vib)   ...       0.12 
freq.     582.92  E(vib)   ...       0.11 
freq.     610.72  E(vib)   ...       0.10 
freq.     642.54  E(vib)   ...       0.09 
freq.     703.73  E(vib)   ...       0.07 
freq.     746.43  E(vib)   ...       0.06 
freq.     782.96  E(vib)   ...       0.05 
freq.     795.00  E(vib)   ...       0.05 
freq.     864.81  E(vib)   ...       0.04 
freq.     943.97  E(vib)   ...       0.03 
freq.     984.70  E(vib)   ...       0.02 
freq.     996.48  E(vib)   ...       0.02 
freq.    1006.84  E(vib)   ...       0.02 
freq.    1015.45  E(vib)   ...       0.02 
freq.    1041.41  E(vib)   ...       0.02 
freq.    1064.16  E(vib)   ...       0.02 
freq.    1074.41  E(vib)   ...       0.02 
freq.    1091.74  E(vib)   ...       0.02 
freq.    1137.43  E(vib)   ...       0.01 
freq.    1143.42  E(vib)   ...       0.01 
freq.    1154.34  E(vib)   ...       0.01 
freq.    1167.36  E(vib)   ...       0.01 
freq.    1184.28  E(vib)   ...       0.01 
freq.    1200.73  E(vib)   ...       0.01 
freq.    1228.67  E(vib)   ...       0.01 
freq.    1273.52  E(vib)   ...       0.01 
freq.    1287.03  E(vib)   ...       0.01 
freq.    1311.47  E(vib)   ...       0.01 
freq.    1356.82  E(vib)   ...       0.01 
freq.    1367.18  E(vib)   ...       0.01 
freq.    1381.68  E(vib)   ...       0.01 
freq.    1398.79  E(vib)   ...       0.00 
freq.    1418.89  E(vib)   ...       0.00 
freq.    1429.87  E(vib)   ...       0.00 
freq.    1436.05  E(vib)   ...       0.00 
freq.    1441.20  E(vib)   ...       0.00 
freq.    1458.98  E(vib)   ...       0.00 
freq.    1486.34  E(vib)   ...       0.00 
freq.    1490.47  E(vib)   ...       0.00 
freq.    1500.89  E(vib)   ...       0.00 
freq.    1501.61  E(vib)   ...       0.00 
freq.    1507.56  E(vib)   ...       0.00 
freq.    1509.54  E(vib)   ...       0.00 
freq.    1513.50  E(vib)   ...       0.00 
freq.    1515.65  E(vib)   ...       0.00 
freq.    1521.17  E(vib)   ...       0.00 
freq.    1524.94  E(vib)   ...       0.00 
freq.    1527.73  E(vib)   ...       0.00 
freq.    1532.00  E(vib)   ...       0.00 
freq.    1539.97  E(vib)   ...       0.00 
freq.    1557.36  E(vib)   ...       0.00 
freq.    1690.36  E(vib)   ...       0.00 
freq.    1710.61  E(vib)   ...       0.00 
freq.    3035.27  E(vib)   ...       0.00 
freq.    3042.75  E(vib)   ...       0.00 
freq.    3043.31  E(vib)   ...       0.00 
freq.    3060.16  E(vib)   ...       0.00 
freq.    3064.11  E(vib)   ...       0.00 
freq.    3075.84  E(vib)   ...       0.00 
freq.    3079.68  E(vib)   ...       0.00 
freq.    3087.74  E(vib)   ...       0.00 
freq.    3091.89  E(vib)   ...       0.00 
freq.    3094.97  E(vib)   ...       0.00 
freq.    3095.38  E(vib)   ...       0.00 
freq.    3111.11  E(vib)   ...       0.00 
freq.    3118.58  E(vib)   ...       0.00 
freq.    3129.04  E(vib)   ...       0.00 
freq.    3146.44  E(vib)   ...       0.00 
freq.    3149.09  E(vib)   ...       0.00 
freq.    3167.44  E(vib)   ...       0.00 
freq.    3189.28  E(vib)   ...       0.00 
freq.    3193.80  E(vib)   ...       0.00 
freq.    3195.70  E(vib)   ...       0.00 

------------
INNER ENERGY
------------

The inner energy is: U= E(el) + E(ZPE) + E(vib) + E(rot) + E(trans)
    E(el)   - is the total energy from the electronic structure calculation
              = E(kin-el) + E(nuc-el) + E(el-el) + E(nuc-nuc)
    E(ZPE)  - the the zero temperature vibrational energy from the frequency calculation
    E(vib)  - the the finite temperature correction to E(ZPE) due to population
              of excited vibrational states
    E(rot)  - is the rotational thermal energy
    E(trans)- is the translational thermal energy

Summary of contributions to the inner energy U:
Electronic energy                ...   -652.73658636 Eh
Zero point energy                ...      0.30149463 Eh     189.19 kcal/mol
Thermal vibrational correction   ...      0.01421676 Eh       8.92 kcal/mol
Thermal rotational correction    ...      0.00141627 Eh       0.89 kcal/mol
Thermal translational correction ...      0.00141627 Eh       0.89 kcal/mol
-----------------------------------------------------------------------
Total thermal energy                   -652.41804242 Eh


Summary of corrections to the electronic energy:
(perhaps to be used in another calculation)
Total thermal correction                  0.01704931 Eh      10.70 kcal/mol
Non-thermal (ZPE) correction              0.30149463 Eh     189.19 kcal/mol
-----------------------------------------------------------------------
Total correction                          0.31854394 Eh     199.89 kcal/mol


--------
ENTHALPY
--------

The enthalpy is H = U + kB*T
                kB is Boltzmann's constant
Total free energy                 ...   -652.41804242 Eh 
Thermal Enthalpy correction       ...      0.00094421 Eh       0.59 kcal/mol
-----------------------------------------------------------------------
Total Enthalpy                    ...   -652.41709821 Eh


Note: Only C1 symmetry has been detected, increase convergence thresholds 
      if your molecule has a higher symmetry. Symmetry factor of 1.0 is   
      used for the rotational entropy correction. 
 

Note: Rotational entropy computed according to Herzberg 
Infrared and Raman Spectra, Chapter V,1, Van Nostrand Reinhold, 1945 
Point Group:  C1, Symmetry Number:   1  
Rotational constants in cm-1:     0.026076     0.019036     0.014443 

Vibrational entropy computed according to the QRRHO of S. Grimme
Chem.Eur.J. 2012 18 9955


-------
ENTROPY
-------

The entropy contributions are T*S = T*(S(el)+S(vib)+S(rot)+S(trans))
     S(el)   - electronic entropy
     S(vib)  - vibrational entropy
     S(rot)  - rotational entropy
     S(trans)- translational entropy
The entropies will be listed as multiplied by the temperature to get
units of energy

Electronic entropy                ...      0.00000000 Eh      0.00 kcal/mol
Vibrational entropy               ...      0.02534299 Eh     15.90 kcal/mol
Rotational entropy                ...      0.01510306 Eh      9.48 kcal/mol
Translational entropy             ...      0.01985492 Eh     12.46 kcal/mol
-----------------------------------------------------------------------
Final entropy term                ...      0.06030097 Eh     37.84 kcal/mol

In case the symmetry of your molecule has not been determined correctly
or in case you have a reason to use a different symmetry number we print 
out the resulting rotational entropy values for sn=1,12 :
 --------------------------------------------------------
|  sn= 1 | S(rot)=       0.01510306 Eh      9.48 kcal/mol|
|  sn= 2 | S(rot)=       0.01444861 Eh      9.07 kcal/mol|
|  sn= 3 | S(rot)=       0.01406577 Eh      8.83 kcal/mol|
|  sn= 4 | S(rot)=       0.01379415 Eh      8.66 kcal/mol|
|  sn= 5 | S(rot)=       0.01358346 Eh      8.52 kcal/mol|
|  sn= 6 | S(rot)=       0.01341132 Eh      8.42 kcal/mol|
|  sn= 7 | S(rot)=       0.01326577 Eh      8.32 kcal/mol|
|  sn= 8 | S(rot)=       0.01313969 Eh      8.25 kcal/mol|
|  sn= 9 | S(rot)=       0.01302849 Eh      8.18 kcal/mol|
|  sn=10 | S(rot)=       0.01292901 Eh      8.11 kcal/mol|
|  sn=11 | S(rot)=       0.01283902 Eh      8.06 kcal/mol|
|  sn=12 | S(rot)=       0.01275686 Eh      8.01 kcal/mol|
 --------------------------------------------------------


-------------------
GIBBS FREE ENERGY
-------------------

The Gibbs free energy is G = H - T*S

Total enthalpy                    ...   -652.41709821 Eh 
Total entropy correction          ...     -0.06030097 Eh    -37.84 kcal/mol
-----------------------------------------------------------------------
Final Gibbs free energy         ...   -652.47739918 Eh

For completeness - the Gibbs free energy minus the electronic energy
G-E(el)                           ...      0.25918718 Eh    162.64 kcal/mol


Timings for individual modules:

Sum of individual times         ...     1815.498 sec (=  30.258 min)
GTO integral calculation        ...       20.088 sec (=   0.335 min)   1.1 %
SCF iterations                  ...      875.086 sec (=  14.585 min)  48.2 %
SCF Gradient evaluation         ...      276.409 sec (=   4.607 min)  15.2 %
Geometry relaxation             ...        1.292 sec (=   0.022 min)   0.1 %
Analytical frequency calculation...      642.623 sec (=  10.710 min)  35.4 %
                             ****ORCA TERMINATED NORMALLY****
TOTAL RUN TIME: 0 days 0 hours 30 minutes 22 seconds 244 msec
