
                                 *****************
                                 * O   R   C   A *
                                 *****************

                                            #,                                       
                                            ###                                      
                                            ####                                     
                                            #####                                    
                                            ######                                   
                                           ########,                                 
                                     ,,################,,,,,                         
                               ,,#################################,,                 
                          ,,##########################################,,             
                       ,#########################################, ''#####,          
                    ,#############################################,,   '####,        
                  ,##################################################,,,,####,       
                ,###########''''           ''''###############################       
              ,#####''   ,,,,##########,,,,          '''####'''          '####       
            ,##' ,,,,###########################,,,                        '##       
           ' ,,###''''                  '''############,,,                           
         ,,##''                                '''############,,,,        ,,,,,,###''
      ,#''                                            '''#######################'''  
     '                                                          ''''####''''         
             ,#######,   #######,   ,#######,      ##                                
            ,#'     '#,  ##    ##  ,#'     '#,    #''#        ######   ,####,        
            ##       ##  ##   ,#'  ##            #'  '#       #        #'  '#        
            ##       ##  #######   ##           ,######,      #####,   #    #        
            '#,     ,#'  ##    ##  '#,     ,#' ,#      #,         ##   #,  ,#        
             '#######'   ##     ##  '#######'  #'      '#     #####' # '####'        



                  #######################################################
                  #                        -***-                        #
                  #          Department of theory and spectroscopy      #
                  #    Directorship and core code : Frank Neese         #
                  #        Max Planck Institute fuer Kohlenforschung    #
                  #                Kaiser Wilhelm Platz 1               #
                  #                 D-45470 Muelheim/Ruhr               #
                  #                      Germany                        #
                  #                                                     #
                  #                  All rights reserved                #
                  #                        -***-                        #
                  #######################################################


                         Program Version 5.0.4 -  RELEASE  -


 With contributions from (in alphabetic order):
   Daniel Aravena         : Magnetic Suceptibility
   Michael Atanasov       : Ab Initio Ligand Field Theory (pilot matlab implementation)
   Alexander A. Auer      : GIAO ZORA, VPT2 properties, NMR spectrum
   Ute Becker             : Parallelization
   Giovanni Bistoni       : ED, misc. LED, open-shell LED, HFLD
   Martin Brehm           : Molecular dynamics
   Dmytro Bykov           : SCF Hessian
   Vijay G. Chilkuri      : MRCI spin determinant printing, contributions to CSF-ICE
   Dipayan Datta          : RHF DLPNO-CCSD density
   Achintya Kumar Dutta   : EOM-CC, STEOM-CC
   Dmitry Ganyushin       : Spin-Orbit,Spin-Spin,Magnetic field MRCI
   Miquel Garcia          : C-PCM and meta-GGA Hessian, CC/C-PCM, Gaussian charge scheme
   Yang Guo               : DLPNO-NEVPT2, F12-NEVPT2, CIM, IAO-localization
   Andreas Hansen         : Spin unrestricted coupled pair/coupled cluster methods
   Benjamin Helmich-Paris : MC-RPA, TRAH-SCF, COSX integrals
   Lee Huntington         : MR-EOM, pCC
   Robert Izsak           : Overlap fitted RIJCOSX, COSX-SCS-MP3, EOM
   Marcus Kettner         : VPT2
   Christian Kollmar      : KDIIS, OOCD, Brueckner-CCSD(T), CCSD density, CASPT2, CASPT2-K
   Simone Kossmann        : Meta GGA functionals, TD-DFT gradient, OOMP2, MP2 Hessian
   Martin Krupicka        : Initial AUTO-CI
   Lucas Lang             : DCDCAS
   Marvin Lechner         : AUTO-CI (C++ implementation), FIC-MRCC
   Dagmar Lenk            : GEPOL surface, SMD
   Dimitrios Liakos       : Extrapolation schemes; Compound Job, initial MDCI parallelization
   Dimitrios Manganas     : Further ROCIS development; embedding schemes
   Dimitrios Pantazis     : SARC Basis sets
   Anastasios Papadopoulos: AUTO-CI, single reference methods and gradients
   Taras Petrenko         : DFT Hessian,TD-DFT gradient, ASA, ECA, R-Raman, ABS, FL, XAS/XES, NRVS
   Peter Pinski           : DLPNO-MP2, DLPNO-MP2 Gradient
   Christoph Reimann      : Effective Core Potentials
   Marius Retegan         : Local ZFS, SOC
   Christoph Riplinger    : Optimizer, TS searches, QM/MM, DLPNO-CCSD(T), (RO)-DLPNO pert. Triples
   Tobias Risthaus        : Range-separated hybrids, TD-DFT gradient, RPA, STAB
   Michael Roemelt        : Original ROCIS implementation
   Masaaki Saitow         : Open-shell DLPNO-CCSD energy and density
   Barbara Sandhoefer     : DKH picture change effects
   Avijit Sen             : IP-ROCIS
   Kantharuban Sivalingam : CASSCF convergence, NEVPT2, FIC-MRCI
   Bernardo de Souza      : ESD, SOC TD-DFT
   Georgi Stoychev        : AutoAux, RI-MP2 NMR, DLPNO-MP2 response
   Willem Van den Heuvel  : Paramagnetic NMR
   Boris Wezisla          : Elementary symmetry handling
   Frank Wennmohs         : Technical directorship


 We gratefully acknowledge several colleagues who have allowed us to
 interface, adapt or use parts of their codes:
   Stefan Grimme, W. Hujo, H. Kruse, P. Pracht,  : VdW corrections, initial TS optimization,
                  C. Bannwarth, S. Ehlert          DFT functionals, gCP, sTDA/sTD-DF
   Ed Valeev, F. Pavosevic, A. Kumar             : LibInt (2-el integral package), F12 methods
   Garnet Chan, S. Sharma, J. Yang, R. Olivares  : DMRG
   Ulf Ekstrom                                   : XCFun DFT Library
   Mihaly Kallay                                 : mrcc  (arbitrary order and MRCC methods)
   Jiri Pittner, Ondrej Demel                    : Mk-CCSD
   Frank Weinhold                                : gennbo (NPA and NBO analysis)
   Christopher J. Cramer and Donald G. Truhlar   : smd solvation model
   Lars Goerigk                                  : TD-DFT with DH, B97 family of functionals
   V. Asgeirsson, H. Jonsson                     : NEB implementation
   FAccTs GmbH                                   : IRC, NEB, NEB-TS, DLPNO-Multilevel, CI-OPT
                                                   MM, QMMM, 2- and 3-layer-ONIOM, Crystal-QMMM,
                                                   LR-CPCM, SF, NACMEs, symmetry and pop. for TD-DFT,
                                                   nearIR, NL-DFT gradient (VV10), updates on ESD,
                                                   ML-optimized integration grids
   S Lehtola, MJT Oliveira, MAL Marques          : LibXC Library
   Liviu Ungur et al                             : ANISO software


 Your calculation uses the libint2 library for the computation of 2-el integrals
 For citations please refer to: http://libint.valeyev.net

 Your ORCA version has been built with support for libXC version: 5.1.0
 For citations please refer to: https://tddft.org/programs/libxc/

 This ORCA versions uses:
   CBLAS   interface :  Fast vector & matrix operations
   LAPACKE interface :  Fast linear algebra routines
   SCALAPACK package :  Parallel linear algebra routines
   Shared memory     :  Shared parallel matrices
   BLAS/LAPACK       :  OpenBLAS 0.3.15  USE64BITINT DYNAMIC_ARCH NO_AFFINITY SkylakeX SINGLE_THREADED
        Core in use  :  SkylakeX
   Copyright (c) 2011-2014, The OpenBLAS Project




***************************************
The coordinates will be read from file: /users/fjb15167/WWenergy/structures/Ny.xyz
***************************************


Your calculation utilizes the atom-pairwise dispersion correction
based on tight binding partial charges (D4)
Cite in your paper:
E.Caldeweyher, C.Bannwarth, S.Grimme, J.Chem.Phys., (2017), 147, 034112.
E.Caldeweyher, S.Ehlert, A.Hansen, H.Neugebauer, S.Grimme, J.Chem.Phys., (2018), in progress.
   

================================================================================

----- Orbital basis set information -----
Your calculation utilizes the basis: 6-31G(d)
   H-He, Li-Ne : W. J. Hehre, R. Ditchfield and J.A. Pople, J. Chem. Phys. 56, 2257 (1972).
                 Note: He and Ne are unpublished basis sets taken from the Gaussian program.
                 Note: Li and B from J. D. Dill and J. A. Pople, J. Chem. Phys. 62, 2921 (1975).
   Na - Ar     : M. M. Francl, W. J. Pietro, W. J. Hehre, J. S. Binkley, M. S. Gordon, 
                 D. J. DeFrees and J. A. Pople, J. Chem. Phys. 77, 3654 (1982).
   K - Zn      : V. A. Rassolov, J. A. Pople, M. A. Ratner, and T. L. Windus, J. Chem. Phys. 109, 1223 (1998).

----- AuxJ basis set information -----
Your calculation utilizes the AutoAux generation procedure.
  G. L. Stoychev, A. A. Auer, F. Neese, J. Chem. Theory Comput. 13, 554 (2017)

----- AuxC basis set information -----
Your calculation utilizes the AutoAux generation procedure.
  G. L. Stoychev, A. A. Auer, F. Neese, J. Chem. Theory Comput. 13, 554 (2017)

----- AuxJK basis set information -----
Your calculation utilizes the AutoAux generation procedure.
  G. L. Stoychev, A. A. Auer, F. Neese, J. Chem. Theory Comput. 13, 554 (2017)

================================================================================
                                        WARNINGS
                       Please study these warnings very carefully!
================================================================================


WARNING: Geometry Optimization
  ===> : Switching off AutoStart
         For restart on a previous wavefunction, please use MOREAD

INFO   : the flag for use of the SHARK integral package has been found!

================================================================================
                                       INPUT FILE
================================================================================
NAME = Ny_water.inp
|  1> ! OPT FREQ B3LYP 6-31G(d) D4 AUTOAUX CPCM(water)
|  2> 
|  3> %PAL NPROCS 4 END
|  4> 
|  5> %maxcore 3375
|  6> 
|  7> *xyzfile 0 1 /users/fjb15167/WWenergy/structures/Ny.xyz
|  8> 
|  9>                          ****END OF INPUT****
================================================================================

                       *****************************
                       * Geometry Optimization Run *
                       *****************************

Geometry optimization settings:
Update method            Update   .... BFGS
Choice of coordinates    CoordSys .... Z-matrix Internals
Initial Hessian          InHess   .... Almoef's Model

Convergence Tolerances:
Energy Change            TolE     ....  5.0000e-06 Eh
Max. Gradient            TolMAXG  ....  3.0000e-04 Eh/bohr
RMS Gradient             TolRMSG  ....  1.0000e-04 Eh/bohr
Max. Displacement        TolMAXD  ....  4.0000e-03 bohr
RMS Displacement         TolRMSD  ....  2.0000e-03 bohr
Strict Convergence                ....  False
------------------------------------------------------------------------------
                        ORCA OPTIMIZATION COORDINATE SETUP
------------------------------------------------------------------------------

The optimization will be done in new redundant internal coordinates
Making redundant internal coordinates   ...  (new redundants) done
Evaluating the initial hessian          ...  (Almloef) done
Evaluating the coordinates              ...  done
Calculating the B-matrix                .... done
Calculating the G-matrix                .... done
Diagonalizing the G-matrix              .... done
Small eigenvalue found = 3.011e-03
Small eigenvalue found = 4.839e-03
Small eigenvalue found = 9.738e-03
Small eigenvalue found = 1.374e-02
Small eigenvalue found = 1.916e-02
Small eigenvalue found = 2.808e-02
The first mode is                       ....   71
The number of degrees of freedom        ....  102

    -----------------------------------------------------------------
                    Redundant Internal Coordinates


    -----------------------------------------------------------------
         Definition                    Initial Value    Approx d2E/dq
    -----------------------------------------------------------------
      1. B(O   4,C   0)                  1.2190         1.048743   
      2. B(C   5,H   3)                  1.0903         0.359672   
      3. B(C   5,H   2)                  1.0930         0.356204   
      4. B(C   5,H   1)                  1.0919         0.357603   
      5. B(C   5,C   0)                  1.5308         0.372499   
      6. B(N   6,C   0)                  1.3797         0.581141   
      7. B(C   7,N   6)                  1.4621         0.429335   
      8. B(H   8,C   7)                  1.0949         0.353740   
      9. B(H   9,C   7)                  1.0896         0.360656   
     10. B(C  10,N   6)                  1.4661         0.423142   
     11. B(H  11,C  10)                  1.0998         0.347328   
     12. B(H  12,C  10)                  1.0951         0.353443   
     13. B(C  13,C  10)                  1.5113         0.400133   
     14. B(C  14,C  13)                  1.3997         0.602949   
     15. B(H  15,C  14)                  1.0898         0.360342   
     16. B(C  16,C  14)                  1.3929         0.618153   
     17. B(H  17,C  16)                  1.0862         0.365219   
     18. B(C  18,C  16)                  1.3967         0.609690   
     19. B(O  19,C  18)                  1.3736         0.594359   
     20. B(H  20,O  19)                  0.9730         0.495637   
     21. B(C  21,C  13)                  1.3986         0.605353   
     22. B(H  22,C  21)                  1.0866         0.364583   
     23. B(C  23,C  21)                  1.3945         0.614537   
     24. B(C  23,C  18)                  1.3991         0.604271   
     25. B(H  24,C  23)                  1.0902         0.359806   
     26. B(C  25,C   7)                  1.5248         0.380780   
     27. B(O  26,C  25)                  1.2403         0.969852   
     28. B(N  27,C  25)                  1.3675         0.607714   
     29. B(C  28,N  27)                  1.4548         0.441063   
     30. B(H  29,C  28)                  1.0962         0.352008   
     31. B(H  30,C  28)                  1.0881         0.362676   
     32. B(H  31,C  28)                  1.0956         0.352752   
     33. B(C  32,N  27)                  1.4548         0.441087   
     34. B(H  33,C  32)                  1.0970         0.350900   
     35. B(H  34,C  32)                  1.0968         0.351256   
     36. B(H  35,C  32)                  1.0875         0.363367   
     37. A(O   4,C   0,N   6)          123.0334         0.465730   
     38. A(C   5,C   0,N   6)          115.6043         0.389518   
     39. A(O   4,C   0,C   5)          121.3542         0.432479   
     40. A(H   1,C   5,H   2)          107.6268         0.290026   
     41. A(H   1,C   5,H   3)          109.6035         0.290468   
     42. A(C   0,C   5,H   2)          112.4838         0.323587   
     43. A(H   2,C   5,H   3)          109.5206         0.290289   
     44. A(C   0,C   5,H   3)          106.6049         0.324102   
     45. A(C   0,C   5,H   1)          110.9858         0.323795   
     46. A(C   7,N   6,C  10)          116.5319         0.375452   
     47. A(C   0,N   6,C  10)          124.5531         0.395770   
     48. A(C   0,N   6,C   7)          117.7844         0.396780   
     49. A(H   8,C   7,H   9)          108.8564         0.290097   
     50. A(N   6,C   7,H   9)          107.7761         0.329932   
     51. A(H   9,C   7,C  25)          113.9072         0.325421   
     52. A(N   6,C   7,C  25)          110.8882         0.371015   
     53. A(H   8,C   7,C  25)          105.4521         0.324387   
     54. A(N   6,C   7,H   8)          109.9119         0.328879   
     55. A(H  12,C  10,C  13)          109.2654         0.326998   
     56. A(H  11,C  10,C  13)          109.8076         0.326060   
     57. A(N   6,C  10,C  13)          114.0601         0.373261   
     58. A(H  11,C  10,H  12)          106.8957         0.288353   
     59. A(N   6,C  10,H  12)          105.9474         0.328046   
     60. A(N   6,C  10,H  11)          110.5505         0.327103   
     61. A(C  10,C  13,C  21)          120.7734         0.399818   
     62. A(C  10,C  13,C  14)          120.4819         0.399538   
     63. A(C  14,C  13,C  21)          118.6526         0.430044   
     64. A(H  15,C  14,C  16)          119.0811         0.352771   
     65. A(C  13,C  14,C  16)          121.2094         0.431663   
     66. A(C  13,C  14,H  15)          119.7024         0.351288   
     67. A(H  17,C  16,C  18)          118.9047         0.352751   
     68. A(C  14,C  16,C  18)          119.5436         0.432527   
     69. A(C  14,C  16,H  17)          121.5517         0.353575   
     70. A(C  16,C  18,O  19)          117.0643         0.426687   
     71. A(O  19,C  18,C  23)          122.9873         0.426005   
     72. A(C  16,C  18,C  23)          119.9445         0.430765   
     73. A(C  18,O  19,H  20)          108.4939         0.364439   
     74. A(H  22,C  21,C  23)          119.7861         0.353119   
     75. A(C  13,C  21,C  23)          120.6957         0.431517   
     76. A(C  13,C  21,H  22)          119.5118         0.352221   
     77. A(C  21,C  23,H  24)          119.9952         0.352332   
     78. A(C  18,C  23,H  24)          120.0544         0.351330   
     79. A(C  18,C  23,C  21)          119.9426         0.431378   
     80. A(O  26,C  25,N  27)          122.7532         0.462885   
     81. A(C   7,C  25,N  27)          118.1270         0.394089   
     82. A(C   7,C  25,O  26)          119.0443         0.428137   
     83. A(C  25,N  27,C  32)          125.8056         0.401817   
     84. A(C  28,N  27,C  32)          115.4078         0.379927   
     85. A(C  25,N  27,C  28)          118.6973         0.401813   
     86. A(H  30,C  28,H  31)          109.8468         0.290224   
     87. A(H  29,C  28,H  31)          108.5968         0.288869   
     88. A(N  27,C  28,H  31)          110.1721         0.330194   
     89. A(H  29,C  28,H  30)          109.8963         0.290128   
     90. A(N  27,C  28,H  30)          108.4004         0.331713   
     91. A(N  27,C  28,H  29)          109.9232         0.330079   
     92. A(H  34,C  32,H  35)          109.2237         0.290117   
     93. A(H  33,C  32,H  35)          108.1780         0.290071   
     94. A(N  27,C  32,H  35)          112.0300         0.331821   
     95. A(H  33,C  32,H  34)          108.0817         0.288534   
     96. A(N  27,C  32,H  34)          110.0269         0.329965   
     97. A(N  27,C  32,H  33)          109.2024         0.329909   
     98. D(H   3,C   5,C   0,O   4)      8.8029         0.010381   
     99. D(H   1,C   5,C   0,N   6)     68.5001         0.010381   
    100. D(H   1,C   5,C   0,O   4)   -110.4962         0.010381   
    101. D(H   2,C   5,C   0,O   4)    128.8554         0.010381   
    102. D(H   3,C   5,C   0,N   6)   -172.2008         0.010381   
    103. D(H   2,C   5,C   0,N   6)    -52.1482         0.010381   
    104. D(C   7,N   6,C   0,O   4)     -9.0472         0.027094   
    105. D(C  10,N   6,C   0,C   5)      4.5817         0.027094   
    106. D(C  10,N   6,C   0,O   4)   -176.4406         0.027094   
    107. D(C   7,N   6,C   0,C   5)    171.9752         0.027094   
    108. D(H   9,C   7,N   6,C  10)    169.8643         0.015715   
    109. D(H   9,C   7,N   6,C   0)      1.4547         0.015715   
    110. D(H   8,C   7,N   6,C  10)     51.3672         0.015715   
    111. D(H   8,C   7,N   6,C   0)   -117.0424         0.015715   
    112. D(C  25,C   7,N   6,C   0)    126.7551         0.015715   
    113. D(C  25,C   7,N   6,C  10)    -64.8353         0.015715   
    114. D(C  13,C  10,N   6,C   7)    124.6597         0.015266   
    115. D(C  13,C  10,N   6,C   0)    -67.8040         0.015266   
    116. D(H  12,C  10,N   6,C   7)      4.4355         0.015266   
    117. D(H  11,C  10,N   6,C   7)   -111.0277         0.015266   
    118. D(H  11,C  10,N   6,C   0)     56.5086         0.015266   
    119. D(H  12,C  10,N   6,C   0)    171.9718         0.015266   
    120. D(C  21,C  13,C  10,H  12)     74.3080         0.011882   
    121. D(C  21,C  13,C  10,N   6)    -44.0384         0.011882   
    122. D(C  14,C  13,C  10,H  12)   -102.1558         0.011882   
    123. D(C  14,C  13,C  10,H  11)     14.7880         0.011882   
    124. D(C  14,C  13,C  10,N   6)    139.4978         0.011882   
    125. D(C  21,C  13,C  10,H  11)   -168.7481         0.011882   
    126. D(C  16,C  14,C  13,C  10)    177.2796         0.025075   
    127. D(H  15,C  14,C  13,C  21)    179.7574         0.025075   
    128. D(H  15,C  14,C  13,C  10)     -3.7047         0.025075   
    129. D(C  16,C  14,C  13,C  21)      0.7417         0.025075   
    130. D(C  18,C  16,C  14,H  15)   -179.4372         0.026432   
    131. D(H  17,C  16,C  14,H  15)      0.6394         0.026432   
    132. D(C  18,C  16,C  14,C  13)     -0.4155         0.026432   
    133. D(H  17,C  16,C  14,C  13)    179.6611         0.026432   
    134. D(C  23,C  18,C  16,H  17)   -179.6108         0.025671   
    135. D(C  23,C  18,C  16,C  14)      0.4637         0.025671   
    136. D(O  19,C  18,C  16,H  17)     -0.3142         0.025671   
    137. D(O  19,C  18,C  16,C  14)    179.7603         0.025671   
    138. D(H  20,O  19,C  18,C  23)     -1.1991         0.025769   
    139. D(H  20,O  19,C  18,C  16)    179.5276         0.025769   
    140. D(C  23,C  21,C  13,C  14)     -1.1314         0.025287   
    141. D(C  23,C  21,C  13,C  10)   -177.6588         0.025287   
    142. D(H  22,C  21,C  13,C  14)    179.7918         0.025287   
    143. D(H  22,C  21,C  13,C  10)      3.2644         0.025287   
    144. D(H  24,C  23,C  21,H  22)     -0.7490         0.026105   
    145. D(H  24,C  23,C  21,C  13)   -179.8232         0.026105   
    146. D(C  18,C  23,C  21,H  22)   -179.7266         0.026105   
    147. D(C  18,C  23,C  21,C  13)      1.1992         0.026105   
    148. D(H  24,C  23,C  18,O  19)      0.9157         0.025192   
    149. D(H  24,C  23,C  18,C  16)   -179.8311         0.025192   
    150. D(C  21,C  23,C  18,O  19)    179.8927         0.025192   
    151. D(C  21,C  23,C  18,C  16)     -0.8540         0.025192   
    152. D(N  27,C  25,C   7,H   9)     44.7130         0.010817   
    153. D(N  27,C  25,C   7,H   8)    164.0091         0.010817   
    154. D(N  27,C  25,C   7,N   6)    -77.0639         0.010817   
    155. D(O  26,C  25,C   7,H   9)   -138.3587         0.010817   
    156. D(O  26,C  25,C   7,H   8)    -19.0625         0.010817   
    157. D(O  26,C  25,C   7,N   6)     99.8644         0.010817   
    158. D(C  32,N  27,C  25,C   7)     -4.8506         0.029814   
    159. D(C  28,N  27,C  25,O  26)      1.9465         0.029814   
    160. D(C  28,N  27,C  25,C   7)    178.7533         0.029814   
    161. D(C  32,N  27,C  25,O  26)    178.3426         0.029814   
    162. D(H  31,C  28,N  27,C  32)    -59.8440         0.016589   
    163. D(H  31,C  28,N  27,C  25)    116.9207         0.016589   
    164. D(H  30,C  28,N  27,C  32)    179.9313         0.016589   
    165. D(H  30,C  28,N  27,C  25)     -3.3040         0.016589   
    166. D(H  29,C  28,N  27,C  32)     59.7948         0.016589   
    167. D(H  29,C  28,N  27,C  25)   -123.4405         0.016589   
    168. D(H  35,C  32,N  27,C  28)   -175.8464         0.016591   
    169. D(H  35,C  32,N  27,C  25)      7.6532         0.016591   
    170. D(H  34,C  32,N  27,C  28)     62.4490         0.016591   
    171. D(H  34,C  32,N  27,C  25)   -114.0515         0.016591   
    172. D(H  33,C  32,N  27,C  28)    -56.0250         0.016591   
    173. D(H  33,C  32,N  27,C  25)    127.4745         0.016591   
    -----------------------------------------------------------------

Number of atoms                         .... 36
Number of degrees of freedom            .... 173

         *************************************************************
         *                GEOMETRY OPTIMIZATION CYCLE   1            *
         *************************************************************
---------------------------------
CARTESIAN COORDINATES (ANGSTROEM)
---------------------------------
  C     -1.934000   -1.617000    1.162000
  H      0.118000   -2.222000    1.557000
  H     -0.800000   -3.426000    0.653000
  H     -1.153000   -3.163000    2.381000
  O     -2.785000   -1.335000    1.988000
  C     -0.868000   -2.678000    1.447000
  N     -1.847000   -1.000000   -0.069000
  C     -2.939000   -0.112000   -0.465000
  H     -3.436000   -0.507000   -1.357000
  H     -3.657000   -0.082000    0.354000
  C     -0.886000   -1.363000   -1.115000
  H     -0.983000   -2.427000   -1.376000
  H     -1.176000   -0.790000   -2.002000
  C      0.551000   -1.050000   -0.767000
  C      1.573000   -1.948000   -1.096000
  H      1.324000   -2.906000   -1.552000
  C      2.908000   -1.650000   -0.833000
  H      3.705000   -2.345000   -1.081000
  C      3.237000   -0.430000   -0.238000
  O      4.568000   -0.191000    0.003000
  H      4.655000    0.689000    0.409000
  C      0.895000    0.171000   -0.178000
  H      0.113000    0.880000    0.080000
  C      2.227000    0.478000    0.098000
  H      2.482000    1.432000    0.560000
  C     -2.406000    1.258000   -0.870000
  O     -2.275000    1.521000   -2.075000
  N     -2.032000    2.123000    0.121000
  C     -1.496000    3.423000   -0.252000
  H     -0.502000    3.558000    0.190000
  H     -1.428000    3.468000   -1.337000
  H     -2.152000    4.221000    0.113000
  C     -2.186000    1.898000    1.550000
  H     -1.220000    2.054000    2.046000
  H     -2.903000    2.615000    1.968000
  H     -2.521000    0.887000    1.770000

----------------------------
CARTESIAN COORDINATES (A.U.)
----------------------------
  NO LB      ZA    FRAG     MASS         X           Y           Z
   0 C     6.0000    0    12.011   -3.654730   -3.055687    2.195862
   1 H     1.0000    0     1.008    0.222988   -4.198971    2.942304
   2 H     1.0000    0     1.008   -1.511781   -6.474202    1.233991
   3 H     1.0000    0     1.008   -2.178854   -5.977204    4.499438
   4 O     8.0000    0    15.999   -5.262887   -2.522784    3.756776
   5 C     6.0000    0    12.011   -1.640282   -5.060687    2.734434
   6 N     7.0000    0    14.007   -3.490324   -1.889726   -0.130391
   7 C     6.0000    0    12.011   -5.553905   -0.211649   -0.878723
   8 H     1.0000    0     1.008   -6.493099   -0.958091   -2.564358
   9 H     1.0000    0     1.008   -6.910728   -0.154958    0.668963
  10 C     6.0000    0    12.011   -1.674297   -2.575697   -2.107045
  11 H     1.0000    0     1.008   -1.857601   -4.586365   -2.600263
  12 H     1.0000    0     1.008   -2.222318   -1.492884   -3.783232
  13 C     6.0000    0    12.011    1.041239   -1.984212   -1.449420
  14 C     6.0000    0    12.011    2.972539   -3.681187   -2.071140
  15 H     1.0000    0     1.008    2.501997   -5.491544   -2.932855
  16 C     6.0000    0    12.011    5.495324   -3.118048   -1.574142
  17 H     1.0000    0     1.008    7.001435   -4.431408   -2.042794
  18 C     6.0000    0    12.011    6.117043   -0.812582   -0.449755
  19 O     8.0000    0    15.999    8.632269   -0.360938    0.005669
  20 H     1.0000    0     1.008    8.796675    1.302021    0.772898
  21 C     6.0000    0    12.011    1.691305    0.323143   -0.336371
  22 H     1.0000    0     1.008    0.213539    1.662959    0.151178
  23 C     6.0000    0    12.011    4.208420    0.903289    0.185193
  24 H     1.0000    0     1.008    4.690300    2.706088    1.058247
  25 C     6.0000    0    12.011   -4.546681    2.377275   -1.644062
  26 O     8.0000    0    15.999   -4.299127    2.874273   -3.921182
  27 N     7.0000    0    14.007   -3.839924    4.011889    0.228657
  28 C     6.0000    0    12.011   -2.827030    6.468533   -0.476211
  29 H     1.0000    0     1.008   -0.948643    6.723646    0.359048
  30 H     1.0000    0     1.008   -2.698529    6.553570   -2.526564
  31 H     1.0000    0     1.008   -4.066691    7.976534    0.213539
  32 C     6.0000    0    12.011   -4.130941    3.586700    2.929076
  33 H     1.0000    0     1.008   -2.305466    3.881497    3.866380
  34 H     1.0000    0     1.008   -5.485875    4.941634    3.718981
  35 H     1.0000    0     1.008   -4.764000    1.676187    3.344815

--------------------------------
INTERNAL COORDINATES (ANGSTROEM)
--------------------------------
 C      0   0   0     0.000000000000     0.00000000     0.00000000
 H      1   0   0     2.175489370234     0.00000000     0.00000000
 H      2   1   0     1.763393319711    66.78149163     0.00000000
 H      3   2   1     1.783188716878    60.36797323   287.98977477
 O      1   2   3     1.219016406780   126.85417235   120.96478273
 C      4   3   2     1.090323805115    35.28857726    36.39078168
 N      1   2   3     1.379716999968   103.11369159   271.90707301
 C      7   1   2     1.462129953185   117.78440683   198.57029400
 H      8   7   1     1.094850674750   109.91186373   242.95758370
 H      8   7   1     1.089580194387   107.77606914     1.45471955
 C      7   1   2     1.466085263551   124.55312644    31.17683099
 H     11   7   1     1.099829986862   110.55050181    56.50863546
 H     11   7   1     1.095078992585   105.94739833   171.97179136
 C     11   7   1     1.511304734327   114.06010719   292.19600722
 C     14  11   7     1.399688894005   120.48187760   139.49776791
 H     15  14  11     1.089816957108   119.70237930   356.29527746
 C     15  14  11     1.392909903763   121.20936453   177.27957199
 H     17  15  14     1.086157447150   121.55165921   179.66107497
 C     17  15  14     1.396662450272   119.54355669   359.58452702
 O     19  17  15     1.373594918453   117.06426205   179.76032831
 H     20  19  17     0.973039053687   108.49393430   179.52757330
 C     14  11   7     1.398605734294   120.77343316   315.96162350
 H     22  14  11     1.086631952411   119.51180879     3.26443389
 C     22  14  11     1.394506722824   120.69569226   182.34115623
 H     24  22  14     1.090222454364   119.99515797   180.17681020
 C      8   7   1     1.524799658972   110.88824273   126.75509856
 O     26   8   7     1.240304398122   119.04429249    99.86442873
 N     26   8   7     1.367545977289   118.12701476   282.93610740
 C     28  26   8     1.454793799822   118.69729449   178.75329735
 H     29  28  26     1.096186571711   109.92315980   236.55947659
 H     29  28  26     1.088059741007   108.40043220   356.69595469
 H     29  28  26     1.095611701288   110.17211637   116.92074672
 C     28  26   8     1.454779021020   125.80561205   355.14944842
 H     33  28  26     1.097045122135   109.20237858   127.47451978
 H     33  28  26     1.096768890879   110.02685084   245.94854544
 H     33  28  26     1.087541263585   112.02999377     7.65318024

---------------------------
INTERNAL COORDINATES (A.U.)
---------------------------
 C      0   0   0     0.000000000000     0.00000000     0.00000000
 H      1   0   0     4.111079116999     0.00000000     0.00000000
 H      2   1   0     3.332330440639    66.78149163     0.00000000
 H      3   2   1     3.369738319997    60.36797323   287.98977477
 O      1   2   3     2.303607161572   126.85417235   120.96478273
 C      4   3   2     2.060413388962    35.28857726    36.39078168
 N      1   2   3     2.607287272254   103.11369159   271.90707301
 C      7   1   2     2.763025183722   117.78440683   198.57029400
 H      8   7   1     2.068967932816   109.91186373   242.95758370
 H      8   7   1     2.059008168336   107.77606914     1.45471955
 C      7   1   2     2.770499637088   124.55312644    31.17683099
 H     11   7   1     2.078377469043   110.55050181    56.50863546
 H     11   7   1     2.069399390995   105.94739833   171.97179136
 C     11   7   1     2.855952052777   114.06010719   292.19600722
 C     14  11   7     2.645028682360   120.48187760   139.49776791
 H     15  14  11     2.059455585037   119.70237930   356.29527746
 C     15  14  11     2.632218247338   121.20936453   177.27957199
 H     17  15  14     2.052540113433   121.55165921   179.66107497
 C     17  15  14     2.639309532546   119.54355669   359.58452702
 O     19  17  15     2.595718214822   117.06426205   179.76032831
 H     20  19  17     1.838777329078   108.49393430   179.52757330
 C     14  11   7     2.642981807147   120.77343316   315.96162350
 H     22  14  11     2.053436798424   119.51180879     3.26443389
 C     22  14  11     2.635235798048   120.69569226   182.34115623
 H     24  22  14     2.060221863800   119.99515797   180.17681020
 C      8   7   1     2.881453764553   110.88824273   126.75509856
 O     26   8   7     2.343835635148   119.04429249    99.86442873
 N     26   8   7     2.584287372622   118.12701476   282.93610740
 C     28  26   8     2.749161862990   118.69729449   178.75329735
 H     29  28  26     2.071492412216   109.92315980   236.55947659
 H     29  28  26     2.056134927848   108.40043220   356.69595469
 H     29  28  26     2.070406064555   110.17211637   116.92074672
 C     28  26   8     2.749133935102   125.80561205   355.14944842
 H     33  28  26     2.073114837389   109.20237858   127.47451978
 H     33  28  26     2.072592835966   110.02685084   245.94854544
 H     33  28  26     2.055155147514   112.02999377     7.65318024

---------------------
BASIS SET INFORMATION
---------------------
There are 4 groups of distinct atoms

 Group   1 Type C   : 10s4p1d contracted to 3s2p1d pattern {631/31/1}
 Group   2 Type H   : 4s contracted to 2s pattern {31}
 Group   3 Type O   : 10s4p1d contracted to 3s2p1d pattern {631/31/1}
 Group   4 Type N   : 10s4p1d contracted to 3s2p1d pattern {631/31/1}

Atom   0C    basis set group =>   1
Atom   1H    basis set group =>   2
Atom   2H    basis set group =>   2
Atom   3H    basis set group =>   2
Atom   4O    basis set group =>   3
Atom   5C    basis set group =>   1
Atom   6N    basis set group =>   4
Atom   7C    basis set group =>   1
Atom   8H    basis set group =>   2
Atom   9H    basis set group =>   2
Atom  10C    basis set group =>   1
Atom  11H    basis set group =>   2
Atom  12H    basis set group =>   2
Atom  13C    basis set group =>   1
Atom  14C    basis set group =>   1
Atom  15H    basis set group =>   2
Atom  16C    basis set group =>   1
Atom  17H    basis set group =>   2
Atom  18C    basis set group =>   1
Atom  19O    basis set group =>   3
Atom  20H    basis set group =>   2
Atom  21C    basis set group =>   1
Atom  22H    basis set group =>   2
Atom  23C    basis set group =>   1
Atom  24H    basis set group =>   2
Atom  25C    basis set group =>   1
Atom  26O    basis set group =>   3
Atom  27N    basis set group =>   4
Atom  28C    basis set group =>   1
Atom  29H    basis set group =>   2
Atom  30H    basis set group =>   2
Atom  31H    basis set group =>   2
Atom  32C    basis set group =>   1
Atom  33H    basis set group =>   2
Atom  34H    basis set group =>   2
Atom  35H    basis set group =>   2
---------------------------------
AUXILIARY/J BASIS SET INFORMATION
---------------------------------
There are 4 groups of distinct atoms

 Group   1 Type C   : 13s11p10d2f contracted to 13s11p10d2f pattern {1111111111111/11111111111/1111111111/11}
 Group   2 Type H   : 9s2p contracted to 9s2p pattern {111111111/11}
 Group   3 Type O   : 14s11p10d2f contracted to 14s11p10d2f pattern {11111111111111/11111111111/1111111111/11}
 Group   4 Type N   : 14s11p10d2f contracted to 14s11p10d2f pattern {11111111111111/11111111111/1111111111/11}

Atom   0C    basis set group =>   1
Atom   1H    basis set group =>   2
Atom   2H    basis set group =>   2
Atom   3H    basis set group =>   2
Atom   4O    basis set group =>   3
Atom   5C    basis set group =>   1
Atom   6N    basis set group =>   4
Atom   7C    basis set group =>   1
Atom   8H    basis set group =>   2
Atom   9H    basis set group =>   2
Atom  10C    basis set group =>   1
Atom  11H    basis set group =>   2
Atom  12H    basis set group =>   2
Atom  13C    basis set group =>   1
Atom  14C    basis set group =>   1
Atom  15H    basis set group =>   2
Atom  16C    basis set group =>   1
Atom  17H    basis set group =>   2
Atom  18C    basis set group =>   1
Atom  19O    basis set group =>   3
Atom  20H    basis set group =>   2
Atom  21C    basis set group =>   1
Atom  22H    basis set group =>   2
Atom  23C    basis set group =>   1
Atom  24H    basis set group =>   2
Atom  25C    basis set group =>   1
Atom  26O    basis set group =>   3
Atom  27N    basis set group =>   4
Atom  28C    basis set group =>   1
Atom  29H    basis set group =>   2
Atom  30H    basis set group =>   2
Atom  31H    basis set group =>   2
Atom  32C    basis set group =>   1
Atom  33H    basis set group =>   2
Atom  34H    basis set group =>   2
Atom  35H    basis set group =>   2
---------------------------------
AUXILIARY/C BASIS SET INFORMATION
---------------------------------
There are 4 groups of distinct atoms

 Group   1 Type C   : 13s11p10d2f contracted to 13s11p10d2f pattern {1111111111111/11111111111/1111111111/11}
 Group   2 Type H   : 9s2p contracted to 9s2p pattern {111111111/11}
 Group   3 Type O   : 14s11p10d2f contracted to 14s11p10d2f pattern {11111111111111/11111111111/1111111111/11}
 Group   4 Type N   : 14s11p10d2f contracted to 14s11p10d2f pattern {11111111111111/11111111111/1111111111/11}

Atom   0C    basis set group =>   1
Atom   1H    basis set group =>   2
Atom   2H    basis set group =>   2
Atom   3H    basis set group =>   2
Atom   4O    basis set group =>   3
Atom   5C    basis set group =>   1
Atom   6N    basis set group =>   4
Atom   7C    basis set group =>   1
Atom   8H    basis set group =>   2
Atom   9H    basis set group =>   2
Atom  10C    basis set group =>   1
Atom  11H    basis set group =>   2
Atom  12H    basis set group =>   2
Atom  13C    basis set group =>   1
Atom  14C    basis set group =>   1
Atom  15H    basis set group =>   2
Atom  16C    basis set group =>   1
Atom  17H    basis set group =>   2
Atom  18C    basis set group =>   1
Atom  19O    basis set group =>   3
Atom  20H    basis set group =>   2
Atom  21C    basis set group =>   1
Atom  22H    basis set group =>   2
Atom  23C    basis set group =>   1
Atom  24H    basis set group =>   2
Atom  25C    basis set group =>   1
Atom  26O    basis set group =>   3
Atom  27N    basis set group =>   4
Atom  28C    basis set group =>   1
Atom  29H    basis set group =>   2
Atom  30H    basis set group =>   2
Atom  31H    basis set group =>   2
Atom  32C    basis set group =>   1
Atom  33H    basis set group =>   2
Atom  34H    basis set group =>   2
Atom  35H    basis set group =>   2
----------------------------------
AUXILIARY/JK BASIS SET INFORMATION
----------------------------------
There are 4 groups of distinct atoms

 Group   1 Type C   : 13s11p10d2f contracted to 13s11p10d2f pattern {1111111111111/11111111111/1111111111/11}
 Group   2 Type H   : 9s2p contracted to 9s2p pattern {111111111/11}
 Group   3 Type O   : 14s11p10d2f contracted to 14s11p10d2f pattern {11111111111111/11111111111/1111111111/11}
 Group   4 Type N   : 14s11p10d2f contracted to 14s11p10d2f pattern {11111111111111/11111111111/1111111111/11}

Atom   0C    basis set group =>   1
Atom   1H    basis set group =>   2
Atom   2H    basis set group =>   2
Atom   3H    basis set group =>   2
Atom   4O    basis set group =>   3
Atom   5C    basis set group =>   1
Atom   6N    basis set group =>   4
Atom   7C    basis set group =>   1
Atom   8H    basis set group =>   2
Atom   9H    basis set group =>   2
Atom  10C    basis set group =>   1
Atom  11H    basis set group =>   2
Atom  12H    basis set group =>   2
Atom  13C    basis set group =>   1
Atom  14C    basis set group =>   1
Atom  15H    basis set group =>   2
Atom  16C    basis set group =>   1
Atom  17H    basis set group =>   2
Atom  18C    basis set group =>   1
Atom  19O    basis set group =>   3
Atom  20H    basis set group =>   2
Atom  21C    basis set group =>   1
Atom  22H    basis set group =>   2
Atom  23C    basis set group =>   1
Atom  24H    basis set group =>   2
Atom  25C    basis set group =>   1
Atom  26O    basis set group =>   3
Atom  27N    basis set group =>   4
Atom  28C    basis set group =>   1
Atom  29H    basis set group =>   2
Atom  30H    basis set group =>   2
Atom  31H    basis set group =>   2
Atom  32C    basis set group =>   1
Atom  33H    basis set group =>   2
Atom  34H    basis set group =>   2
Atom  35H    basis set group =>   2


           ************************************************************
           *        Program running with 4 parallel MPI-processes     *
           *              working on a common directory               *
           ************************************************************
------------------------------------------------------------------------------
                           ORCA GTO INTEGRAL CALCULATION
                           -- RI-GTO INTEGRALS CHOSEN --
------------------------------------------------------------------------------
------------------------------------------------------------------------------
                   ___                                                        
                  /   \      - P O W E R E D   B Y -                         
                 /     \                                                     
                 |  |  |   _    _      __       _____    __    __             
                 |  |  |  | |  | |    /  \     |  _  \  |  |  /  |          
                  \  \/   | |  | |   /    \    | | | |  |  | /  /          
                 / \  \   | |__| |  /  /\  \   | |_| |  |  |/  /          
                |  |  |   |  __  | /  /__\  \  |    /   |      \           
                |  |  |   | |  | | |   __   |  |    \   |  |\   \          
                \     /   | |  | | |  |  |  |  | |\  \  |  | \   \       
                 \___/    |_|  |_| |__|  |__|  |_| \__\ |__|  \__/        
                                                                              
                      - O R C A' S   B I G   F R I E N D -                    
                                      &                                       
                       - I N T E G R A L  F E E D E R -                       
                                                                              
 v1 FN, 2020, v2 2021                                                         
------------------------------------------------------------------------------


Reading SHARK input file Ny_water.SHARKINP.tmp ... ok
----------------------
SHARK INTEGRAL PACKAGE
----------------------

Number of atoms                             ...     36
Number of basis functions                   ...    288
Number of shells                            ...    144
Maximum angular momentum                    ...      2
Integral batch strategy                     ... SHARK/LIBINT Hybrid
RI-J (if used) integral strategy            ... SPLIT-RIJ (Revised 2003 algorithm where possible)
Printlevel                                  ...      1
Contraction scheme used                     ... SEGMENTED contraction
Coulomb Range Separation                    ... NOT USED
Exchange Range Separation                   ... NOT USED
Finite Nucleus Model                        ... NOT USED
Auxiliary Coulomb fitting basis             ... AVAILABLE
   # of basis functions in Aux-J            ...   2255
   # of shells in Aux-J                     ...    851
   Maximum angular momentum in Aux-J        ...      3
Auxiliary J/K fitting basis                 ... AVAILABLE
   # of basis functions in Aux-JK           ...   2255
   # of shells in Aux-JK                    ...    851
   Maximum angular momentum in Aux-JK       ...      3
Auxiliary Correlation fitting basis         ... AVAILABLE
   # of basis functions in Aux-C            ...   2255
   # of shells in Aux-C                     ...    851
   Maximum angular momentum in Aux-C        ...      3
Auxiliary 'external' fitting basis          ... NOT available
Integral threshold                          ...     2.500000e-11
Primitive cut-off                           ...     2.500000e-12
Primitive pair pre-selection threshold      ...     2.500000e-12

Calculating pre-screening integrals         ... done (  0.0 sec) Dimension = 144
Organizing shell pair data                  ... done (  0.1 sec)
Shell pair information
Total number of shell pairs                 ...     10440
Shell pairs after pre-screening             ...      8529
Total number of primitive shell pairs       ...     59085
Primitive shell pairs kept                  ...     27284
          la=0 lb=0:   3210 shell pairs
          la=1 lb=0:   2817 shell pairs
          la=1 lb=1:    620 shell pairs
          la=2 lb=0:   1205 shell pairs
          la=2 lb=1:    556 shell pairs
          la=2 lb=2:    121 shell pairs

Calculating one electron integrals          ... done (  0.0 sec)
Calculating RI/J V-Matrix + Cholesky decomp.... done (  0.3 sec)
Calculating RI/JK V-Matrix + Cholesky decomp... done (  0.3 sec)
Calculating RI/C V-Matrix + Cholesky decomp.... done (  0.3 sec)
Calculating Nuclear repulsion               ... done (  0.0 sec) ENN=   1377.702029999522 Eh

SHARK setup successfully completed in   1.3 seconds

Maximum memory used throughout the entire GTOINT-calculation: 43.3 MB


           ************************************************************
           *        Program running with 4 parallel MPI-processes     *
           *              working on a common directory               *
           ************************************************************
-------------------------------------------------------------------------------
                                 ORCA SCF
-------------------------------------------------------------------------------

------------
SCF SETTINGS
------------
Hamiltonian:
 Density Functional     Method          .... DFT(GTOs)
 Exchange Functional    Exchange        .... B88
   X-Alpha parameter    XAlpha          ....  0.666667
   Becke's b parameter  XBeta           ....  0.004200
 Correlation Functional Correlation     .... LYP
 LDA part of GGA corr.  LDAOpt          .... VWN-5
 Gradients option       PostSCFGGA      .... off
 Hybrid DFT is turned on
   Fraction HF Exchange ScalHFX         ....  0.200000
   Scaling of DF-GGA-X  ScalDFX         ....  0.720000
   Scaling of DF-GGA-C  ScalDFC         ....  0.810000
   Scaling of DF-LDA-C  ScalLDAC        ....  1.000000
   Perturbative correction              ....  0.000000
   Density functional embedding theory  .... OFF
   NL short-range parameter             ....  4.800000
 RI-approximation to the Coulomb term is turned on
   Number of AuxJ basis functions       .... 2255
   RIJ-COSX (HFX calculated with COS-X)).... on


General Settings:
 Integral files         IntName         .... Ny_water
 Hartree-Fock type      HFTyp           .... RHF
 Total Charge           Charge          ....    0
 Multiplicity           Mult            ....    1
 Number of Electrons    NEL             ....  134
 Basis Dimension        Dim             ....  288
 Nuclear Repulsion      ENuc            ....   1377.7020299995 Eh

Convergence Acceleration:
 DIIS                   CNVDIIS         .... on
   Start iteration      DIISMaxIt       ....    12
   Startup error        DIISStart       ....  0.200000
   # of expansion vecs  DIISMaxEq       ....     5
   Bias factor          DIISBfac        ....   1.050
   Max. coefficient     DIISMaxC        ....  10.000
 Trust-Rad. Augm. Hess. CNVTRAH         .... auto
   Auto Start mean grad. ratio tolernc. ....  1.125000
   Auto Start start iteration           ....    20
   Auto Start num. interpolation iter.  ....    10
   Max. Number of Micro iterations      ....    16
   Max. Number of Macro iterations      .... Maxiter - #DIIS iter
   Number of Davidson start vectors     ....     2
   Converg. threshold I  (grad. norm)   ....   1.000e-05
   Converg. threshold II (energy diff.) ....   1.000e-08
   Grad. Scal. Fac. for Micro threshold ....   0.100
   Minimum threshold for Micro iter.    ....   0.010
   NR start threshold (gradient norm)   ....   0.001
   Initial trust radius                 ....   0.400
   Minimum AH scaling param. (alpha)    ....   1.000
   Maximum AH scaling param. (alpha)    .... 1000.000
   Orbital update algorithm             .... Taylor
   White noise on init. David. guess    .... on
   Maximum white noise                  ....   0.010
   Quad. conv. algorithm                .... NR
 SOSCF                  CNVSOSCF        .... on
   Start iteration      SOSCFMaxIt      ....   150
   Startup grad/error   SOSCFStart      ....  0.003300
 Level Shifting         CNVShift        .... on
   Level shift para.    LevelShift      ....    0.2500
   Turn off err/grad.   ShiftErr        ....    0.0010
 Zerner damping         CNVZerner       .... off
 Static damping         CNVDamp         .... on
   Fraction old density DampFac         ....    0.7000
   Max. Damping (<1)    DampMax         ....    0.9800
   Min. Damping (>=0)   DampMin         ....    0.0000
   Turn off err/grad.   DampErr         ....    0.1000
 Fernandez-Rico         CNVRico         .... off

SCF Procedure:
 Maximum # iterations   MaxIter         ....   125
 SCF integral mode      SCFMode         .... Direct
   Integral package                     .... SHARK and LIBINT hybrid scheme
 Reset frequency        DirectResetFreq ....    20
 Integral Threshold     Thresh          ....  2.500e-11 Eh
 Primitive CutOff       TCut            ....  2.500e-12 Eh

Convergence Tolerance:
 Convergence Check Mode ConvCheckMode   .... Total+1el-Energy
 Convergence forced     ConvForced      .... 0
 Energy Change          TolE            ....  1.000e-08 Eh
 1-El. energy change                    ....  1.000e-05 Eh
 Orbital Gradient       TolG            ....  1.000e-05
 Orbital Rotation angle TolX            ....  1.000e-05
 DIIS Error             TolErr          ....  5.000e-07


Diagonalization of the overlap matrix:
Smallest eigenvalue                        ... 4.326e-04
Time for diagonalization                   ...    0.013 sec
Threshold for overlap eigenvalues          ... 1.000e-08
Number of eigenvalues below threshold      ... 0
Time for construction of square roots      ...    0.006 sec
Total time needed                          ...    0.020 sec

Time for model grid setup =    0.319 sec

------------------------------
INITIAL GUESS: MODEL POTENTIAL
------------------------------
Loading Hartree-Fock densities                     ... done
Calculating cut-offs                               ... done
Initializing the effective Hamiltonian             ... done
Setting up the integral package (SHARK)            ... done
Starting the Coulomb interaction                   ... done (   0.2 sec)
Reading the grid                                   ... done
Mapping shells                                     ... done
Starting the XC term evaluation                    ... done (   0.2 sec)
  promolecular density results
     # of electrons  =    133.986885121
     EX              =   -109.965859251
     EC              =     -4.556635763
     EX+EC           =   -114.522495013
Transforming the Hamiltonian                       ... done (   0.0 sec)
Diagonalizing the Hamiltonian                      ... done (   0.0 sec)
Back transforming the eigenvectors                 ... done (   0.0 sec)
Now organizing SCF variables                       ... done
                      ------------------
                      INITIAL GUESS DONE (   1.3 sec)
                      ------------------
-------------------
DFT GRID GENERATION
-------------------

General Integration Accuracy     IntAcc      ... 4.388
Radial Grid Type                 RadialGrid  ... OptM3 with GC (2021)
Angular Grid (max. ang.)         AngularGrid ... 4 (Lebedev-302)
Angular grid pruning method      GridPruning ... 4 (adaptive)
Weight generation scheme         WeightScheme... Becke
Basis function cutoff            BFCut       ... 1.0000e-11
Integration weight cutoff        WCut        ... 1.0000e-14
Angular grids for H and He will be reduced by one unit
Partially contracted basis set               ... off
Rotationally invariant grid construction     ... off

Total number of grid points                  ...   164681
Total number of batches                      ...     2593
Average number of points per batch           ...       63
Average number of grid points per atom       ...     4574
Time for grid setup =    1.259 sec

--------------------
COSX GRID GENERATION
--------------------

GRIDX 1
-------
General Integration Accuracy     IntAcc      ... 3.816
Radial Grid Type                 RadialGrid  ... OptM3 with GC (2021)
Angular Grid (max. ang.)         AngularGrid ... 1 (Lebedev-50)
Angular grid pruning method      GridPruning ... 4 (adaptive)
Weight generation scheme         WeightScheme... Becke
Basis function cutoff            BFCut       ... 1.0000e-11
Integration weight cutoff        WCut        ... 1.0000e-14
Angular grids for H and He will be reduced by one unit
Partially contracted basis set               ... on
Rotationally invariant grid construction     ... off

Total number of grid points                  ...    20957
Total number of batches                      ...      345
Average number of points per batch           ...       60
Average number of grid points per atom       ...      582
UseSFitting                                  ... on

GRIDX 2
-------
General Integration Accuracy     IntAcc      ... 4.020
Radial Grid Type                 RadialGrid  ... OptM3 with GC (2021)
Angular Grid (max. ang.)         AngularGrid ... 2 (Lebedev-110)
Angular grid pruning method      GridPruning ... 4 (adaptive)
Weight generation scheme         WeightScheme... Becke
Basis function cutoff            BFCut       ... 1.0000e-11
Integration weight cutoff        WCut        ... 1.0000e-14
Angular grids for H and He will be reduced by one unit
Partially contracted basis set               ... on
Rotationally invariant grid construction     ... off

Total number of grid points                  ...    44804
Total number of batches                      ...      717
Average number of points per batch           ...       62
Average number of grid points per atom       ...     1245
UseSFitting                                  ... on

GRIDX 3
-------
General Integration Accuracy     IntAcc      ... 4.338
Radial Grid Type                 RadialGrid  ... OptM3 with GC (2021)
Angular Grid (max. ang.)         AngularGrid ... 3 (Lebedev-194)
Angular grid pruning method      GridPruning ... 4 (adaptive)
Weight generation scheme         WeightScheme... Becke
Basis function cutoff            BFCut       ... 1.0000e-11
Integration weight cutoff        WCut        ... 1.0000e-14
Angular grids for H and He will be reduced by one unit
Partially contracted basis set               ... on
Rotationally invariant grid construction     ... off

Total number of grid points                  ...    97741
Total number of batches                      ...     1545
Average number of points per batch           ...       63
Average number of grid points per atom       ...     2715
UseSFitting                                  ... on

Time for X-Grid setup             =    3.750 sec


--------------------
CPCM SOLVATION MODEL
--------------------
CPCM parameters:
  Epsilon                                         ...      80.4000
  Refrac                                          ...       1.3300
  Rsolv                                           ...       1.3000
  Surface type                                    ... GAUSSIAN VDW
  Epsilon function type                           ...         CPCM
Radii:
 Radius for C  used is    3.8550 Bohr (=   2.0400 Ang.)
 Radius for H  used is    2.4944 Bohr (=   1.3200 Ang.)
 Radius for O  used is    3.4469 Bohr (=   1.8240 Ang.)
 Radius for N  used is    3.5149 Bohr (=   1.8600 Ang.)
Calculating surface                               ...        done! (  0.0s)
GEPOL surface points                              ...         1862
GEPOL Volume                                      ...    2049.4061
GEPOL Surface-area                                ...    1047.3881
Calculating surface distance matrix               ...        done! (  0.0s)
Performing Cholesky decomposition & store         ...        done! (  0.1s)
Overall time for CPCM initialization              ...                 0.2s
--------------
SCF ITERATIONS
--------------
ITER       Energy         Delta-E        Max-DP      RMS-DP      [F,P]     Damp
               ***  Starting incremental Fock matrix formation  ***
  0   -840.4398744758   0.000000000000 0.09782447  0.00185189  0.2769664 0.7000
  1   -840.6615229533  -0.221648477426 0.05637810  0.00123865  0.1127584 0.7000
                               ***Turning on DIIS***
  2   -840.7495303456  -0.088007392339 0.06290483  0.00196929  0.0370240 0.0000
  3   -840.8903484234  -0.140818077799 0.03802014  0.00084265  0.0549418 0.0000
  4   -840.9181213447  -0.027772921256 0.00911080  0.00027615  0.0146455 0.0000
  5   -840.9200190475  -0.001897702865 0.00376707  0.00008572  0.0059025 0.0000
                      *** Initiating the SOSCF procedure ***
                           *** Shutting down DIIS ***
                      *** Re-Reading the Fockian *** 
                      *** Removing any level shift *** 
ITER      Energy       Delta-E        Grad      Rot      Max-DP    RMS-DP
  6   -840.92014158  -0.0001225282  0.000200  0.000200  0.001093  0.000027
               *** Restarting incremental Fock matrix formation ***
  7   -840.92011230   0.0000292732  0.000102  0.000237  0.000732  0.000016
  8   -840.92011215   0.0000001527  0.000162  0.000270  0.000561  0.000007
  9   -840.92011371  -0.0000015554  0.000033  0.000085  0.000207  0.000004
 10   -840.92011361   0.0000000904  0.000065  0.000063  0.000144  0.000002
 11   -840.92011376  -0.0000001473  0.000006  0.000010  0.000022  0.000001
 12   -840.92011377  -0.0000000107  0.000004  0.000007  0.000010  0.000000
                  ***Gradient check signals convergence***
              ***Rediagonalizing the Fockian in SOSCF/NRSCF***

               *****************************************************
               *                     SUCCESS                       *
               *           SCF CONVERGED AFTER  13 CYCLES          *
               *****************************************************

Old exchange energy                            =    -22.370614809 Eh
New exchange energy                            =    -22.370653973 Eh
Exchange energy change after final integration =     -0.000039163 Eh
Total energy after final integration           =   -840.920152936 Eh
Final COS-X integration done in                =    13.210 sec

----------------
TOTAL SCF ENERGY
----------------

Total Energy       :         -840.92015294 Eh          -22882.60069 eV

Components:
Nuclear Repulsion  :         1377.70203000 Eh           37489.17815 eV
Electronic Energy  :        -2218.62218294 Eh          -60371.77884 eV
One Electron Energy:        -3880.98918476 Eh         -105607.08468 eV
Two Electron Energy:         1662.36700183 Eh           45235.30584 eV
Max COSX asymmetry :            0.00000294 Eh               0.00008 eV
CPCM Dielectric    :           -0.02580512 Eh              -0.70219 eV

Virial components:
Potential Energy   :        -1676.93899882 Eh          -45631.83004 eV
Kinetic Energy     :          836.01884588 Eh           22749.22934 eV
Virial Ratio       :            2.00586268


DFT components:
N(Alpha)           :       67.000008920596 electrons
N(Beta)            :       67.000008920596 electrons
N(Total)           :      134.000017841193 electrons
E(X)               :      -88.855362409213 Eh       
E(C)               :       -5.366600861173 Eh       
E(XC)              :      -94.221963270387 Eh       
DFET-embed. en.    :        0.000000000000 Eh       
CPCM Solvation Model Properties:
Surface-charge          :           -0.01930244
Charge-correction       :           -0.00006086 Eh              -0.00166 eV
Free-energy (cav+disp)  :  This term is not implemented in the current solvation scheme

---------------
SCF CONVERGENCE
---------------

  Last Energy change         ...    6.4119e-10  Tolerance :   1.0000e-08
  Last MAX-Density change    ...    4.4409e-15  Tolerance :   1.0000e-07
  Last RMS-Density change    ...    4.4664e-17  Tolerance :   5.0000e-09
  Last Orbital Gradient      ...    1.0461e-06  Tolerance :   1.0000e-05
  Last Orbital Rotation      ...    3.7847e-06  Tolerance :   1.0000e-05

             **** THE GBW FILE WAS UPDATED (Ny_water.gbw) ****
             **** DENSITY Ny_water.scfp WAS UPDATED ****
             **** ENERGY FILE WAS UPDATED (Ny_water.en.tmp) ****
             **** THE GBW FILE WAS UPDATED (Ny_water.gbw) ****
             **** DENSITY Ny_water.scfp WAS UPDATED ****
----------------
ORBITAL ENERGIES
----------------

  NO   OCC          E(Eh)            E(eV) 
   0   2.0000     -19.165817      -521.5284 
   1   2.0000     -19.115801      -520.1674 
   2   2.0000     -19.110388      -520.0201 
   3   2.0000     -14.360737      -390.7755 
   4   2.0000     -14.359937      -390.7538 
   5   2.0000     -10.285204      -279.8746 
   6   2.0000     -10.281265      -279.7674 
   7   2.0000     -10.240971      -278.6710 
   8   2.0000     -10.214159      -277.9414 
   9   2.0000     -10.210648      -277.8458 
  10   2.0000     -10.198117      -277.5049 
  11   2.0000     -10.194613      -277.4095 
  12   2.0000     -10.182428      -277.0779 
  13   2.0000     -10.180851      -277.0350 
  14   2.0000     -10.179636      -277.0020 
  15   2.0000     -10.178479      -276.9705 
  16   2.0000     -10.175386      -276.8863 
  17   2.0000     -10.169491      -276.7259 
  18   2.0000      -1.049209       -28.5504 
  19   2.0000      -1.042191       -28.3594 
  20   2.0000      -1.028745       -27.9936 
  21   2.0000      -0.936707       -25.4891 
  22   2.0000      -0.928487       -25.2654 
  23   2.0000      -0.848426       -23.0869 
  24   2.0000      -0.768457       -20.9108 
  25   2.0000      -0.749579       -20.3971 
  26   2.0000      -0.743469       -20.2308 
  27   2.0000      -0.718602       -19.5541 
  28   2.0000      -0.707298       -19.2465 
  29   2.0000      -0.684163       -18.6170 
  30   2.0000      -0.667182       -18.1549 
  31   2.0000      -0.617609       -16.8060 
  32   2.0000      -0.593804       -16.1582 
  33   2.0000      -0.548751       -14.9323 
  34   2.0000      -0.537572       -14.6281 
  35   2.0000      -0.531422       -14.4607 
  36   2.0000      -0.511214       -13.9108 
  37   2.0000      -0.495139       -13.4734 
  38   2.0000      -0.483015       -13.1435 
  39   2.0000      -0.475297       -12.9335 
  40   2.0000      -0.466422       -12.6920 
  41   2.0000      -0.460061       -12.5189 
  42   2.0000      -0.449049       -12.2193 
  43   2.0000      -0.440179       -11.9779 
  44   2.0000      -0.427736       -11.6393 
  45   2.0000      -0.416522       -11.3341 
  46   2.0000      -0.412804       -11.2330 
  47   2.0000      -0.407390       -11.0857 
  48   2.0000      -0.403476       -10.9791 
  49   2.0000      -0.399896       -10.8817 
  50   2.0000      -0.397545       -10.8177 
  51   2.0000      -0.394181       -10.7262 
  52   2.0000      -0.392281       -10.6745 
  53   2.0000      -0.385967       -10.5027 
  54   2.0000      -0.376107       -10.2344 
  55   2.0000      -0.370588       -10.0842 
  56   2.0000      -0.361506        -9.8371 
  57   2.0000      -0.357424        -9.7260 
  58   2.0000      -0.349111        -9.4998 
  59   2.0000      -0.333134        -9.0650 
  60   2.0000      -0.323610        -8.8059 
  61   2.0000      -0.262116        -7.1326 
  62   2.0000      -0.257326        -7.0022 
  63   2.0000      -0.250373        -6.8130 
  64   2.0000      -0.242689        -6.6039 
  65   2.0000      -0.235015        -6.3951 
  66   2.0000      -0.213461        -5.8086 
  67   0.0000      -0.001742        -0.0474 
  68   0.0000       0.010829         0.2947 
  69   0.0000       0.015808         0.4301 
  70   0.0000       0.028689         0.7807 
  71   0.0000       0.086997         2.3673 
  72   0.0000       0.095030         2.5859 
  73   0.0000       0.108474         2.9517 
  74   0.0000       0.120917         3.2903 
  75   0.0000       0.131926         3.5899 
  76   0.0000       0.144580         3.9342 
  77   0.0000       0.152463         4.1487 
  78   0.0000       0.156015         4.2454 
  79   0.0000       0.159350         4.3361 
  80   0.0000       0.163336         4.4446 
  81   0.0000       0.168983         4.5983 
  82   0.0000       0.174126         4.7382 
  83   0.0000       0.177920         4.8415 
  84   0.0000       0.180051         4.8994 
  85   0.0000       0.183000         4.9797 
  86   0.0000       0.193931         5.2771 
  87   0.0000       0.197276         5.3682 
  88   0.0000       0.205767         5.5992 
  89   0.0000       0.209068         5.6890 
  90   0.0000       0.218354         5.9417 
  91   0.0000       0.223110         6.0711 
  92   0.0000       0.233118         6.3435 
  93   0.0000       0.238848         6.4994 
  94   0.0000       0.253147         6.8885 
  95   0.0000       0.264326         7.1927 
  96   0.0000       0.271757         7.3949 
  97   0.0000       0.278296         7.5728 
  98   0.0000       0.319617         8.6972 
  99   0.0000       0.335063         9.1175 
 100   0.0000       0.339705         9.2439 
 101   0.0000       0.350248         9.5307 
 102   0.0000       0.361595         9.8395 
 103   0.0000       0.369149        10.0451 
 104   0.0000       0.385028        10.4771 
 105   0.0000       0.417495        11.3606 
 106   0.0000       0.478540        13.0217 
 107   0.0000       0.492992        13.4150 
 108   0.0000       0.498964        13.5775 
 109   0.0000       0.503772        13.7083 
 110   0.0000       0.515552        14.0289 
 111   0.0000       0.520937        14.1754 
 112   0.0000       0.524771        14.2797 
 113   0.0000       0.534834        14.5536 
 114   0.0000       0.542613        14.7652 
 115   0.0000       0.546738        14.8775 
 116   0.0000       0.555613        15.1190 
 117   0.0000       0.563522        15.3342 
 118   0.0000       0.582741        15.8572 
 119   0.0000       0.586418        15.9572 
 120   0.0000       0.607943        16.5430 
 121   0.0000       0.609593        16.5879 
 122   0.0000       0.614128        16.7113 
 123   0.0000       0.618476        16.8296 
 124   0.0000       0.632622        17.2145 
 125   0.0000       0.641190        17.4477 
 126   0.0000       0.651032        17.7155 
 127   0.0000       0.661174        17.9914 
 128   0.0000       0.664593        18.0845 
 129   0.0000       0.672523        18.3003 
 130   0.0000       0.684514        18.6266 
 131   0.0000       0.695256        18.9189 
 132   0.0000       0.711495        19.3608 
 133   0.0000       0.720962        19.6184 
 134   0.0000       0.744100        20.2480 
 135   0.0000       0.744988        20.2721 
 136   0.0000       0.752414        20.4742 
 137   0.0000       0.761007        20.7081 
 138   0.0000       0.765692        20.8355 
 139   0.0000       0.781929        21.2774 
 140   0.0000       0.785525        21.3752 
 141   0.0000       0.813387        22.1334 
 142   0.0000       0.816390        22.2151 
 143   0.0000       0.827154        22.5080 
 144   0.0000       0.835935        22.7469 
 145   0.0000       0.845815        23.0158 
 146   0.0000       0.850459        23.1422 
 147   0.0000       0.862732        23.4761 
 148   0.0000       0.871648        23.7187 
 149   0.0000       0.876643        23.8547 
 150   0.0000       0.882629        24.0176 
 151   0.0000       0.893432        24.3115 
 152   0.0000       0.896764        24.4022 
 153   0.0000       0.905588        24.6423 
 154   0.0000       0.910754        24.7829 
 155   0.0000       0.919709        25.0266 
 156   0.0000       0.921791        25.0832 
 157   0.0000       0.929114        25.2825 
 158   0.0000       0.945814        25.7369 
 159   0.0000       0.956319        26.0228 
 160   0.0000       0.965916        26.2839 
 161   0.0000       0.972552        26.4645 
 162   0.0000       0.973734        26.4967 
 163   0.0000       0.985911        26.8280 
 164   0.0000       0.998477        27.1699 
 165   0.0000       1.000682        27.2299 
 166   0.0000       1.007667        27.4200 
 167   0.0000       1.013732        27.5850 
 168   0.0000       1.041283        28.3348 
 169   0.0000       1.050185        28.5770 
 170   0.0000       1.063017        28.9262 
 171   0.0000       1.079749        29.3815 
 172   0.0000       1.094559        29.7845 
 173   0.0000       1.113430        30.2980 
 174   0.0000       1.129501        30.7353 
 175   0.0000       1.142641        31.0928 
 176   0.0000       1.162086        31.6220 
 177   0.0000       1.180367        32.1194 
 178   0.0000       1.202569        32.7236 
 179   0.0000       1.220677        33.2163 
 180   0.0000       1.239778        33.7361 
 181   0.0000       1.247668        33.9508 
 182   0.0000       1.262881        34.3647 
 183   0.0000       1.280318        34.8392 
 184   0.0000       1.308271        35.5999 
 185   0.0000       1.317235        35.8438 
 186   0.0000       1.331738        36.2384 
 187   0.0000       1.367855        37.2212 
 188   0.0000       1.379826        37.5470 
 189   0.0000       1.406769        38.2801 
 190   0.0000       1.417593        38.5747 
 191   0.0000       1.424016        38.7495 
 192   0.0000       1.434045        39.0223 
 193   0.0000       1.442722        39.2585 
 194   0.0000       1.452229        39.5172 
 195   0.0000       1.458126        39.6776 
 196   0.0000       1.464860        39.8609 
 197   0.0000       1.474439        40.1215 
 198   0.0000       1.483646        40.3721 
 199   0.0000       1.516048        41.2538 
 200   0.0000       1.539710        41.8976 
 201   0.0000       1.562646        42.5217 
 202   0.0000       1.590669        43.2843 
 203   0.0000       1.646223        44.7960 
 204   0.0000       1.663332        45.2616 
 205   0.0000       1.708475        46.4900 
 206   0.0000       1.724885        46.9365 
 207   0.0000       1.737812        47.2883 
 208   0.0000       1.746638        47.5284 
 209   0.0000       1.762027        47.9472 
 210   0.0000       1.785511        48.5862 
 211   0.0000       1.789510        48.6950 
 212   0.0000       1.805682        49.1351 
 213   0.0000       1.812506        49.3208 
 214   0.0000       1.817584        49.4590 
 215   0.0000       1.835082        49.9351 
 216   0.0000       1.849526        50.3282 
 217   0.0000       1.872018        50.9402 
 218   0.0000       1.883726        51.2588 
 219   0.0000       1.884740        51.2864 
 220   0.0000       1.906510        51.8788 
 221   0.0000       1.914823        52.1050 
 222   0.0000       1.933763        52.6204 
 223   0.0000       1.946088        52.9557 
 224   0.0000       1.958808        53.3019 
 225   0.0000       1.968796        53.5737 
 226   0.0000       1.976647        53.7873 
 227   0.0000       1.978421        53.8356 
 228   0.0000       1.990163        54.1551 
 229   0.0000       1.995790        54.3082 
 230   0.0000       2.000860        54.4462 
 231   0.0000       2.024504        55.0896 
 232   0.0000       2.051760        55.8312 
 233   0.0000       2.058477        56.0140 
 234   0.0000       2.066466        56.2314 
 235   0.0000       2.081710        56.6462 
 236   0.0000       2.086025        56.7636 
 237   0.0000       2.103359        57.2353 
 238   0.0000       2.106894        57.3315 
 239   0.0000       2.136732        58.1434 
 240   0.0000       2.151176        58.5365 
 241   0.0000       2.154439        58.6253 
 242   0.0000       2.185382        59.4673 
 243   0.0000       2.192482        59.6605 
 244   0.0000       2.225539        60.5600 
 245   0.0000       2.245535        61.1041 
 246   0.0000       2.268787        61.7368 
 247   0.0000       2.272857        61.8476 
 248   0.0000       2.281199        62.0746 
 249   0.0000       2.306588        62.7655 
 250   0.0000       2.322958        63.2109 
 251   0.0000       2.325559        63.2817 
 252   0.0000       2.342208        63.7347 
 253   0.0000       2.355151        64.0869 
 254   0.0000       2.362534        64.2878 
 255   0.0000       2.377474        64.6943 
 256   0.0000       2.396871        65.2222 
 257   0.0000       2.413506        65.6748 
 258   0.0000       2.436513        66.3009 
 259   0.0000       2.445321        66.5406 
 260   0.0000       2.473630        67.3109 
 261   0.0000       2.486334        67.6566 
 262   0.0000       2.500133        68.0321 
 263   0.0000       2.547104        69.3102 
 264   0.0000       2.578253        70.1578 
 265   0.0000       2.601747        70.7971 
 266   0.0000       2.617826        71.2347 
 267   0.0000       2.630742        71.5861 
 268   0.0000       2.639781        71.8321 
 269   0.0000       2.652894        72.1889 
 270   0.0000       2.664664        72.5092 
 271   0.0000       2.673436        72.7479 
 272   0.0000       2.702081        73.5274 
 273   0.0000       2.722267        74.0766 
 274   0.0000       2.729712        74.2792 
 275   0.0000       2.769615        75.3650 
 276   0.0000       2.814960        76.5989 
 277   0.0000       2.887516        78.5733 
 278   0.0000       2.919877        79.4539 
 279   0.0000       2.944197        80.1157 
 280   0.0000       2.967208        80.7418 
 281   0.0000       2.978003        81.0356 
 282   0.0000       3.001625        81.6784 
 283   0.0000       3.013471        82.0007 
 284   0.0000       3.137396        85.3729 
 285   0.0000       3.167466        86.1911 
 286   0.0000       3.180286        86.5400 
 287   0.0000       3.427814        93.2756 

                    ********************************
                    * MULLIKEN POPULATION ANALYSIS *
                    ********************************

-----------------------
MULLIKEN ATOMIC CHARGES
-----------------------
   0 C :    0.529082
   1 H :    0.198475
   2 H :    0.190153
   3 H :    0.175155
   4 O :   -0.512266
   5 C :   -0.556581
   6 N :   -0.377265
   7 C :   -0.250412
   8 H :    0.182891
   9 H :    0.203275
  10 C :   -0.251375
  11 H :    0.183267
  12 H :    0.193903
  13 C :    0.134531
  14 C :   -0.201594
  15 H :    0.151770
  16 C :   -0.189006
  17 H :    0.151735
  18 C :    0.345145
  19 O :   -0.670989
  20 H :    0.448502
  21 C :   -0.187111
  22 H :    0.164645
  23 C :   -0.229219
  24 H :    0.160165
  25 C :    0.520955
  26 O :   -0.538671
  27 N :   -0.361511
  28 C :   -0.331359
  29 H :    0.171592
  30 H :    0.186140
  31 H :    0.173172
  32 C :   -0.352573
  33 H :    0.172615
  34 H :    0.172891
  35 H :    0.199875
Sum of atomic charges:   -0.0000000

--------------------------------
MULLIKEN REDUCED ORBITAL CHARGES
--------------------------------
  0 C s       :     2.980120  s :     2.980120
      pz      :     0.766772  p :     2.380434
      px      :     0.811416
      py      :     0.802245
      dz2     :     0.035190  d :     0.110364
      dxz     :     0.021978
      dyz     :     0.022509
      dx2y2   :     0.012596
      dxy     :     0.018091
  1 H s       :     0.801525  s :     0.801525
  2 H s       :     0.809847  s :     0.809847
  3 H s       :     0.824845  s :     0.824845
  4 O s       :     3.853109  s :     3.853109
      pz      :     1.555128  p :     4.633090
      px      :     1.470602
      py      :     1.607360
      dz2     :     0.005985  d :     0.026067
      dxz     :     0.007130
      dyz     :     0.004497
      dx2y2   :     0.004661
      dxy     :     0.003795
  5 C s       :     3.323273  s :     3.323273
      pz      :     1.099774  p :     3.201735
      px      :     1.059055
      py      :     1.042906
      dz2     :     0.006681  d :     0.031572
      dxz     :     0.002482
      dyz     :     0.009640
      dx2y2   :     0.004530
      dxy     :     0.008238
  6 N s       :     3.536120  s :     3.536120
      pz      :     1.143221  p :     3.804980
      px      :     1.271152
      py      :     1.390608
      dz2     :     0.008780  d :     0.036165
      dxz     :     0.008653
      dyz     :     0.007518
      dx2y2   :     0.005493
      dxy     :     0.005721
  7 C s       :     3.253145  s :     3.253145
      pz      :     1.115619  p :     2.945306
      px      :     0.925826
      py      :     0.903861
      dz2     :     0.007947  d :     0.051962
      dxz     :     0.013872
      dyz     :     0.006606
      dx2y2   :     0.011556
      dxy     :     0.011980
  8 H s       :     0.817109  s :     0.817109
  9 H s       :     0.796725  s :     0.796725
 10 C s       :     3.241300  s :     3.241300
      pz      :     0.939688  p :     2.955690
      px      :     0.910151
      py      :     1.105852
      dz2     :     0.008465  d :     0.054384
      dxz     :     0.014408
      dyz     :     0.010147
      dx2y2   :     0.014891
      dxy     :     0.006474
 11 H s       :     0.816733  s :     0.816733
 12 H s       :     0.806097  s :     0.806097
 13 C s       :     3.133138  s :     3.133138
      pz      :     0.966121  p :     2.692581
      px      :     0.842982
      py      :     0.883478
      dz2     :     0.004405  d :     0.039750
      dxz     :     0.006330
      dyz     :     0.005617
      dx2y2   :     0.011693
      dxy     :     0.011705
 14 C s       :     3.215031  s :     3.215031
      pz      :     0.989658  p :     2.949563
      px      :     0.955319
      py      :     1.004586
      dz2     :     0.002878  d :     0.037000
      dxz     :     0.007613
      dyz     :     0.004921
      dx2y2   :     0.011407
      dxy     :     0.010180
 15 H s       :     0.848230  s :     0.848230
 16 C s       :     3.198170  s :     3.198170
      pz      :     1.030239  p :     2.956533
      px      :     0.971458
      py      :     0.954836
      dz2     :     0.004252  d :     0.034303
      dxz     :     0.005232
      dyz     :     0.004484
      dx2y2   :     0.008642
      dxy     :     0.011693
 17 H s       :     0.848265  s :     0.848265
 18 C s       :     3.064728  s :     3.064728
      pz      :     0.939533  p :     2.520363
      px      :     0.676164
      py      :     0.904665
      dz2     :     0.007387  d :     0.069764
      dxz     :     0.015972
      dyz     :     0.006441
      dx2y2   :     0.021749
      dxy     :     0.018215
 19 O s       :     3.885945  s :     3.885945
[...]
     90       0.000017   0.007364   0.008140   0.000002  -0.000040   0.000005
     91       0.000102   0.060271   0.064581  -0.000001   0.000473   0.000002
     92      -0.001234  -0.657277  -0.692112  -0.000110  -0.003892  -0.000013
     93       0.000594   0.083208   0.086017   0.000024  -0.002175  -0.000005
     94      -0.000835  -0.108213  -0.110329  -0.000031   0.003674   0.000040
     95      -0.000441  -0.053692  -0.056241  -0.000015   0.001726   0.000019
     96      -0.000353   0.023974  -0.022929   0.000060   0.000581   0.000008
     97      -0.000488   0.057401  -0.054824   0.000185  -0.000869   0.000000
     98       0.000027  -0.003554   0.002797  -0.000017  -0.000284  -0.000006
     99       0.001572  -0.099955   0.097589  -0.000213  -0.000247   0.000022
    100       0.000028   0.003664  -0.002323   0.000021  -0.000650  -0.000012
    101       0.000892  -0.045643   0.043614  -0.000047  -0.001834   0.000001
    102      -0.000403   0.084128  -0.079990   0.000251  -0.004454  -0.000025
    103       0.000456  -0.094567   0.091619  -0.000260   0.005131   0.000045
    104       0.000200  -0.050945   0.047782  -0.000148   0.002965   0.000028
    105       0.002569  -0.268868   0.257537  -0.000846   0.001785  -0.000000
    106       0.005532  -0.592353   0.567384  -0.001942   0.004286  -0.000047
    107      -0.001100   0.116001  -0.111602   0.000364  -0.000888  -0.000001


-----------
IR SPECTRUM
-----------

 Mode   freq       eps      Int      T**2         TX        TY        TZ
       cm**-1   L/(mol*cm) km/mol    a.u.
----------------------------------------------------------------------------
  7:     37.64   0.000123    0.62  0.001023  (-0.011810  0.012222  0.027089)
  8:     50.30   0.000825    4.17  0.005120  (-0.069891  0.014241 -0.005713)
  9:     59.72   0.001341    6.78  0.007009  ( 0.069676 -0.020740  0.041523)
 10:     66.58   0.000119    0.60  0.000559  ( 0.018011 -0.015284  0.001177)
 11:     85.28   0.000039    0.20  0.000142  (-0.005243  0.004265 -0.009813)
 12:     98.49   0.003417   17.27  0.010826  (-0.009173 -0.103607 -0.002725)
 13:    112.83   0.000360    1.82  0.000995  ( 0.000260 -0.031437 -0.002499)
 14:    124.00   0.000605    3.06  0.001523  ( 0.008914  0.032028  0.020430)
 15:    155.72   0.000180    0.91  0.000361  ( 0.013241 -0.002475  0.013412)
 16:    168.42   0.001081    5.46  0.002003  (-0.010033 -0.039940  0.017532)
 17:    178.51   0.000131    0.66  0.000229  ( 0.008959 -0.009056  0.008161)
 18:    238.80   0.000279    1.41  0.000364  (-0.017749  0.002309 -0.006630)
 19:    266.62   0.000361    1.82  0.000422  (-0.005294 -0.019855  0.000310)
 20:    288.11   0.003883   19.63  0.004206  ( 0.058046 -0.028918 -0.000871)
 21:    308.66   0.002122   10.72  0.002145  (-0.016011  0.032220 -0.029169)
 22:    341.68   0.001675    8.47  0.001530  ( 0.002736 -0.035847  0.015416)
 23:    355.82   0.002950   14.91  0.002587  ( 0.014723  0.036131  0.032631)
 24:    360.46   0.036236  183.12  0.031371  ( 0.009342  0.086868 -0.154070)
 25:    377.19   0.002174   10.99  0.001799  (-0.023992 -0.024088 -0.025360)
 26:    421.78   0.000158    0.80  0.000117  ( 0.010343  0.002289  0.002198)
 27:    423.55   0.000465    2.35  0.000343  ( 0.017495  0.005853  0.001590)
 28:    431.31   0.000759    3.84  0.000549  (-0.016106 -0.016937 -0.001677)
 29:    458.09   0.005767   29.14  0.003928  (-0.054975 -0.016017  0.025489)
 30:    485.88   0.005224   26.40  0.003355  (-0.044606  0.027213 -0.025002)
 31:    516.94   0.002364   11.95  0.001427  (-0.003683 -0.028472  0.024551)
 32:    541.92   0.001156    5.84  0.000666  (-0.022229 -0.011799 -0.005675)
 33:    580.71   0.003174   16.04  0.001705  ( 0.007795  0.039889 -0.007318)
 34:    602.95   0.003834   19.37  0.001984  (-0.029728 -0.031865  0.009227)
 35:    636.14   0.005231   26.44  0.002566  ( 0.008794  0.018963  0.046144)
 36:    654.00   0.000832    4.20  0.000397  (-0.003482 -0.006600 -0.018469)
 37:    705.04   0.000049    0.25  0.000022  ( 0.002209  0.003848  0.001365)
 38:    716.59   0.001249    6.31  0.000544  (-0.022837 -0.001238  0.004542)
 39:    767.98   0.001490    7.53  0.000605  (-0.010502 -0.017124  0.014207)
 40:    776.01   0.002084   10.53  0.000838  (-0.020849  0.013148  0.015179)
 41:    821.47   0.008693   43.93  0.003302  (-0.003588 -0.006396 -0.056997)
 42:    828.05   0.002704   13.67  0.001019  ( 0.001242 -0.031899  0.000337)
 43:    842.82   0.007378   37.28  0.002732  ( 0.003019  0.038944 -0.034727)
 44:    863.41   0.003868   19.55  0.001398  (-0.035694 -0.011012 -0.001601)
 45:    942.47   0.000985    4.98  0.000326  ( 0.015731 -0.002477  0.008511)
 46:    958.04   0.000402    2.03  0.000131  (-0.002925  0.003887  0.010365)
 47:    960.93   0.000385    1.94  0.000125  (-0.006790  0.005263 -0.007153)
 48:    986.25   0.006662   33.67  0.002108  ( 0.033751 -0.026689  0.016020)
 49:   1003.97   0.007210   36.44  0.002241  (-0.019133 -0.027672 -0.033304)
 50:   1009.85   0.006993   35.34  0.002161  ( 0.024967  0.028606 -0.026821)
 51:   1032.61   0.000382    1.93  0.000116  (-0.009995  0.003920 -0.000561)
 52:   1063.11   0.002727   13.78  0.000801  ( 0.021080  0.016852  0.008501)
 53:   1088.30   0.004093   20.68  0.001174  (-0.011194 -0.005779  0.031858)
 54:   1100.50   0.006890   34.82  0.001954  (-0.001726  0.024688  0.036624)
 55:   1133.38   0.007315   36.97  0.002014  ( 0.015209  0.037856  0.018705)
 56:   1138.65   0.000162    0.82  0.000045  ( 0.003048 -0.005852  0.000985)
 57:   1172.24   0.013329   67.36  0.003548  (-0.004934 -0.034983 -0.047961)
 58:   1187.67   0.000635    3.21  0.000167  ( 0.007653 -0.009542 -0.004140)
 59:   1196.51   0.055837  282.18  0.014563  ( 0.119622  0.015866  0.001338)
 60:   1204.07   0.000963    4.87  0.000250  ( 0.014669 -0.005359  0.002381)
 61:   1219.68   0.009697   49.00  0.002481  (-0.038795 -0.011970 -0.028857)
 62:   1241.91   0.001411    7.13  0.000355  ( 0.017370  0.001950 -0.007004)
 63:   1273.34   0.026402  133.43  0.006470  ( 0.013604 -0.045346  0.065032)
 64:   1282.41   0.020751  104.87  0.005050  ( 0.021035  0.063453 -0.024103)
 65:   1302.30   0.034475  174.22  0.008261  ( 0.082944  0.036363  0.007683)
 66:   1311.64   0.007366   37.23  0.001753  (-0.026392  0.020367 -0.025322)
 67:   1340.49   0.007508   37.94  0.001748  (-0.033487 -0.023925  0.007347)
 68:   1372.73   0.001221    6.17  0.000278  (-0.008405 -0.001499 -0.014305)
 69:   1379.99   0.008841   44.68  0.001999  ( 0.041595  0.016015  0.003537)
 70:   1394.90   0.019778   99.95  0.004425  ( 0.047325  0.008164 -0.046026)
 71:   1413.67   0.004063   20.53  0.000897  ( 0.005552  0.019809 -0.021765)
 72:   1441.13   0.011792   59.59  0.002553  (-0.003061 -0.033719 -0.037511)
 73:   1459.37   0.020253  102.35  0.004331  (-0.007928 -0.065265 -0.002901)
 74:   1466.42   0.033375  168.66  0.007102  ( 0.002987 -0.024435  0.080600)
 75:   1483.27   0.007421   37.50  0.001561  ( 0.033615 -0.003936 -0.020393)
 76:   1485.67   0.005771   29.17  0.001212  (-0.024294 -0.022946 -0.009775)
 77:   1491.00   0.003738   18.89  0.000782  (-0.018186 -0.015933  0.014062)
 78:   1496.93   0.001456    7.36  0.000303  ( 0.003698 -0.016819  0.002625)
 79:   1506.35   0.004168   21.06  0.000863  (-0.011579  0.020336 -0.017772)
 80:   1508.59   0.001685    8.51  0.000349  ( 0.012864 -0.012534  0.005093)
 81:   1518.02   0.008222   41.55  0.001690  ( 0.036701 -0.016791  0.007830)
 82:   1525.23   0.015166   76.64  0.003103  (-0.016277  0.005276 -0.053011)
 83:   1535.03   0.002773   14.01  0.000564  (-0.020892  0.005510 -0.009840)
 84:   1559.23   0.022097  111.67  0.004422  ( 0.038750  0.051957  0.014881)
 85:   1563.50   0.024343  123.02  0.004859  ( 0.068962  0.006892  0.007444)
 86:   1647.38   0.008003   40.45  0.001516  (-0.036522  0.010915  0.007944)
 87:   1672.61   0.012841   64.90  0.002396  (-0.042901 -0.020810 -0.011057)
 88:   1701.31   0.206957  1045.87  0.037961  (-0.055295  0.027203  0.184834)
 89:   1708.79   0.028308  143.06  0.005170  ( 0.069790  0.005553  0.016377)
 90:   3037.46   0.008968   45.32  0.000921  (-0.000861  0.006610  0.029614)
 91:   3044.92   0.017815   90.03  0.001826  (-0.017173 -0.033431 -0.020328)
 92:   3061.62   0.007202   36.40  0.000734  ( 0.004014  0.021455  0.016051)
 93:   3067.73   0.001279    6.46  0.000130  (-0.002670  0.011047  0.000979)
 94:   3087.78   0.012046   60.88  0.001217  (-0.029678  0.017843  0.004275)
 95:   3088.51   0.007370   37.24  0.000745  (-0.019587 -0.002074 -0.018886)
 96:   3098.60   0.005288   26.72  0.000533  ( 0.019070 -0.012933 -0.001265)
 97:   3107.32   0.001925    9.73  0.000193  (-0.002853  0.011609 -0.007100)
 98:   3133.44   0.001393    7.04  0.000139  ( 0.003850  0.007201  0.008489)
 99:   3172.64   0.003085   15.59  0.000303  (-0.006469 -0.007284  0.014440)
100:   3175.56   0.000576    2.91  0.000057  ( 0.001938 -0.007069 -0.001696)
101:   3183.91   0.005045   25.50  0.000494  (-0.011444 -0.016629 -0.009327)
102:   3187.21   0.001463    7.40  0.000143  (-0.008569 -0.007558 -0.003569)
103:   3195.40   0.002139   10.81  0.000209  ( 0.001617 -0.013167  0.005742)
104:   3197.15   0.000647    3.27  0.000063  (-0.003736  0.004845  0.005071)
105:   3210.93   0.003176   16.05  0.000309  (-0.012730  0.010550  0.005938)
106:   3235.42   0.000699    3.53  0.000067  (-0.000119 -0.005799 -0.005808)
107:   3715.02   0.027332  138.12  0.002296  (-0.025453 -0.035427 -0.019823)

* The epsilon (eps) is given for a Dirac delta lineshape.
** The dipole moment derivative (T) already includes vibrational overlap.

The first frequency considered to be a vibration is 7
The total number of vibrations considered is 101


--------------------------
THERMOCHEMISTRY AT 298.15K
--------------------------

Temperature         ... 298.15 K
Pressure            ... 1.00 atm
Total Mass          ... 250.30 AMU

Throughout the following assumptions are being made:
  (1) The electronic state is orbitally nondegenerate
  (2) There are no thermally accessible electronically excited states
  (3) Hindered rotations indicated by low frequency modes are not
      treated as such but are treated as vibrations and this may
      cause some error
  (4) All equations used are the standard statistical mechanics
      equations for an ideal gas
  (5) All vibrations are strictly harmonic

freq.      37.64  E(vib)   ...       0.54 
freq.      50.30  E(vib)   ...       0.52 
freq.      59.72  E(vib)   ...       0.51 
freq.      66.58  E(vib)   ...       0.50 
freq.      85.28  E(vib)   ...       0.48 
freq.      98.49  E(vib)   ...       0.46 
freq.     112.83  E(vib)   ...       0.45 
freq.     124.00  E(vib)   ...       0.43 
freq.     155.72  E(vib)   ...       0.40 
freq.     168.42  E(vib)   ...       0.38 
freq.     178.51  E(vib)   ...       0.37 
freq.     238.80  E(vib)   ...       0.32 
freq.     266.62  E(vib)   ...       0.29 
freq.     288.11  E(vib)   ...       0.27 
freq.     308.66  E(vib)   ...       0.26 
freq.     341.68  E(vib)   ...       0.23 
freq.     355.82  E(vib)   ...       0.22 
freq.     360.46  E(vib)   ...       0.22 
freq.     377.19  E(vib)   ...       0.21 
freq.     421.78  E(vib)   ...       0.18 
freq.     423.55  E(vib)   ...       0.18 
freq.     431.31  E(vib)   ...       0.18 
freq.     458.09  E(vib)   ...       0.16 
freq.     485.88  E(vib)   ...       0.15 
freq.     516.94  E(vib)   ...       0.13 
freq.     541.92  E(vib)   ...       0.12 
freq.     580.71  E(vib)   ...       0.11 
freq.     602.95  E(vib)   ...       0.10 
freq.     636.14  E(vib)   ...       0.09 
freq.     654.00  E(vib)   ...       0.08 
freq.     705.04  E(vib)   ...       0.07 
freq.     716.59  E(vib)   ...       0.07 
freq.     767.98  E(vib)   ...       0.06 
freq.     776.01  E(vib)   ...       0.05 
freq.     821.47  E(vib)   ...       0.05 
freq.     828.05  E(vib)   ...       0.04 
freq.     842.82  E(vib)   ...       0.04 
freq.     863.41  E(vib)   ...       0.04 
freq.     942.47  E(vib)   ...       0.03 
freq.     958.04  E(vib)   ...       0.03 
freq.     960.93  E(vib)   ...       0.03 
freq.     986.25  E(vib)   ...       0.02 
freq.    1003.97  E(vib)   ...       0.02 
freq.    1009.85  E(vib)   ...       0.02 
freq.    1032.61  E(vib)   ...       0.02 
freq.    1063.11  E(vib)   ...       0.02 
freq.    1088.30  E(vib)   ...       0.02 
freq.    1100.50  E(vib)   ...       0.02 
freq.    1133.38  E(vib)   ...       0.01 
freq.    1138.65  E(vib)   ...       0.01 
freq.    1172.24  E(vib)   ...       0.01 
freq.    1187.67  E(vib)   ...       0.01 
freq.    1196.51  E(vib)   ...       0.01 
freq.    1204.07  E(vib)   ...       0.01 
freq.    1219.68  E(vib)   ...       0.01 
freq.    1241.91  E(vib)   ...       0.01 
freq.    1273.34  E(vib)   ...       0.01 
freq.    1282.41  E(vib)   ...       0.01 
freq.    1302.30  E(vib)   ...       0.01 
freq.    1311.64  E(vib)   ...       0.01 
freq.    1340.49  E(vib)   ...       0.01 
freq.    1372.73  E(vib)   ...       0.01 
freq.    1379.99  E(vib)   ...       0.01 
freq.    1394.90  E(vib)   ...       0.00 
freq.    1413.67  E(vib)   ...       0.00 
freq.    1441.13  E(vib)   ...       0.00 
freq.    1459.37  E(vib)   ...       0.00 
freq.    1466.42  E(vib)   ...       0.00 
freq.    1483.27  E(vib)   ...       0.00 
freq.    1485.67  E(vib)   ...       0.00 
freq.    1491.00  E(vib)   ...       0.00 
freq.    1496.93  E(vib)   ...       0.00 
freq.    1506.35  E(vib)   ...       0.00 
freq.    1508.59  E(vib)   ...       0.00 
freq.    1518.02  E(vib)   ...       0.00 
freq.    1525.23  E(vib)   ...       0.00 
freq.    1535.03  E(vib)   ...       0.00 
freq.    1559.23  E(vib)   ...       0.00 
freq.    1563.50  E(vib)   ...       0.00 
freq.    1647.38  E(vib)   ...       0.00 
freq.    1672.61  E(vib)   ...       0.00 
freq.    1701.31  E(vib)   ...       0.00 
freq.    1708.79  E(vib)   ...       0.00 
freq.    3037.46  E(vib)   ...       0.00 
freq.    3044.92  E(vib)   ...       0.00 
freq.    3061.62  E(vib)   ...       0.00 
freq.    3067.73  E(vib)   ...       0.00 
freq.    3087.78  E(vib)   ...       0.00 
freq.    3088.51  E(vib)   ...       0.00 
freq.    3098.60  E(vib)   ...       0.00 
freq.    3107.32  E(vib)   ...       0.00 
freq.    3133.44  E(vib)   ...       0.00 
freq.    3172.64  E(vib)   ...       0.00 
freq.    3175.56  E(vib)   ...       0.00 
freq.    3183.91  E(vib)   ...       0.00 
freq.    3187.21  E(vib)   ...       0.00 
freq.    3195.40  E(vib)   ...       0.00 
freq.    3197.15  E(vib)   ...       0.00 
freq.    3210.93  E(vib)   ...       0.00 
freq.    3235.42  E(vib)   ...       0.00 
freq.    3715.02  E(vib)   ...       0.00 

------------
INNER ENERGY
------------

The inner energy is: U= E(el) + E(ZPE) + E(vib) + E(rot) + E(trans)
    E(el)   - is the total energy from the electronic structure calculation
              = E(kin-el) + E(nuc-el) + E(el-el) + E(nuc-nuc)
    E(ZPE)  - the the zero temperature vibrational energy from the frequency calculation
    E(vib)  - the the finite temperature correction to E(ZPE) due to population
              of excited vibrational states
    E(rot)  - is the rotational thermal energy
    E(trans)- is the translational thermal energy

Summary of contributions to the inner energy U:
Electronic energy                ...   -840.99217090 Eh
Zero point energy                ...      0.30124557 Eh     189.03 kcal/mol
Thermal vibrational correction   ...      0.01495313 Eh       9.38 kcal/mol
Thermal rotational correction    ...      0.00141627 Eh       0.89 kcal/mol
Thermal translational correction ...      0.00141627 Eh       0.89 kcal/mol
-----------------------------------------------------------------------
Total thermal energy                   -840.67313966 Eh


Summary of corrections to the electronic energy:
(perhaps to be used in another calculation)
Total thermal correction                  0.01778567 Eh      11.16 kcal/mol
Non-thermal (ZPE) correction              0.30124557 Eh     189.03 kcal/mol
-----------------------------------------------------------------------
Total correction                          0.31903124 Eh     200.19 kcal/mol


--------
ENTHALPY
--------

The enthalpy is H = U + kB*T
                kB is Boltzmann's constant
Total free energy                 ...   -840.67313966 Eh 
Thermal Enthalpy correction       ...      0.00094421 Eh       0.59 kcal/mol
-----------------------------------------------------------------------
Total Enthalpy                    ...   -840.67219545 Eh


Note: Only C1 symmetry has been detected, increase convergence thresholds 
      if your molecule has a higher symmetry. Symmetry factor of 1.0 is   
      used for the rotational entropy correction. 
 

Note: Rotational entropy computed according to Herzberg 
Infrared and Raman Spectra, Chapter V,1, Van Nostrand Reinhold, 1945 
Point Group:  C1, Symmetry Number:   1  
Rotational constants in cm-1:     0.018513     0.009956     0.008091 

Vibrational entropy computed according to the QRRHO of S. Grimme
Chem.Eur.J. 2012 18 9955


-------
ENTROPY
-------

The entropy contributions are T*S = T*(S(el)+S(vib)+S(rot)+S(trans))
     S(el)   - electronic entropy
     S(vib)  - vibrational entropy
     S(rot)  - rotational entropy
     S(trans)- translational entropy
The entropies will be listed as multiplied by the temperature to get
units of energy

Electronic entropy                ...      0.00000000 Eh      0.00 kcal/mol
Vibrational entropy               ...      0.02629386 Eh     16.50 kcal/mol
Rotational entropy                ...      0.01584429 Eh      9.94 kcal/mol
Translational entropy             ...      0.02017065 Eh     12.66 kcal/mol
-----------------------------------------------------------------------
Final entropy term                ...      0.06230880 Eh     39.10 kcal/mol

In case the symmetry of your molecule has not been determined correctly
or in case you have a reason to use a different symmetry number we print 
out the resulting rotational entropy values for sn=1,12 :
 --------------------------------------------------------
|  sn= 1 | S(rot)=       0.01584429 Eh      9.94 kcal/mol|
|  sn= 2 | S(rot)=       0.01518984 Eh      9.53 kcal/mol|
|  sn= 3 | S(rot)=       0.01480701 Eh      9.29 kcal/mol|
|  sn= 4 | S(rot)=       0.01453538 Eh      9.12 kcal/mol|
|  sn= 5 | S(rot)=       0.01432469 Eh      8.99 kcal/mol|
|  sn= 6 | S(rot)=       0.01415255 Eh      8.88 kcal/mol|
|  sn= 7 | S(rot)=       0.01400700 Eh      8.79 kcal/mol|
|  sn= 8 | S(rot)=       0.01388093 Eh      8.71 kcal/mol|
|  sn= 9 | S(rot)=       0.01376972 Eh      8.64 kcal/mol|
|  sn=10 | S(rot)=       0.01367024 Eh      8.58 kcal/mol|
|  sn=11 | S(rot)=       0.01358025 Eh      8.52 kcal/mol|
|  sn=12 | S(rot)=       0.01349809 Eh      8.47 kcal/mol|
 --------------------------------------------------------


-------------------
GIBBS FREE ENERGY
-------------------

The Gibbs free energy is G = H - T*S

Total enthalpy                    ...   -840.67219545 Eh 
Total entropy correction          ...     -0.06230880 Eh    -39.10 kcal/mol
-----------------------------------------------------------------------
Final Gibbs free energy         ...   -840.73450426 Eh

For completeness - the Gibbs free energy minus the electronic energy
G-E(el)                           ...      0.25766665 Eh    161.69 kcal/mol


Timings for individual modules:

Sum of individual times         ...     2558.494 sec (=  42.642 min)
GTO integral calculation        ...       23.126 sec (=   0.385 min)   0.9 %
SCF iterations                  ...     1194.660 sec (=  19.911 min)  46.7 %
SCF Gradient evaluation         ...      369.371 sec (=   6.156 min)  14.4 %
Geometry relaxation             ...        1.509 sec (=   0.025 min)   0.1 %
Analytical frequency calculation...      969.828 sec (=  16.164 min)  37.9 %
                             ****ORCA TERMINATED NORMALLY****
TOTAL RUN TIME: 0 days 0 hours 42 minutes 44 seconds 897 msec
