
                                 *****************
                                 * O   R   C   A *
                                 *****************

                                            #,                                       
                                            ###                                      
                                            ####                                     
                                            #####                                    
                                            ######                                   
                                           ########,                                 
                                     ,,################,,,,,                         
                               ,,#################################,,                 
                          ,,##########################################,,             
                       ,#########################################, ''#####,          
                    ,#############################################,,   '####,        
                  ,##################################################,,,,####,       
                ,###########''''           ''''###############################       
              ,#####''   ,,,,##########,,,,          '''####'''          '####       
            ,##' ,,,,###########################,,,                        '##       
           ' ,,###''''                  '''############,,,                           
         ,,##''                                '''############,,,,        ,,,,,,###''
      ,#''                                            '''#######################'''  
     '                                                          ''''####''''         
             ,#######,   #######,   ,#######,      ##                                
            ,#'     '#,  ##    ##  ,#'     '#,    #''#        ######   ,####,        
            ##       ##  ##   ,#'  ##            #'  '#       #        #'  '#        
            ##       ##  #######   ##           ,######,      #####,   #    #        
            '#,     ,#'  ##    ##  '#,     ,#' ,#      #,         ##   #,  ,#        
             '#######'   ##     ##  '#######'  #'      '#     #####' # '####'        



                  #######################################################
                  #                        -***-                        #
                  #          Department of theory and spectroscopy      #
                  #    Directorship and core code : Frank Neese         #
                  #        Max Planck Institute fuer Kohlenforschung    #
                  #                Kaiser Wilhelm Platz 1               #
                  #                 D-45470 Muelheim/Ruhr               #
                  #                      Germany                        #
                  #                                                     #
                  #                  All rights reserved                #
                  #                        -***-                        #
                  #######################################################


                         Program Version 5.0.4 -  RELEASE  -


 With contributions from (in alphabetic order):
   Daniel Aravena         : Magnetic Suceptibility
   Michael Atanasov       : Ab Initio Ligand Field Theory (pilot matlab implementation)
   Alexander A. Auer      : GIAO ZORA, VPT2 properties, NMR spectrum
   Ute Becker             : Parallelization
   Giovanni Bistoni       : ED, misc. LED, open-shell LED, HFLD
   Martin Brehm           : Molecular dynamics
   Dmytro Bykov           : SCF Hessian
   Vijay G. Chilkuri      : MRCI spin determinant printing, contributions to CSF-ICE
   Dipayan Datta          : RHF DLPNO-CCSD density
   Achintya Kumar Dutta   : EOM-CC, STEOM-CC
   Dmitry Ganyushin       : Spin-Orbit,Spin-Spin,Magnetic field MRCI
   Miquel Garcia          : C-PCM and meta-GGA Hessian, CC/C-PCM, Gaussian charge scheme
   Yang Guo               : DLPNO-NEVPT2, F12-NEVPT2, CIM, IAO-localization
   Andreas Hansen         : Spin unrestricted coupled pair/coupled cluster methods
   Benjamin Helmich-Paris : MC-RPA, TRAH-SCF, COSX integrals
   Lee Huntington         : MR-EOM, pCC
   Robert Izsak           : Overlap fitted RIJCOSX, COSX-SCS-MP3, EOM
   Marcus Kettner         : VPT2
   Christian Kollmar      : KDIIS, OOCD, Brueckner-CCSD(T), CCSD density, CASPT2, CASPT2-K
   Simone Kossmann        : Meta GGA functionals, TD-DFT gradient, OOMP2, MP2 Hessian
   Martin Krupicka        : Initial AUTO-CI
   Lucas Lang             : DCDCAS
   Marvin Lechner         : AUTO-CI (C++ implementation), FIC-MRCC
   Dagmar Lenk            : GEPOL surface, SMD
   Dimitrios Liakos       : Extrapolation schemes; Compound Job, initial MDCI parallelization
   Dimitrios Manganas     : Further ROCIS development; embedding schemes
   Dimitrios Pantazis     : SARC Basis sets
   Anastasios Papadopoulos: AUTO-CI, single reference methods and gradients
   Taras Petrenko         : DFT Hessian,TD-DFT gradient, ASA, ECA, R-Raman, ABS, FL, XAS/XES, NRVS
   Peter Pinski           : DLPNO-MP2, DLPNO-MP2 Gradient
   Christoph Reimann      : Effective Core Potentials
   Marius Retegan         : Local ZFS, SOC
   Christoph Riplinger    : Optimizer, TS searches, QM/MM, DLPNO-CCSD(T), (RO)-DLPNO pert. Triples
   Tobias Risthaus        : Range-separated hybrids, TD-DFT gradient, RPA, STAB
   Michael Roemelt        : Original ROCIS implementation
   Masaaki Saitow         : Open-shell DLPNO-CCSD energy and density
   Barbara Sandhoefer     : DKH picture change effects
   Avijit Sen             : IP-ROCIS
   Kantharuban Sivalingam : CASSCF convergence, NEVPT2, FIC-MRCI
   Bernardo de Souza      : ESD, SOC TD-DFT
   Georgi Stoychev        : AutoAux, RI-MP2 NMR, DLPNO-MP2 response
   Willem Van den Heuvel  : Paramagnetic NMR
   Boris Wezisla          : Elementary symmetry handling
   Frank Wennmohs         : Technical directorship


 We gratefully acknowledge several colleagues who have allowed us to
 interface, adapt or use parts of their codes:
   Stefan Grimme, W. Hujo, H. Kruse, P. Pracht,  : VdW corrections, initial TS optimization,
                  C. Bannwarth, S. Ehlert          DFT functionals, gCP, sTDA/sTD-DF
   Ed Valeev, F. Pavosevic, A. Kumar             : LibInt (2-el integral package), F12 methods
   Garnet Chan, S. Sharma, J. Yang, R. Olivares  : DMRG
   Ulf Ekstrom                                   : XCFun DFT Library
   Mihaly Kallay                                 : mrcc  (arbitrary order and MRCC methods)
   Jiri Pittner, Ondrej Demel                    : Mk-CCSD
   Frank Weinhold                                : gennbo (NPA and NBO analysis)
   Christopher J. Cramer and Donald G. Truhlar   : smd solvation model
   Lars Goerigk                                  : TD-DFT with DH, B97 family of functionals
   V. Asgeirsson, H. Jonsson                     : NEB implementation
   FAccTs GmbH                                   : IRC, NEB, NEB-TS, DLPNO-Multilevel, CI-OPT
                                                   MM, QMMM, 2- and 3-layer-ONIOM, Crystal-QMMM,
                                                   LR-CPCM, SF, NACMEs, symmetry and pop. for TD-DFT,
                                                   nearIR, NL-DFT gradient (VV10), updates on ESD,
                                                   ML-optimized integration grids
   S Lehtola, MJT Oliveira, MAL Marques          : LibXC Library
   Liviu Ungur et al                             : ANISO software


 Your calculation uses the libint2 library for the computation of 2-el integrals
 For citations please refer to: http://libint.valeyev.net

 Your ORCA version has been built with support for libXC version: 5.1.0
 For citations please refer to: https://tddft.org/programs/libxc/

 This ORCA versions uses:
   CBLAS   interface :  Fast vector & matrix operations
   LAPACKE interface :  Fast linear algebra routines
   SCALAPACK package :  Parallel linear algebra routines
   Shared memory     :  Shared parallel matrices
   BLAS/LAPACK       :  OpenBLAS 0.3.15  USE64BITINT DYNAMIC_ARCH NO_AFFINITY SkylakeX SINGLE_THREADED
        Core in use  :  SkylakeX
   Copyright (c) 2011-2014, The OpenBLAS Project




***************************************
The coordinates will be read from file: /users/fjb15167/WWenergy/structures/Nfer.xyz
***************************************


Your calculation utilizes the atom-pairwise dispersion correction
based on tight binding partial charges (D4)
Cite in your paper:
E.Caldeweyher, C.Bannwarth, S.Grimme, J.Chem.Phys., (2017), 147, 034112.
E.Caldeweyher, S.Ehlert, A.Hansen, H.Neugebauer, S.Grimme, J.Chem.Phys., (2018), in progress.
   

================================================================================

----- Orbital basis set information -----
Your calculation utilizes the basis: 6-31G(d)
   H-He, Li-Ne : W. J. Hehre, R. Ditchfield and J.A. Pople, J. Chem. Phys. 56, 2257 (1972).
                 Note: He and Ne are unpublished basis sets taken from the Gaussian program.
                 Note: Li and B from J. D. Dill and J. A. Pople, J. Chem. Phys. 62, 2921 (1975).
   Na - Ar     : M. M. Francl, W. J. Pietro, W. J. Hehre, J. S. Binkley, M. S. Gordon, 
                 D. J. DeFrees and J. A. Pople, J. Chem. Phys. 77, 3654 (1982).
   K - Zn      : V. A. Rassolov, J. A. Pople, M. A. Ratner, and T. L. Windus, J. Chem. Phys. 109, 1223 (1998).

----- AuxJ basis set information -----
Your calculation utilizes the AutoAux generation procedure.
  G. L. Stoychev, A. A. Auer, F. Neese, J. Chem. Theory Comput. 13, 554 (2017)

----- AuxC basis set information -----
Your calculation utilizes the AutoAux generation procedure.
  G. L. Stoychev, A. A. Auer, F. Neese, J. Chem. Theory Comput. 13, 554 (2017)

----- AuxJK basis set information -----
Your calculation utilizes the AutoAux generation procedure.
  G. L. Stoychev, A. A. Auer, F. Neese, J. Chem. Theory Comput. 13, 554 (2017)

================================================================================
                                        WARNINGS
                       Please study these warnings very carefully!
================================================================================


WARNING: Geometry Optimization
  ===> : Switching off AutoStart
         For restart on a previous wavefunction, please use MOREAD

INFO   : the flag for use of the SHARK integral package has been found!

================================================================================
                                       INPUT FILE
================================================================================
NAME = Nfer_gas.inp
|  1> ! OPT FREQ B3LYP 6-31G(d) D4 AUTOAUX
|  2> 
|  3> %PAL NPROCS 4 END
|  4> 
|  5> %maxcore 3375
|  6> 
|  7> *xyzfile 0 1 /users/fjb15167/WWenergy/structures/Nfer.xyz
|  8> 
|  9>                          ****END OF INPUT****
================================================================================

                       *****************************
                       * Geometry Optimization Run *
                       *****************************

Geometry optimization settings:
Update method            Update   .... BFGS
Choice of coordinates    CoordSys .... Z-matrix Internals
Initial Hessian          InHess   .... Almoef's Model

Convergence Tolerances:
Energy Change            TolE     ....  5.0000e-06 Eh
Max. Gradient            TolMAXG  ....  3.0000e-04 Eh/bohr
RMS Gradient             TolRMSG  ....  1.0000e-04 Eh/bohr
Max. Displacement        TolMAXD  ....  4.0000e-03 bohr
RMS Displacement         TolRMSD  ....  2.0000e-03 bohr
Strict Convergence                ....  False
------------------------------------------------------------------------------
                        ORCA OPTIMIZATION COORDINATE SETUP
------------------------------------------------------------------------------

The optimization will be done in new redundant internal coordinates
Making redundant internal coordinates   ...  (new redundants) done
Evaluating the initial hessian          ...  (Almloef) done
Evaluating the coordinates              ...  done
Calculating the B-matrix                .... done
Calculating the G-matrix                .... done
Diagonalizing the G-matrix              .... done
Small eigenvalue found = 4.500e-03
Small eigenvalue found = 6.722e-03
Small eigenvalue found = 1.024e-02
Small eigenvalue found = 1.712e-02
Small eigenvalue found = 2.442e-02
The first mode is                       ....   80
The number of degrees of freedom        ....  108

    -----------------------------------------------------------------
                    Redundant Internal Coordinates


    -----------------------------------------------------------------
         Definition                    Initial Value    Approx d2E/dq
    -----------------------------------------------------------------
      1. B(H   1,C   0)                  1.0918         0.357776   
      2. B(H   2,C   0)                  1.0903         0.359692   
      3. B(H   3,C   0)                  1.0935         0.355505   
      4. B(C   4,C   0)                  1.5141         0.396019   
      5. B(N   5,C   4)                  1.3849         0.570260   
      6. B(C   6,N   5)                  1.4805         0.401347   
      7. B(H   7,C   6)                  1.0925         0.356752   
      8. B(C   8,C   6)                  1.5119         0.399232   
      9. B(C   9,C   8)                  1.4029         0.595897   
     10. B(C  10,C   8)                  1.4009         0.600273   
     11. B(C  11,C   9)                  1.3940         0.615606   
     12. B(H  12,C   9)                  1.0900         0.360098   
     13. B(C  13,C  10)                  1.3989         0.604603   
     14. B(H  14,C  10)                  1.0873         0.363677   
     15. B(C  15,C  11)                  1.3988         0.604895   
     16. B(C  15,C  13)                  1.3949         0.613650   
     17. B(H  16,C  11)                  1.0875         0.363392   
     18. B(H  17,C  13)                  1.0878         0.362958   
     19. B(H  18,C  15)                  1.0871         0.363948   
     20. B(C  19,N   5)                  1.4608         0.431421   
     21. B(H  20,C  19)                  1.0963         0.351807   
     22. B(H  21,C  19)                  1.0971         0.350825   
     23. B(C  22,C  19)                  1.5317         0.371183   
     24. B(N  23,C  22)                  1.3634         0.616979   
     25. B(O  24,C  22)                  1.2383         0.977112   
     26. B(O  25,C   4)                  1.2373         0.980506   
     27. B(C  26,N  23)                  1.4533         0.443434   
     28. B(H  27,C  26)                  1.0967         0.351323   
     29. B(H  28,C  26)                  1.0944         0.354313   
     30. B(H  29,C  26)                  1.0856         0.365995   
     31. B(H  29,H  18)                  4.1752         0.000001   
     32. B(C  30,N  23)                  1.4553         0.440184   
     33. B(H  31,C  30)                  1.0957         0.352577   
     34. B(H  32,C  30)                  1.0959         0.352338   
     35. B(H  33,C  30)                  1.0879         0.362832   
     36. B(C  34,C   6)                  1.5262         0.378827   
     37. B(H  35,C  34)                  1.0935         0.355533   
     38. B(H  36,C  34)                  1.0942         0.354527   
     39. B(H  37,C  34)                  1.0930         0.356201   
     40. A(H   2,C   0,H   3)          108.5797         0.290202   
     41. A(H   1,C   0,C   4)          113.1129         0.327098   
     42. A(H   3,C   0,C   4)          110.6494         0.326755   
     43. A(H   1,C   0,H   3)          107.6971         0.289959   
     44. A(H   1,C   0,H   2)          110.1521         0.290492   
     45. A(H   2,C   0,C   4)          106.5830         0.327386   
     46. A(C   0,C   4,N   5)          118.1358         0.392411   
     47. A(C   0,C   4,O  25)          120.5482         0.432009   
     48. A(N   5,C   4,O  25)          121.3091         0.458453   
     49. A(C   4,N   5,C  19)          124.4232         0.395803   
     50. A(C   6,N   5,C  19)          116.4663         0.372355   
     51. A(C   4,N   5,C   6)          116.7084         0.390826   
     52. A(C   8,C   6,C  34)          115.1507         0.368389   
     53. A(N   5,C   6,C  34)          111.5421         0.366421   
     54. A(H   7,C   6,C   8)          107.4256         0.327379   
     55. A(N   5,C   6,C   8)          110.2227         0.369735   
     56. A(H   7,C   6,C  34)          107.8892         0.324565   
     57. A(N   5,C   6,H   7)          103.8775         0.325700   
     58. A(C   9,C   8,C  10)          118.8605         0.428489   
     59. A(C   6,C   8,C  10)          123.2058         0.399067   
     60. A(C   6,C   8,C   9)          117.8596         0.398554   
     61. A(C   8,C   9,C  11)          120.7901         0.430433   
     62. A(C  11,C   9,H  12)          120.4669         0.352484   
     63. A(C   8,C   9,H  12)          118.7374         0.350551   
     64. A(C  13,C  10,H  14)          119.1322         0.351999   
     65. A(C   8,C  10,H  14)          120.4345         0.351571   
     66. A(C   8,C  10,C  13)          120.4200         0.429606   
     67. A(C  15,C  11,H  16)          120.0827         0.351981   
     68. A(C   9,C  11,H  16)          119.9496         0.353028   
     69. A(C   9,C  11,C  15)          119.9670         0.431593   
     70. A(C  15,C  13,H  17)          120.0235         0.352766   
     71. A(C  10,C  13,H  17)          119.7310         0.351881   
     72. A(C  10,C  13,C  15)          120.2452         0.431309   
     73. A(C  13,C  15,H  18)          120.1479         0.352929   
     74. A(C  11,C  15,H  18)          120.1371         0.352072   
     75. A(C  11,C  15,C  13)          119.7104         0.431346   
     76. A(H  21,C  19,C  22)          107.7751         0.322593   
     77. A(H  20,C  19,C  22)          104.3834         0.322741   
     78. A(N   5,C  19,C  22)          117.7685         0.369698   
     79. A(H  20,C  19,H  21)          107.5570         0.288596   
     80. A(N   5,C  19,H  21)          106.6117         0.328693   
     81. A(N   5,C  19,H  20)          112.3104         0.328844   
     82. A(N  23,C  22,O  24)          122.8996         0.464802   
     83. A(C  19,C  22,O  24)          118.4286         0.426752   
     84. A(C  19,C  22,N  23)          118.6457         0.393372   
     85. A(C  26,N  23,C  30)          115.9717         0.380145   
     86. A(C  22,N  23,C  30)          118.6365         0.402744   
     87. A(C  22,N  23,C  26)          125.3642         0.403267   
     88. A(H  28,C  26,H  29)          108.3099         0.290841   
     89. A(H  27,C  26,H  29)          108.6093         0.290454   
     90. A(N  23,C  26,H  29)          111.2790         0.332509   
     91. A(H  27,C  26,H  28)          108.6294         0.288981   
     92. A(N  23,C  26,H  28)          108.2560         0.330728   
     93. A(N  23,C  26,H  27)          111.6672         0.330265   
     94. A(H  32,C  30,H  33)          110.0954         0.290190   
     95. A(H  31,C  30,H  33)          109.5356         0.290221   
     96. A(N  23,C  30,H  33)          108.4675         0.331627   
     97. A(H  31,C  30,H  32)          108.6407         0.288889   
     98. A(N  23,C  30,H  32)          109.8305         0.330021   
     99. A(N  23,C  30,H  31)          110.2654         0.330058   
    100. A(H  35,C  34,H  36)          108.4282         0.289548   
    101. A(C   6,C  34,H  36)          109.6189         0.324232   
    102. A(C   6,C  34,H  35)          109.5597         0.324383   
    103. A(H  36,C  34,H  37)          107.9807         0.289633   
    104. A(H  35,C  34,H  37)          108.1064         0.289762   
    105. A(C   6,C  34,H  37)          113.0308         0.324483   
    106. D(O  25,C   4,C   0,H   3)   -102.2214         0.011650   
    107. D(N   5,C   4,C   0,H   2)   -165.2957         0.011650   
    108. D(N   5,C   4,C   0,H   1)    -44.1020         0.011650   
    109. D(O  25,C   4,C   0,H   2)     15.6509         0.011650   
    110. D(N   5,C   4,C   0,H   3)     76.8321         0.011650   
    111. D(O  25,C   4,C   0,H   1)    136.8446         0.011650   
    112. D(C   6,N   5,C   4,C   0)    166.1240         0.026027   
    113. D(C  19,N   5,C   4,O  25)   -176.5643         0.026027   
    114. D(C   6,N   5,C   4,O  25)    -14.8301         0.026027   
    115. D(C  19,N   5,C   4,C   0)      4.3899         0.026027   
    116. D(C   8,C   6,N   5,C   4)    120.5375         0.013751   
    117. D(C   8,C   6,N   5,C  19)    -76.2491         0.013751   
    118. D(C  34,C   6,N   5,C   4)   -110.2384         0.013751   
    119. D(C  34,C   6,N   5,C  19)     52.9749         0.013751   
    120. D(H   7,C   6,N   5,C  19)    168.9323         0.013751   
    121. D(H   7,C   6,N   5,C   4)      5.7190         0.013751   
    122. D(C  10,C   8,C   6,C  34)    -30.1389         0.011831   
    123. D(C  10,C   8,C   6,H   7)   -150.3402         0.011831   
    124. D(C   9,C   8,C   6,C  34)    153.0334         0.011831   
    125. D(C  10,C   8,C   6,N   5)     97.1079         0.011831   
    126. D(C   9,C   8,C   6,H   7)     32.8321         0.011831   
    127. D(C   9,C   8,C   6,N   5)    -79.7198         0.011831   
    128. D(H  12,C   9,C   8,C   6)     -2.8225         0.024461   
    129. D(C  11,C   9,C   8,C  10)     -0.6411         0.024461   
    130. D(H  12,C   9,C   8,C  10)   -179.7919         0.024461   
    131. D(C  11,C   9,C   8,C   6)    176.3282         0.024461   
    132. D(H  14,C  10,C   8,C   9)   -177.9468         0.024841   
    133. D(C  13,C  10,C   8,C   9)      0.7159         0.024841   
    134. D(C  13,C  10,C   8,C   6)   -176.0817         0.024841   
    135. D(H  14,C  10,C   8,C   6)      5.2556         0.024841   
    136. D(C  15,C  11,C   9,C   8)     -0.0575         0.026201   
    137. D(H  16,C  11,C   9,H  12)     -1.2171         0.026201   
    138. D(H  16,C  11,C   9,C   8)    179.6468         0.026201   
    139. D(C  15,C  11,C   9,H  12)    179.0786         0.026201   
    140. D(H  17,C  13,C  10,H  14)     -1.2242         0.025221   
    141. D(C  15,C  13,C  10,H  14)    178.5852         0.025221   
    142. D(C  15,C  13,C  10,C   8)     -0.0948         0.025221   
    143. D(H  17,C  13,C  10,C   8)   -179.9042         0.025221   
    144. D(H  18,C  15,C  13,H  17)     -0.0159         0.026025   
    145. D(H  18,C  15,C  13,C  10)   -179.8247         0.026025   
    146. D(C  11,C  15,C  13,H  17)    179.1964         0.026025   
    147. D(C  11,C  15,C  13,C  10)     -0.6124         0.026025   
    148. D(H  18,C  15,C  11,H  16)      0.1960         0.025247   
    149. D(C  13,C  15,C  11,H  16)   -179.0164         0.025247   
    150. D(C  13,C  15,C  11,C   9)      0.6875         0.025247   
    151. D(H  18,C  15,C  11,C   9)    179.8999         0.025247   
    152. D(C  22,C  19,N   5,C   6)    151.9473         0.015868   
    153. D(C  22,C  19,N   5,C   4)    -46.2786         0.015868   
    154. D(H  21,C  19,N   5,C   6)     30.8076         0.015868   
    155. D(H  21,C  19,N   5,C   4)   -167.4183         0.015868   
    156. D(H  20,C  19,N   5,C   6)    -86.7529         0.015868   
    157. D(H  20,C  19,N   5,C   4)     75.0212         0.015868   
    158. D(O  24,C  22,C  19,H  21)   -113.7889         0.010313   
    159. D(O  24,C  22,C  19,H  20)      0.3683         0.010313   
    160. D(O  24,C  22,C  19,N   5)    125.6744         0.010313   
    161. D(N  23,C  22,C  19,H  21)     64.4103         0.010313   
    162. D(N  23,C  22,C  19,H  20)    178.5674         0.010313   
    163. D(N  23,C  22,C  19,N   5)    -56.1264         0.010313   
    164. D(C  30,N  23,C  22,O  24)     -6.4115         0.030801   
    165. D(C  30,N  23,C  22,C  19)    175.4748         0.030801   
    166. D(C  26,N  23,C  22,O  24)    175.5803         0.030801   
    167. D(C  26,N  23,C  22,C  19)     -2.5335         0.030801   
    168. D(H  27,C  26,N  23,C  22)     99.0732         0.016769   
    169. D(H  29,C  26,N  23,C  30)    159.4688         0.016769   
    170. D(H  29,C  26,N  23,C  22)    -22.4757         0.016769   
    171. D(H  28,C  26,N  23,C  30)     40.5558         0.016769   
    172. D(H  28,C  26,N  23,C  22)   -141.3887         0.016769   
    173. D(H  27,C  26,N  23,C  30)    -78.9824         0.016769   
    174. D(H  33,C  30,N  23,C  26)    175.4964         0.016522   
    175. D(H  33,C  30,N  23,C  22)     -2.6969         0.016522   
    176. D(H  32,C  30,N  23,C  26)     55.1313         0.016522   
    177. D(H  32,C  30,N  23,C  22)   -123.0621         0.016522   
    178. D(H  31,C  30,N  23,C  26)    -64.5619         0.016522   
    179. D(H  31,C  30,N  23,C  22)    117.2448         0.016522   
    180. D(H  37,C  34,C   6,C   8)     64.2172         0.011441   
    181. D(H  37,C  34,C   6,H   7)   -175.8364         0.011441   
    182. D(H  37,C  34,C   6,N   5)    -62.3595         0.011441   
    183. D(H  36,C  34,C   6,C   8)    -56.2895         0.011441   
    184. D(H  36,C  34,C   6,H   7)     63.6569         0.011441   
    185. D(H  36,C  34,C   6,N   5)    177.1339         0.011441   
    186. D(H  35,C  34,C   6,C   8)   -175.1578         0.011441   
    187. D(H  35,C  34,C   6,H   7)    -55.2113         0.011441   
    188. D(H  35,C  34,C   6,N   5)     58.2656         0.011441   
    -----------------------------------------------------------------

Number of atoms                         .... 38
Number of degrees of freedom            .... 188

         *************************************************************
         *                GEOMETRY OPTIMIZATION CYCLE   1            *
         *************************************************************
---------------------------------
CARTESIAN COORDINATES (ANGSTROEM)
---------------------------------
  C     -2.747000   -1.384000   -0.969000
  H     -3.218000   -1.472000    0.012000
  H     -3.188000   -2.100000   -1.663000
  H     -2.940000   -0.374000   -1.341000
  C     -1.260000   -1.668000   -0.942000
  N     -0.508000   -1.115000    0.081000
  C      0.858000   -1.654000    0.269000
  H      0.986000   -2.342000   -0.570000
  C      1.881000   -0.552000    0.111000
  C      2.233000   -0.166000   -1.191000
  C      2.439000    0.138000    1.195000
  C      3.112000    0.894000   -1.408000
  H      1.795000   -0.702000   -2.033000
  C      3.320000    1.203000    0.979000
  H      2.210000   -0.161000    2.215000
  C      3.653000    1.587000   -0.320000
  H      3.380000    1.178000   -2.423000
  H      3.748000    1.730000    1.829000
  H      4.340000    2.413000   -0.486000
  C     -1.064000   -0.348000    1.193000
  H     -1.563000   -0.987000    1.931000
  H     -0.217000    0.137000    1.694000
  C     -2.097000    0.735000    0.867000
  N     -1.758000    1.717000   -0.016000
  O     -3.192000    0.698000    1.444000
  O     -0.736000   -2.361000   -1.823000
  C     -0.460000    1.864000   -0.653000
  H     -0.460000    1.456000   -1.671000
  H     -0.222000    2.931000   -0.704000
  H      0.318000    1.368000   -0.081000
  C     -2.771000    2.688000   -0.402000
  H     -2.472000    3.694000   -0.087000
  H     -2.894000    2.684000   -1.491000
  H     -3.708000    2.419000    0.081000
  C      0.969000   -2.462000    1.559000
  H      0.247000   -3.283000    1.540000
  H      1.974000   -2.887000    1.641000
  H      0.781000   -1.865000    2.455000

----------------------------
CARTESIAN COORDINATES (A.U.)
----------------------------
  NO LB      ZA    FRAG     MASS         X           Y           Z
   0 C     6.0000    0    12.011   -5.191078   -2.615381   -1.831145
   1 H     1.0000    0     1.008   -6.081139   -2.781677    0.022677
   2 H     1.0000    0     1.008   -6.024447   -3.968425   -3.142615
   3 H     1.0000    0     1.008   -5.555795   -0.706758   -2.534123
   4 C     6.0000    0    12.011   -2.381055   -3.152063   -1.780122
   5 N     7.0000    0    14.007   -0.959981   -2.107045    0.153068
   6 C     6.0000    0    12.011    1.621385   -3.125607    0.508336
   7 H     1.0000    0     1.008    1.863270   -4.425739   -1.077144
   8 C     6.0000    0    12.011    3.554575   -1.043129    0.209760
   9 C     6.0000    0    12.011    4.219758   -0.313695   -2.250664
  10 C     6.0000    0    12.011    4.609042    0.260782    2.258223
  11 C     6.0000    0    12.011    5.880828    1.689415   -2.660734
  12 H     1.0000    0     1.008    3.392058   -1.326588   -3.841813
  13 C     6.0000    0    12.011    6.273891    2.273341    1.850042
  14 H     1.0000    0     1.008    4.176295   -0.304246    4.185743
  15 C     6.0000    0    12.011    6.903170    2.998995   -0.604712
  16 H     1.0000    0     1.008    6.387274    2.226097   -4.578806
  17 H     1.0000    0     1.008    7.082694    3.269226    3.456309
  18 H     1.0000    0     1.008    8.201411    4.559909   -0.918407
  19 C     6.0000    0    12.011   -2.010669   -0.657625    2.254443
  20 H     1.0000    0     1.008   -2.953642   -1.865160    3.649061
  21 H     1.0000    0     1.008   -0.410071    0.258892    3.201196
  22 C     6.0000    0    12.011   -3.962756    1.388949    1.638393
  23 N     7.0000    0    14.007   -3.322139    3.244660   -0.030236
  24 O     8.0000    0    15.999   -6.032006    1.319029    2.728765
  25 O     8.0000    0    15.999   -1.390838   -4.461643   -3.444971
  26 C     6.0000    0    12.011   -0.869274    3.522450   -1.233991
  27 H     1.0000    0     1.008   -0.869274    2.751441   -3.157732
  28 H     1.0000    0     1.008   -0.419519    5.538787   -1.330367
  29 H     1.0000    0     1.008    0.600933    2.585145   -0.153068
  30 C     6.0000    0    12.011   -5.236431    5.079584   -0.759670
  31 H     1.0000    0     1.008   -4.671403    6.980648   -0.164406
  32 H     1.0000    0     1.008   -5.468867    5.072025   -2.817582
  33 H     1.0000    0     1.008   -7.007105    4.571248    0.153068
  34 C     6.0000    0    12.011    1.831145   -4.652506    2.946083
  35 H     1.0000    0     1.008    0.466762   -6.203971    2.910178
  36 H     1.0000    0     1.008    3.730319   -5.455639    3.101041
  37 H     1.0000    0     1.008    1.475876   -3.524339    4.639278

--------------------------------
INTERNAL COORDINATES (ANGSTROEM)
--------------------------------
 C      0   0   0     0.000000000000     0.00000000     0.00000000
 H      1   0   0     1.091762794750     0.00000000     0.00000000
 H      1   2   0     1.090308671891   110.15212373     0.00000000
 H      1   2   3     1.093495770454   107.69711736   118.25257576
 C      1   2   3     1.514118225239   113.11288824   240.84491349
 N      5   1   2     1.384861725950   118.13576418   315.89804126
 C      6   5   1     1.480479989733   116.70838979   166.12399638
 H      7   6   5     1.092542447688   103.87745708     5.71898555
 C      7   6   5     1.511918317899   110.22271226   120.53754794
 C      9   7   6     1.402891300137   117.85960487   280.28021078
 C      9   7   6     1.400899710900   123.20575272    97.10785859
 C     10   9   7     1.394033715518   120.79014853   176.32824677
 H     10   9   7     1.090001834861   118.73743839   357.17749006
 C     11   9   7     1.398943172541   120.41998759   183.91833299
 H     11   9   7     1.087309523549   120.43452432     5.25560620
 C     14  11   9     1.394899996416   120.24522800   359.90521867
 H     12  10   9     1.087522413562   119.94963283   179.64684782
 H     14  11   9     1.087847875394   119.73101622   180.09581227
 H     16  14  11     1.087106710494   120.14785723   180.17525088
 C      6   5   1     1.460811076081   124.42316187     4.38986855
 H     20   6   5     1.096342099894   112.31042071    75.02121748
 H     20   6   5     1.097103003368   106.61169996   192.58166237
 C     20   6   5     1.531748673902   117.76852139   313.72135481
 N     23  20   6     1.363427299125   118.64574214   303.87358463
 O     23  20   6     1.238274202267   118.42863492   125.67443173
 O      5   1   2     1.237330190370   120.54821483   136.84461766
 C     24  23  20     1.453334785932   125.36424755   357.46650169
 H     27  24  23     1.096716918808   111.66718828    99.07317216
 H     27  24  23     1.094410343518   108.25603077   218.61130586
 H     27  24  23     1.085580029293   111.27904902   337.52433885
 C     24  23  20     1.455337074358   118.63652724   175.47476014
 H     31  24  23     1.095747233626   110.26541531   117.24475892
 H     31  24  23     1.095931567207   109.83050941   236.93789561
 H     31  24  23     1.087942553630   108.46749918   357.30306882
 C      7   6   5     1.526199528240   111.54212986   249.76158135
 H     35   7   6     1.093474279533   109.55970959    58.26560645
 H     35   7   6     1.094245859028   109.61887648   177.13386492
 H     35   7   6     1.092963402864   113.03079295   297.64053440

---------------------------
INTERNAL COORDINATES (A.U.)
---------------------------
 C      0   0   0     0.000000000000     0.00000000     0.00000000
 H      1   0   0     2.063132685282     0.00000000     0.00000000
 H      1   2   0     2.060384791313   110.15212373     0.00000000
 H      1   2   3     2.066407534759   107.69711736   118.25257576
 C      1   2   3     2.861268780080   113.11288824   240.84491349
 N      5   1   2     2.617009395394   118.13576418   315.89804126
 C      6   5   1     2.797701727346   116.70838979   166.12399638
 H      7   6   5     2.064606015814   103.87745708     5.71898555
 C      7   6   5     2.857111557689   110.22271226   120.53754794
 C      9   7   6     2.651080352920   117.85960487   280.28021078
 C      9   7   6     2.647316794691   123.20575272    97.10785859
 C     10   9   7     2.634341943781   120.79014853   176.32824677
 H     10   9   7     2.059804953359   118.73743839   357.17749006
 C     11   9   7     2.643619473022   120.41998759   183.91833299
 H     11   9   7     2.054717222312   120.43452432     5.25560620
 C     14  11   9     2.635978977433   120.24522800   359.90521867
 H     12  10   9     2.055119526133   119.94963283   179.64684782
 H     14  11   9     2.055734559863   119.73101622   180.09581227
 H     16  14  11     2.054333961181   120.14785723   180.17525088
 C      6   5   1     2.760532867191   124.42316187     4.38986855
 H     20   6   5     2.071786317888   112.31042071    75.02121748
 H     20   6   5     2.073224217069   106.61169996   192.58166237
 C     20   6   5     2.894585499671   117.76852139   313.72135481
 N     23  20   6     2.576504198859   118.64574214   303.87358463
 O     23  20   6     2.339999120984   118.42863492   125.67443173
 O      5   1   2     2.338215197031   120.54821483   136.84461766
 C     24  23  20     2.746404726313   125.36424755   357.46650169
 H     27  24  23     2.072494622985   111.66718828    99.07317216
 H     27  24  23     2.068135827380   108.25603077   218.61130586
 H     27  24  23     2.051448951818   111.27904902   337.52433885
 C     24  23  20     2.750188503078   118.63652724   175.47476014
 H     31  24  23     2.070662183556   110.26541531   117.24475892
 H     31  24  23     2.071010523540   109.83050941   236.93789561
 H     31  24  23     2.055913475801   108.46749918   357.30306882
 C      7   6   5     2.884099134093   111.54212986   249.76158135
 H     35   7   6     2.066366922804   109.55970959    58.26560645
 H     35   7   6     2.067824996740   109.61887648   177.13386492
 H     35   7   6     2.065401505812   113.03079295   297.64053440

---------------------
BASIS SET INFORMATION
---------------------
There are 4 groups of distinct atoms

 Group   1 Type C   : 10s4p1d contracted to 3s2p1d pattern {631/31/1}
 Group   2 Type H   : 4s contracted to 2s pattern {31}
 Group   3 Type N   : 10s4p1d contracted to 3s2p1d pattern {631/31/1}
 Group   4 Type O   : 10s4p1d contracted to 3s2p1d pattern {631/31/1}

Atom   0C    basis set group =>   1
Atom   1H    basis set group =>   2
Atom   2H    basis set group =>   2
Atom   3H    basis set group =>   2
Atom   4C    basis set group =>   1
Atom   5N    basis set group =>   3
Atom   6C    basis set group =>   1
Atom   7H    basis set group =>   2
Atom   8C    basis set group =>   1
Atom   9C    basis set group =>   1
Atom  10C    basis set group =>   1
Atom  11C    basis set group =>   1
Atom  12H    basis set group =>   2
Atom  13C    basis set group =>   1
Atom  14H    basis set group =>   2
Atom  15C    basis set group =>   1
Atom  16H    basis set group =>   2
Atom  17H    basis set group =>   2
Atom  18H    basis set group =>   2
Atom  19C    basis set group =>   1
Atom  20H    basis set group =>   2
Atom  21H    basis set group =>   2
Atom  22C    basis set group =>   1
Atom  23N    basis set group =>   3
Atom  24O    basis set group =>   4
Atom  25O    basis set group =>   4
Atom  26C    basis set group =>   1
Atom  27H    basis set group =>   2
Atom  28H    basis set group =>   2
Atom  29H    basis set group =>   2
Atom  30C    basis set group =>   1
Atom  31H    basis set group =>   2
Atom  32H    basis set group =>   2
Atom  33H    basis set group =>   2
Atom  34C    basis set group =>   1
Atom  35H    basis set group =>   2
Atom  36H    basis set group =>   2
Atom  37H    basis set group =>   2
---------------------------------
AUXILIARY/J BASIS SET INFORMATION
---------------------------------
There are 4 groups of distinct atoms

 Group   1 Type C   : 13s11p10d2f contracted to 13s11p10d2f pattern {1111111111111/11111111111/1111111111/11}
 Group   2 Type H   : 9s2p contracted to 9s2p pattern {111111111/11}
 Group   3 Type N   : 14s11p10d2f contracted to 14s11p10d2f pattern {11111111111111/11111111111/1111111111/11}
 Group   4 Type O   : 14s11p10d2f contracted to 14s11p10d2f pattern {11111111111111/11111111111/1111111111/11}

Atom   0C    basis set group =>   1
Atom   1H    basis set group =>   2
Atom   2H    basis set group =>   2
Atom   3H    basis set group =>   2
Atom   4C    basis set group =>   1
Atom   5N    basis set group =>   3
Atom   6C    basis set group =>   1
Atom   7H    basis set group =>   2
Atom   8C    basis set group =>   1
Atom   9C    basis set group =>   1
Atom  10C    basis set group =>   1
Atom  11C    basis set group =>   1
Atom  12H    basis set group =>   2
Atom  13C    basis set group =>   1
Atom  14H    basis set group =>   2
Atom  15C    basis set group =>   1
Atom  16H    basis set group =>   2
Atom  17H    basis set group =>   2
Atom  18H    basis set group =>   2
Atom  19C    basis set group =>   1
Atom  20H    basis set group =>   2
Atom  21H    basis set group =>   2
Atom  22C    basis set group =>   1
Atom  23N    basis set group =>   3
Atom  24O    basis set group =>   4
Atom  25O    basis set group =>   4
Atom  26C    basis set group =>   1
Atom  27H    basis set group =>   2
Atom  28H    basis set group =>   2
Atom  29H    basis set group =>   2
Atom  30C    basis set group =>   1
Atom  31H    basis set group =>   2
Atom  32H    basis set group =>   2
Atom  33H    basis set group =>   2
Atom  34C    basis set group =>   1
Atom  35H    basis set group =>   2
Atom  36H    basis set group =>   2
Atom  37H    basis set group =>   2
---------------------------------
AUXILIARY/C BASIS SET INFORMATION
---------------------------------
There are 4 groups of distinct atoms

 Group   1 Type C   : 13s11p10d2f contracted to 13s11p10d2f pattern {1111111111111/11111111111/1111111111/11}
 Group   2 Type H   : 9s2p contracted to 9s2p pattern {111111111/11}
 Group   3 Type N   : 14s11p10d2f contracted to 14s11p10d2f pattern {11111111111111/11111111111/1111111111/11}
 Group   4 Type O   : 14s11p10d2f contracted to 14s11p10d2f pattern {11111111111111/11111111111/1111111111/11}

Atom   0C    basis set group =>   1
Atom   1H    basis set group =>   2
Atom   2H    basis set group =>   2
Atom   3H    basis set group =>   2
Atom   4C    basis set group =>   1
Atom   5N    basis set group =>   3
Atom   6C    basis set group =>   1
Atom   7H    basis set group =>   2
Atom   8C    basis set group =>   1
Atom   9C    basis set group =>   1
Atom  10C    basis set group =>   1
Atom  11C    basis set group =>   1
Atom  12H    basis set group =>   2
Atom  13C    basis set group =>   1
Atom  14H    basis set group =>   2
Atom  15C    basis set group =>   1
Atom  16H    basis set group =>   2
Atom  17H    basis set group =>   2
Atom  18H    basis set group =>   2
Atom  19C    basis set group =>   1
Atom  20H    basis set group =>   2
Atom  21H    basis set group =>   2
Atom  22C    basis set group =>   1
Atom  23N    basis set group =>   3
Atom  24O    basis set group =>   4
Atom  25O    basis set group =>   4
Atom  26C    basis set group =>   1
Atom  27H    basis set group =>   2
Atom  28H    basis set group =>   2
Atom  29H    basis set group =>   2
Atom  30C    basis set group =>   1
Atom  31H    basis set group =>   2
Atom  32H    basis set group =>   2
Atom  33H    basis set group =>   2
Atom  34C    basis set group =>   1
Atom  35H    basis set group =>   2
Atom  36H    basis set group =>   2
Atom  37H    basis set group =>   2
----------------------------------
AUXILIARY/JK BASIS SET INFORMATION
----------------------------------
There are 4 groups of distinct atoms

 Group   1 Type C   : 13s11p10d2f contracted to 13s11p10d2f pattern {1111111111111/11111111111/1111111111/11}
 Group   2 Type H   : 9s2p contracted to 9s2p pattern {111111111/11}
 Group   3 Type N   : 14s11p10d2f contracted to 14s11p10d2f pattern {11111111111111/11111111111/1111111111/11}
 Group   4 Type O   : 14s11p10d2f contracted to 14s11p10d2f pattern {11111111111111/11111111111/1111111111/11}

Atom   0C    basis set group =>   1
Atom   1H    basis set group =>   2
Atom   2H    basis set group =>   2
Atom   3H    basis set group =>   2
Atom   4C    basis set group =>   1
Atom   5N    basis set group =>   3
Atom   6C    basis set group =>   1
Atom   7H    basis set group =>   2
Atom   8C    basis set group =>   1
Atom   9C    basis set group =>   1
Atom  10C    basis set group =>   1
Atom  11C    basis set group =>   1
Atom  12H    basis set group =>   2
Atom  13C    basis set group =>   1
Atom  14H    basis set group =>   2
Atom  15C    basis set group =>   1
Atom  16H    basis set group =>   2
Atom  17H    basis set group =>   2
Atom  18H    basis set group =>   2
Atom  19C    basis set group =>   1
Atom  20H    basis set group =>   2
Atom  21H    basis set group =>   2
Atom  22C    basis set group =>   1
Atom  23N    basis set group =>   3
Atom  24O    basis set group =>   4
Atom  25O    basis set group =>   4
Atom  26C    basis set group =>   1
Atom  27H    basis set group =>   2
Atom  28H    basis set group =>   2
Atom  29H    basis set group =>   2
Atom  30C    basis set group =>   1
Atom  31H    basis set group =>   2
Atom  32H    basis set group =>   2
Atom  33H    basis set group =>   2
Atom  34C    basis set group =>   1
Atom  35H    basis set group =>   2
Atom  36H    basis set group =>   2
Atom  37H    basis set group =>   2


           ************************************************************
           *        Program running with 4 parallel MPI-processes     *
           *              working on a common directory               *
           ************************************************************
------------------------------------------------------------------------------
                           ORCA GTO INTEGRAL CALCULATION
                           -- RI-GTO INTEGRALS CHOSEN --
------------------------------------------------------------------------------
------------------------------------------------------------------------------
                   ___                                                        
                  /   \      - P O W E R E D   B Y -                         
                 /     \                                                     
                 |  |  |   _    _      __       _____    __    __             
                 |  |  |  | |  | |    /  \     |  _  \  |  |  /  |          
                  \  \/   | |  | |   /    \    | | | |  |  | /  /          
                 / \  \   | |__| |  /  /\  \   | |_| |  |  |/  /          
                |  |  |   |  __  | /  /__\  \  |    /   |      \           
                |  |  |   | |  | | |   __   |  |    \   |  |\   \          
                \     /   | |  | | |  |  |  |  | |\  \  |  | \   \       
                 \___/    |_|  |_| |__|  |__|  |_| \__\ |__|  \__/        
                                                                              
                      - O R C A' S   B I G   F R I E N D -                    
                                      &                                       
                       - I N T E G R A L  F E E D E R -                       
                                                                              
 v1 FN, 2020, v2 2021                                                         
------------------------------------------------------------------------------


Reading SHARK input file Nfer_gas.SHARKINP.tmp ... ok
----------------------
SHARK INTEGRAL PACKAGE
----------------------

Number of atoms                             ...     38
Number of basis functions                   ...    292
Number of shells                            ...    148
Maximum angular momentum                    ...      2
Integral batch strategy                     ... SHARK/LIBINT Hybrid
RI-J (if used) integral strategy            ... SPLIT-RIJ (Revised 2003 algorithm where possible)
Printlevel                                  ...      1
Contraction scheme used                     ... SEGMENTED contraction
Coulomb Range Separation                    ... NOT USED
Exchange Range Separation                   ... NOT USED
Finite Nucleus Model                        ... NOT USED
Auxiliary Coulomb fitting basis             ... AVAILABLE
   # of basis functions in Aux-J            ...   2284
   # of shells in Aux-J                     ...    872
   Maximum angular momentum in Aux-J        ...      3
Auxiliary J/K fitting basis                 ... AVAILABLE
   # of basis functions in Aux-JK           ...   2284
   # of shells in Aux-JK                    ...    872
   Maximum angular momentum in Aux-JK       ...      3
Auxiliary Correlation fitting basis         ... AVAILABLE
   # of basis functions in Aux-C            ...   2284
   # of shells in Aux-C                     ...    872
   Maximum angular momentum in Aux-C        ...      3
Auxiliary 'external' fitting basis          ... NOT available
Integral threshold                          ...     2.500000e-11
Primitive cut-off                           ...     2.500000e-12
Primitive pair pre-selection threshold      ...     2.500000e-12

Calculating pre-screening integrals         ... done (  0.1 sec) Dimension = 148
Organizing shell pair data                  ... done (  0.7 sec)
Shell pair information
Total number of shell pairs                 ...     11026
Shell pairs after pre-screening             ...      9267
Total number of primitive shell pairs       ...     61863
Primitive shell pairs kept                  ...     29594
          la=0 lb=0:   3612 shell pairs
          la=1 lb=0:   3020 shell pairs
          la=1 lb=1:    630 shell pairs
          la=2 lb=0:   1303 shell pairs
          la=2 lb=1:    575 shell pairs
          la=2 lb=2:    127 shell pairs

Calculating one electron integrals          ... done (  0.0 sec)
Calculating RI/J V-Matrix + Cholesky decomp.... done (  0.4 sec)
Calculating RI/JK V-Matrix + Cholesky decomp... done (  0.4 sec)
Calculating RI/C V-Matrix + Cholesky decomp.... done (  0.4 sec)
Calculating Nuclear repulsion               ... done (  0.0 sec) ENN=   1404.007709709377 Eh

SHARK setup successfully completed in   2.3 seconds

Maximum memory used throughout the entire GTOINT-calculation: 44.9 MB


           ************************************************************
           *        Program running with 4 parallel MPI-processes     *
           *              working on a common directory               *
           ************************************************************
-------------------------------------------------------------------------------
                                 ORCA SCF
-------------------------------------------------------------------------------

------------
SCF SETTINGS
------------
Hamiltonian:
 Density Functional     Method          .... DFT(GTOs)
 Exchange Functional    Exchange        .... B88
   X-Alpha parameter    XAlpha          ....  0.666667
   Becke's b parameter  XBeta           ....  0.004200
 Correlation Functional Correlation     .... LYP
 LDA part of GGA corr.  LDAOpt          .... VWN-5
 Gradients option       PostSCFGGA      .... off
 Hybrid DFT is turned on
   Fraction HF Exchange ScalHFX         ....  0.200000
   Scaling of DF-GGA-X  ScalDFX         ....  0.720000
   Scaling of DF-GGA-C  ScalDFC         ....  0.810000
   Scaling of DF-LDA-C  ScalLDAC        ....  1.000000
   Perturbative correction              ....  0.000000
   Density functional embedding theory  .... OFF
   NL short-range parameter             ....  4.800000
 RI-approximation to the Coulomb term is turned on
   Number of AuxJ basis functions       .... 2284
   RIJ-COSX (HFX calculated with COS-X)).... on


General Settings:
 Integral files         IntName         .... Nfer_gas
 Hartree-Fock type      HFTyp           .... RHF
 Total Charge           Charge          ....    0
 Multiplicity           Mult            ....    1
 Number of Electrons    NEL             ....  134
 Basis Dimension        Dim             ....  292
 Nuclear Repulsion      ENuc            ....   1404.0077097094 Eh

Convergence Acceleration:
 DIIS                   CNVDIIS         .... on
   Start iteration      DIISMaxIt       ....    12
   Startup error        DIISStart       ....  0.200000
   # of expansion vecs  DIISMaxEq       ....     5
   Bias factor          DIISBfac        ....   1.050
   Max. coefficient     DIISMaxC        ....  10.000
 Trust-Rad. Augm. Hess. CNVTRAH         .... auto
   Auto Start mean grad. ratio tolernc. ....  1.125000
   Auto Start start iteration           ....    20
   Auto Start num. interpolation iter.  ....    10
   Max. Number of Micro iterations      ....    16
   Max. Number of Macro iterations      .... Maxiter - #DIIS iter
   Number of Davidson start vectors     ....     2
   Converg. threshold I  (grad. norm)   ....   1.000e-05
   Converg. threshold II (energy diff.) ....   1.000e-08
   Grad. Scal. Fac. for Micro threshold ....   0.100
   Minimum threshold for Micro iter.    ....   0.010
   NR start threshold (gradient norm)   ....   0.001
   Initial trust radius                 ....   0.400
   Minimum AH scaling param. (alpha)    ....   1.000
   Maximum AH scaling param. (alpha)    .... 1000.000
   Orbital update algorithm             .... Taylor
   White noise on init. David. guess    .... on
   Maximum white noise                  ....   0.010
   Quad. conv. algorithm                .... NR
 SOSCF                  CNVSOSCF        .... on
   Start iteration      SOSCFMaxIt      ....   150
   Startup grad/error   SOSCFStart      ....  0.003300
 Level Shifting         CNVShift        .... on
   Level shift para.    LevelShift      ....    0.2500
   Turn off err/grad.   ShiftErr        ....    0.0010
 Zerner damping         CNVZerner       .... off
 Static damping         CNVDamp         .... on
   Fraction old density DampFac         ....    0.7000
   Max. Damping (<1)    DampMax         ....    0.9800
   Min. Damping (>=0)   DampMin         ....    0.0000
   Turn off err/grad.   DampErr         ....    0.1000
 Fernandez-Rico         CNVRico         .... off

SCF Procedure:
 Maximum # iterations   MaxIter         ....   125
 SCF integral mode      SCFMode         .... Direct
   Integral package                     .... SHARK and LIBINT hybrid scheme
 Reset frequency        DirectResetFreq ....    20
 Integral Threshold     Thresh          ....  2.500e-11 Eh
 Primitive CutOff       TCut            ....  2.500e-12 Eh

Convergence Tolerance:
 Convergence Check Mode ConvCheckMode   .... Total+1el-Energy
 Convergence forced     ConvForced      .... 0
 Energy Change          TolE            ....  1.000e-08 Eh
 1-El. energy change                    ....  1.000e-05 Eh
 Orbital Gradient       TolG            ....  1.000e-05
 Orbital Rotation angle TolX            ....  1.000e-05
 DIIS Error             TolErr          ....  5.000e-07


Diagonalization of the overlap matrix:
Smallest eigenvalue                        ... 4.788e-04
Time for diagonalization                   ...    0.013 sec
Threshold for overlap eigenvalues          ... 1.000e-08
Number of eigenvalues below threshold      ... 0
Time for construction of square roots      ...    0.007 sec
Total time needed                          ...    0.021 sec

Time for model grid setup =    0.383 sec

------------------------------
INITIAL GUESS: MODEL POTENTIAL
------------------------------
Loading Hartree-Fock densities                     ... done
Calculating cut-offs                               ... done
Initializing the effective Hamiltonian             ... done
Setting up the integral package (SHARK)            ... done
Starting the Coulomb interaction                   ... done (   0.3 sec)
Reading the grid                                   ... done
Mapping shells                                     ... done
Starting the XC term evaluation                    ... done (   0.2 sec)
  promolecular density results
     # of electrons  =    133.987691645
     EX              =   -107.482778686
     EC              =     -4.513739913
     EX+EC           =   -111.996518599
Transforming the Hamiltonian                       ... done (   0.0 sec)
Diagonalizing the Hamiltonian                      ... done (   0.0 sec)
Back transforming the eigenvectors                 ... done (   0.0 sec)
Now organizing SCF variables                       ... done
                      ------------------
                      INITIAL GUESS DONE (   0.9 sec)
                      ------------------
-------------------
DFT GRID GENERATION
-------------------

General Integration Accuracy     IntAcc      ... 4.388
Radial Grid Type                 RadialGrid  ... OptM3 with GC (2021)
Angular Grid (max. ang.)         AngularGrid ... 4 (Lebedev-302)
Angular grid pruning method      GridPruning ... 4 (adaptive)
Weight generation scheme         WeightScheme... Becke
Basis function cutoff            BFCut       ... 1.0000e-11
Integration weight cutoff        WCut        ... 1.0000e-14
Angular grids for H and He will be reduced by one unit
Partially contracted basis set               ... off
Rotationally invariant grid construction     ... off

Total number of grid points                  ...   170594
Total number of batches                      ...     2684
Average number of points per batch           ...       63
Average number of grid points per atom       ...     4489
Time for grid setup =    1.541 sec

--------------------
COSX GRID GENERATION
--------------------

GRIDX 1
-------
General Integration Accuracy     IntAcc      ... 3.816
Radial Grid Type                 RadialGrid  ... OptM3 with GC (2021)
Angular Grid (max. ang.)         AngularGrid ... 1 (Lebedev-50)
Angular grid pruning method      GridPruning ... 4 (adaptive)
Weight generation scheme         WeightScheme... Becke
Basis function cutoff            BFCut       ... 1.0000e-11
Integration weight cutoff        WCut        ... 1.0000e-14
Angular grids for H and He will be reduced by one unit
Partially contracted basis set               ... on
Rotationally invariant grid construction     ... off

Total number of grid points                  ...    21713
Total number of batches                      ...      360
Average number of points per batch           ...       60
Average number of grid points per atom       ...      571
UseSFitting                                  ... on

GRIDX 2
-------
General Integration Accuracy     IntAcc      ... 4.020
Radial Grid Type                 RadialGrid  ... OptM3 with GC (2021)
Angular Grid (max. ang.)         AngularGrid ... 2 (Lebedev-110)
Angular grid pruning method      GridPruning ... 4 (adaptive)
Weight generation scheme         WeightScheme... Becke
Basis function cutoff            BFCut       ... 1.0000e-11
Integration weight cutoff        WCut        ... 1.0000e-14
Angular grids for H and He will be reduced by one unit
Partially contracted basis set               ... on
Rotationally invariant grid construction     ... off

Total number of grid points                  ...    46055
Total number of batches                      ...      740
Average number of points per batch           ...       62
Average number of grid points per atom       ...     1212
UseSFitting                                  ... on

GRIDX 3
-------
General Integration Accuracy     IntAcc      ... 4.338
Radial Grid Type                 RadialGrid  ... OptM3 with GC (2021)
Angular Grid (max. ang.)         AngularGrid ... 3 (Lebedev-194)
Angular grid pruning method      GridPruning ... 4 (adaptive)
Weight generation scheme         WeightScheme... Becke
Basis function cutoff            BFCut       ... 1.0000e-11
Integration weight cutoff        WCut        ... 1.0000e-14
Angular grids for H and He will be reduced by one unit
Partially contracted basis set               ... on
Rotationally invariant grid construction     ... off

Total number of grid points                  ...   100269
Total number of batches                      ...     1587
Average number of points per batch           ...       63
Average number of grid points per atom       ...     2639
UseSFitting                                  ... on

Time for X-Grid setup             =    1.689 sec

--------------
SCF ITERATIONS
--------------
ITER       Energy         Delta-E        Max-DP      RMS-DP      [F,P]     Damp
               ***  Starting incremental Fock matrix formation  ***
  0   -804.4748802772   0.000000000000 0.09666780  0.00201021  0.2746938 0.7000
  1   -804.7143477791  -0.239467501956 0.05293824  0.00133658  0.1020982 0.7000
                               ***Turning on DIIS***
  2   -804.8072049016  -0.092857122424 0.06658991  0.00207784  0.0399747 0.0000
  3   -804.9571876291  -0.149982727502 0.03573935  0.00093314  0.0516669 0.0000
  4   -804.9871720105  -0.029984381491 0.01070117  0.00031195  0.0150647 0.0000
  5   -804.9896705292  -0.002498518680 0.00341405  0.00009321  0.0056592 0.0000
                      *** Initiating the SOSCF procedure ***
                           *** Shutting down DIIS ***
                      *** Re-Reading the Fockian *** 
                      *** Removing any level shift *** 
ITER      Energy       Delta-E        Grad      Rot      Max-DP    RMS-DP
  6   -804.98981650  -0.0001459747  0.000237  0.000237  0.001144  0.000028
               *** Restarting incremental Fock matrix formation ***
  7   -804.98978176   0.0000347402  0.000124  0.000482  0.000796  0.000017
  8   -804.98978109   0.0000006713  0.000219  0.000320  0.000555  0.000008
  9   -804.98978348  -0.0000023892  0.000042  0.000115  0.000210  0.000004
 10   -804.98978329   0.0000001912  0.000092  0.000082  0.000158  0.000003
 11   -804.98978354  -0.0000002487  0.000006  0.000010  0.000028  0.000001
 12   -804.98978354  -0.0000000016  0.000006  0.000006  0.000017  0.000000
                  ***Gradient check signals convergence***
              ***Rediagonalizing the Fockian in SOSCF/NRSCF***

               *****************************************************
               *                     SUCCESS                       *
               *           SCF CONVERGED AFTER  13 CYCLES          *
               *****************************************************

Old exchange energy                            =    -21.898524659 Eh
New exchange energy                            =    -21.898557232 Eh
Exchange energy change after final integration =     -0.000032573 Eh
Total energy after final integration           =   -804.989816109 Eh
Final COS-X integration done in                =    15.508 sec

----------------
TOTAL SCF ENERGY
----------------

Total Energy       :         -804.98981611 Eh          -21904.88652 eV

Components:
Nuclear Repulsion  :         1404.00770971 Eh           38204.99209 eV
Electronic Energy  :        -2208.99752582 Eh          -60109.87860 eV
One Electron Energy:        -3881.95004597 Eh         -105633.23104 eV
Two Electron Energy:         1672.95252015 Eh           45523.35244 eV
Max COSX asymmetry :            0.00000329 Eh               0.00009 eV

Virial components:
Potential Energy   :        -1605.27951755 Eh          -43681.87642 eV
Kinetic Energy     :          800.28970144 Eh           21776.98990 eV
Virial Ratio       :            2.00587302


DFT components:
N(Alpha)           :       67.000048249833 electrons
N(Beta)            :       67.000048249833 electrons
N(Total)           :      134.000096499665 electrons
E(X)               :      -86.938302085447 Eh       
E(C)               :       -5.317833641172 Eh       
E(XC)              :      -92.256135726619 Eh       
DFET-embed. en.    :        0.000000000000 Eh       

---------------
SCF CONVERGENCE
---------------

  Last Energy change         ...    4.0973e-09  Tolerance :   1.0000e-08
  Last MAX-Density change    ...    4.8850e-15  Tolerance :   1.0000e-07
  Last RMS-Density change    ...    3.8040e-17  Tolerance :   5.0000e-09
  Last Orbital Gradient      ...    1.5936e-06  Tolerance :   1.0000e-05
  Last Orbital Rotation      ...    5.7202e-06  Tolerance :   1.0000e-05

             **** THE GBW FILE WAS UPDATED (Nfer_gas.gbw) ****
             **** DENSITY Nfer_gas.scfp WAS UPDATED ****
             **** ENERGY FILE WAS UPDATED (Nfer_gas.en.tmp) ****
             **** THE GBW FILE WAS UPDATED (Nfer_gas.gbw) ****
             **** DENSITY Nfer_gas.scfp WAS UPDATED ****
----------------
ORBITAL ENERGIES
----------------

  NO   OCC          E(Eh)            E(eV) 
   0   2.0000     -19.103295      -519.8271 
   1   2.0000     -19.101783      -519.7859 
   2   2.0000     -14.361872      -390.8064 
   3   2.0000     -14.356907      -390.6713 
   4   2.0000     -10.281219      -279.7662 
   5   2.0000     -10.278321      -279.6873 
   6   2.0000     -10.223736      -278.2020 
   7   2.0000     -10.217108      -278.0217 
   8   2.0000     -10.208565      -277.7892 
   9   2.0000     -10.203977      -277.6643 
  10   2.0000     -10.193385      -277.3761 
  11   2.0000     -10.190279      -277.2916 
  12   2.0000     -10.189462      -277.2694 
  13   2.0000     -10.189063      -277.2585 
  14   2.0000     -10.188641      -277.2470 
  15   2.0000     -10.184434      -277.1325 
  16   2.0000     -10.174547      -276.8635 
  17   2.0000     -10.169976      -276.7391 
  18   2.0000      -1.027323       -27.9549 
  19   2.0000      -1.019886       -27.7525 
  20   2.0000      -0.936032       -25.4707 
  21   2.0000      -0.928171       -25.2568 
  22   2.0000      -0.858190       -23.3525 
  23   2.0000      -0.790418       -21.5084 
  24   2.0000      -0.749447       -20.3935 
  25   2.0000      -0.744410       -20.2564 
  26   2.0000      -0.735896       -20.0248 
  27   2.0000      -0.719787       -19.5864 
  28   2.0000      -0.716837       -19.5061 
  29   2.0000      -0.684150       -18.6167 
  30   2.0000      -0.640882       -17.4393 
  31   2.0000      -0.607748       -16.5377 
  32   2.0000      -0.587433       -15.9849 
  33   2.0000      -0.563266       -15.3272 
  34   2.0000      -0.540424       -14.7057 
  35   2.0000      -0.521829       -14.1997 
  36   2.0000      -0.494850       -13.4656 
  37   2.0000      -0.484448       -13.1825 
  38   2.0000      -0.483584       -13.1590 
  39   2.0000      -0.468167       -12.7395 
  40   2.0000      -0.460586       -12.5332 
  41   2.0000      -0.458401       -12.4737 
  42   2.0000      -0.449844       -12.2409 
  43   2.0000      -0.448184       -12.1957 
  44   2.0000      -0.431968       -11.7544 
  45   2.0000      -0.421469       -11.4688 
  46   2.0000      -0.419113       -11.4046 
  47   2.0000      -0.407795       -11.0967 
  48   2.0000      -0.406502       -11.0615 
  49   2.0000      -0.403898       -10.9906 
  50   2.0000      -0.397374       -10.8131 
  51   2.0000      -0.391699       -10.6587 
  52   2.0000      -0.387012       -10.5311 
  53   2.0000      -0.380272       -10.3477 
  54   2.0000      -0.377688       -10.2774 
  55   2.0000      -0.367032        -9.9874 
  56   2.0000      -0.357650        -9.7322 
  57   2.0000      -0.353295        -9.6136 
  58   2.0000      -0.348987        -9.4964 
  59   2.0000      -0.337283        -9.1779 
  60   2.0000      -0.333918        -9.0864 
  61   2.0000      -0.257374        -7.0035 
  62   2.0000      -0.256507        -6.9799 
  63   2.0000      -0.247599        -6.7375 
  64   2.0000      -0.239854        -6.5268 
  65   2.0000      -0.239190        -6.5087 
  66   2.0000      -0.232228        -6.3193 
  67   0.0000      -0.010148        -0.2761 
  68   0.0000      -0.008217        -0.2236 
  69   0.0000       0.018503         0.5035 
  70   0.0000       0.026432         0.7193 
  71   0.0000       0.078039         2.1235 
  72   0.0000       0.087344         2.3768 
  73   0.0000       0.101415         2.7596 
  74   0.0000       0.119803         3.2600 
  75   0.0000       0.131375         3.5749 
  76   0.0000       0.135430         3.6852 
  77   0.0000       0.137235         3.7344 
  78   0.0000       0.145649         3.9633 
  79   0.0000       0.149007         4.0547 
  80   0.0000       0.153951         4.1892 
  81   0.0000       0.158081         4.3016 
  82   0.0000       0.160971         4.3803 
  83   0.0000       0.166439         4.5290 
  84   0.0000       0.167467         4.5570 
  85   0.0000       0.170265         4.6332 
  86   0.0000       0.175785         4.7833 
  87   0.0000       0.180852         4.9212 
  88   0.0000       0.186611         5.0779 
  89   0.0000       0.192102         5.2274 
  90   0.0000       0.201303         5.4777 
  91   0.0000       0.207441         5.6447 
  92   0.0000       0.215123         5.8538 
  93   0.0000       0.221392         6.0244 
  94   0.0000       0.224754         6.1159 
  95   0.0000       0.233396         6.3510 
  96   0.0000       0.244924         6.6647 
  97   0.0000       0.252382         6.8677 
  98   0.0000       0.277356         7.5472 
  99   0.0000       0.296018         8.0550 
 100   0.0000       0.300810         8.1854 
 101   0.0000       0.315698         8.5906 
 102   0.0000       0.328838         8.9481 
 103   0.0000       0.338335         9.2066 
 104   0.0000       0.344812         9.3828 
 105   0.0000       0.367344         9.9959 
 106   0.0000       0.376603        10.2479 
 107   0.0000       0.409462        11.1420 
 108   0.0000       0.453620        12.3436 
 109   0.0000       0.465099        12.6560 
 110   0.0000       0.480906        13.0861 
 111   0.0000       0.492838        13.4108 
 112   0.0000       0.508758        13.8440 
 113   0.0000       0.525078        14.2881 
 114   0.0000       0.536190        14.5905 
 115   0.0000       0.537836        14.6353 
 116   0.0000       0.542021        14.7491 
 117   0.0000       0.553085        15.0502 
 118   0.0000       0.555322        15.1111 
 119   0.0000       0.568279        15.4637 
 120   0.0000       0.576541        15.6885 
 121   0.0000       0.582049        15.8384 
 122   0.0000       0.587995        16.0001 
 123   0.0000       0.603717        16.4280 
 124   0.0000       0.606771        16.5111 
 125   0.0000       0.613506        16.6943 
 126   0.0000       0.616924        16.7874 
 127   0.0000       0.618978        16.8432 
 128   0.0000       0.624982        17.0066 
 129   0.0000       0.638263        17.3680 
 130   0.0000       0.653103        17.7718 
 131   0.0000       0.659037        17.9333 
 132   0.0000       0.663391        18.0518 
 133   0.0000       0.671087        18.2612 
 134   0.0000       0.693107        18.8604 
 135   0.0000       0.695004        18.9120 
 136   0.0000       0.700226        19.0541 
 137   0.0000       0.723023        19.6744 
 138   0.0000       0.735344        20.0097 
 139   0.0000       0.748611        20.3707 
 140   0.0000       0.758153        20.6304 
 141   0.0000       0.779486        21.2109 
 142   0.0000       0.795423        21.6446 
 143   0.0000       0.808112        21.9898 
 144   0.0000       0.816456        22.2169 
 145   0.0000       0.822707        22.3870 
 146   0.0000       0.826516        22.4906 
 147   0.0000       0.834313        22.7028 
 148   0.0000       0.836084        22.7510 
 149   0.0000       0.844215        22.9723 
 150   0.0000       0.849422        23.1140 
 151   0.0000       0.858726        23.3671 
 152   0.0000       0.865270        23.5452 
 153   0.0000       0.875147        23.8140 
 154   0.0000       0.883631        24.0448 
 155   0.0000       0.886386        24.1198 
 156   0.0000       0.890974        24.2446 
 157   0.0000       0.893131        24.3033 
 158   0.0000       0.902722        24.5643 
 159   0.0000       0.911387        24.8001 
 160   0.0000       0.917371        24.9629 
 161   0.0000       0.927407        25.2360 
 162   0.0000       0.938855        25.5475 
 163   0.0000       0.952066        25.9070 
 164   0.0000       0.953059        25.9340 
 165   0.0000       0.963593        26.2207 
 166   0.0000       0.972608        26.4660 
 167   0.0000       0.978156        26.6170 
 168   0.0000       0.984925        26.8012 
 169   0.0000       0.988124        26.8882 
 170   0.0000       1.014751        27.6128 
 171   0.0000       1.017570        27.6895 
 172   0.0000       1.025920        27.9167 
 173   0.0000       1.040373        28.3100 
 174   0.0000       1.054921        28.7059 
 175   0.0000       1.075428        29.2639 
 176   0.0000       1.091814        29.7098 
 177   0.0000       1.113335        30.2954 
 178   0.0000       1.119411        30.4607 
 179   0.0000       1.138743        30.9868 
 180   0.0000       1.149972        31.2923 
 181   0.0000       1.156261        31.4634 
 182   0.0000       1.167325        31.7645 
 183   0.0000       1.188424        32.3387 
 184   0.0000       1.189000        32.3543 
 185   0.0000       1.224271        33.3141 
 186   0.0000       1.248547        33.9747 
 187   0.0000       1.259883        34.2832 
 188   0.0000       1.273014        34.6405 
 189   0.0000       1.310283        35.6546 
 190   0.0000       1.336295        36.3624 
 191   0.0000       1.356805        36.9205 
 192   0.0000       1.370280        37.2872 
 193   0.0000       1.394095        37.9353 
 194   0.0000       1.422362        38.7044 
 195   0.0000       1.424485        38.7622 
 196   0.0000       1.429121        38.8884 
 197   0.0000       1.443541        39.2807 
 198   0.0000       1.450463        39.4691 
 199   0.0000       1.457918        39.6720 
 200   0.0000       1.481464        40.3127 
 201   0.0000       1.488397        40.5014 
 202   0.0000       1.501274        40.8517 
 203   0.0000       1.511460        41.1289 
 204   0.0000       1.521268        41.3958 
 205   0.0000       1.560520        42.4639 
 206   0.0000       1.585542        43.1448 
 207   0.0000       1.613614        43.9087 
 208   0.0000       1.633976        44.4627 
 209   0.0000       1.685408        45.8623 
 210   0.0000       1.696944        46.1762 
 211   0.0000       1.711432        46.5704 
 212   0.0000       1.751486        47.6603 
 213   0.0000       1.763186        47.9787 
 214   0.0000       1.782702        48.5098 
 215   0.0000       1.805558        49.1317 
 216   0.0000       1.813730        49.3541 
 217   0.0000       1.817673        49.4614 
 218   0.0000       1.833040        49.8796 
 219   0.0000       1.845260        50.2121 
 220   0.0000       1.860040        50.6143 
 221   0.0000       1.866975        50.8030 
 222   0.0000       1.881669        51.2028 
 223   0.0000       1.910501        51.9874 
 224   0.0000       1.913582        52.0712 
 225   0.0000       1.920110        52.2488 
 226   0.0000       1.921069        52.2749 
 227   0.0000       1.943798        52.8934 
 228   0.0000       1.950281        53.0698 
 229   0.0000       1.972524        53.6751 
 230   0.0000       1.976311        53.7781 
 231   0.0000       1.986206        54.0474 
 232   0.0000       1.989811        54.1455 
 233   0.0000       2.008207        54.6461 
 234   0.0000       2.018879        54.9365 
 235   0.0000       2.044721        55.6397 
 236   0.0000       2.052983        55.8645 
 237   0.0000       2.070397        56.3384 
 238   0.0000       2.078698        56.5642 
 239   0.0000       2.098176        57.0943 
 240   0.0000       2.102064        57.2001 
 241   0.0000       2.113676        57.5160 
 242   0.0000       2.123808        57.7918 
 243   0.0000       2.134426        58.0807 
 244   0.0000       2.143115        58.3171 
 245   0.0000       2.166973        58.9663 
 246   0.0000       2.177840        59.2621 
 247   0.0000       2.199721        59.8575 
 248   0.0000       2.218048        60.3561 
 249   0.0000       2.231328        60.7175 
 250   0.0000       2.237932        60.8972 
 251   0.0000       2.252180        61.2849 
 252   0.0000       2.265295        61.6418 
 253   0.0000       2.298491        62.5451 
 254   0.0000       2.301974        62.6399 
 255   0.0000       2.310698        62.8773 
 256   0.0000       2.313417        62.9513 
 257   0.0000       2.332501        63.4706 
 258   0.0000       2.341435        63.7137 
 259   0.0000       2.362419        64.2847 
 260   0.0000       2.379592        64.7520 
 261   0.0000       2.399107        65.2830 
 262   0.0000       2.412271        65.6412 
 263   0.0000       2.434973        66.2590 
 264   0.0000       2.475095        67.3508 
 265   0.0000       2.490106        67.7592 
 266   0.0000       2.501367        68.0657 
 267   0.0000       2.560421        69.6726 
 268   0.0000       2.579007        70.1784 
 269   0.0000       2.584826        70.3367 
 270   0.0000       2.592119        70.5351 
 271   0.0000       2.607312        70.9486 
 272   0.0000       2.632909        71.6451 
 273   0.0000       2.646220        72.0073 
 274   0.0000       2.660228        72.3885 
 275   0.0000       2.667084        72.5750 
 276   0.0000       2.698364        73.4262 
 277   0.0000       2.727108        74.2084 
 278   0.0000       2.741966        74.6127 
 279   0.0000       2.750177        74.8361 
 280   0.0000       2.764141        75.2161 
 281   0.0000       2.789407        75.9036 
 282   0.0000       2.828014        76.9542 
 283   0.0000       2.883219        78.4564 
 284   0.0000       2.929479        79.7152 
 285   0.0000       2.973246        80.9061 
 286   0.0000       3.012368        81.9707 
 287   0.0000       3.036018        82.6142 
 288   0.0000       3.072412        83.6046 
 289   0.0000       3.166697        86.1702 
 290   0.0000       3.188271        86.7573 
 291   0.0000       3.407509        92.7230 

                    ********************************
                    * MULLIKEN POPULATION ANALYSIS *
                    ********************************

-----------------------
MULLIKEN ATOMIC CHARGES
-----------------------
   0 C :   -0.558110
   1 H :    0.190498
   2 H :    0.183085
   3 H :    0.181059
   4 C :    0.526666
   5 N :   -0.386108
   6 C :   -0.080601
   7 H :    0.195386
   8 C :    0.151527
   9 C :   -0.180526
  10 C :   -0.192650
  11 C :   -0.130396
  12 H :    0.156726
  13 C :   -0.129849
  14 H :    0.129518
  15 C :   -0.128155
  16 H :    0.134036
  17 H :    0.132082
  18 H :    0.131594
  19 C :   -0.255128
  20 H :    0.182367
  21 H :    0.174167
  22 C :    0.518468
  23 N :   -0.363166
  24 O :   -0.487832
  25 O :   -0.480437
  26 C :   -0.323940
  27 H :    0.162662
  28 H :    0.154986
  29 H :    0.193399
  30 C :   -0.325394
  31 H :    0.155668
  32 H :    0.152418
  33 H :    0.204314
  34 C :   -0.456404
  35 H :    0.160968
  36 H :    0.160461
  37 H :    0.146643
Sum of atomic charges:   -0.0000000

--------------------------------
MULLIKEN REDUCED ORBITAL CHARGES
--------------------------------
  0 C s       :     3.323348  s :     3.323348
      pz      :     1.112758  p :     3.202648
      px      :     0.989263
      py      :     1.100626
      dz2     :     0.006674  d :     0.032114
      dxz     :     0.006300
      dyz     :     0.006022
      dx2y2   :     0.009196
      dxy     :     0.003923
  1 H s       :     0.809502  s :     0.809502
  2 H s       :     0.816915  s :     0.816915
  3 H s       :     0.818941  s :     0.818941
  4 C s       :     2.986209  s :     2.986209
      pz      :     0.768299  p :     2.379992
      px      :     0.830001
      py      :     0.781692
      dz2     :     0.030073  d :     0.107133
      dxz     :     0.024581
      dyz     :     0.017419
      dx2y2   :     0.017361
      dxy     :     0.017699
  5 N s       :     3.541449  s :     3.541449
      pz      :     1.223377  p :     3.808815
      px      :     1.138282
      py      :     1.447156
      dz2     :     0.007154  d :     0.035843
      dxz     :     0.009293
      dyz     :     0.006200
      dx2y2   :     0.005442
      dxy     :     0.007755
  6 C s       :     3.207193  s :     3.207193
      pz      :     1.029300  p :     2.814560
      px      :     0.801089
      py      :     0.984171
      dz2     :     0.010868  d :     0.058848
      dxz     :     0.006952
      dyz     :     0.013126
      dx2y2   :     0.012979
      dxy     :     0.014925
  7 H s       :     0.804614  s :     0.804614
  8 C s       :     3.137531  s :     3.137531
      pz      :     0.855961  p :     2.670664
      px      :     0.905345
      py      :     0.909358
      dz2     :     0.010427  d :     0.040278
      dxz     :     0.008965
      dyz     :     0.010495
      dx2y2   :     0.004614
      dxy     :     0.005778
  9 C s       :     3.205811  s :     3.205811
      pz      :     0.993713  p :     2.938624
      px      :     0.972074
      py      :     0.972838
      dz2     :     0.008578  d :     0.036091
      dxz     :     0.008049
      dyz     :     0.010024
      dx2y2   :     0.004518
      dxy     :     0.004922
 10 C s       :     3.205064  s :     3.205064
      pz      :     0.980811  p :     2.951476
      px      :     0.996527
      py      :     0.974138
      dz2     :     0.010955  d :     0.036111
      dxz     :     0.006224
      dyz     :     0.008260
      dx2y2   :     0.005651
      dxy     :     0.005021
 11 C s       :     3.191948  s :     3.191948
      pz      :     0.972361  p :     2.902194
      px      :     0.970628
      py      :     0.959205
      dz2     :     0.010858  d :     0.036254
      dxz     :     0.006531
      dyz     :     0.008164
      dx2y2   :     0.005615
      dxy     :     0.005086
 12 H s       :     0.843274  s :     0.843274
 13 C s       :     3.189817  s :     3.189817
      pz      :     0.959651  p :     2.903775
      px      :     0.975285
      py      :     0.968839
      dz2     :     0.008759  d :     0.036258
      dxz     :     0.007894
      dyz     :     0.010127
      dx2y2   :     0.004557
      dxy     :     0.004920
 14 H s       :     0.870482  s :     0.870482
[...]
    107      -0.000124  -0.000010  -0.000669   0.000043  -0.000600   0.000159
    108       0.002623  -0.000063   0.001751  -0.002375   0.000652  -0.001671
    109      -0.000342   0.000020   0.000095   0.000225   0.000008   0.000696
    110       0.000837  -0.000003   0.000763  -0.000839   0.000411  -0.000178
    111       0.004157  -0.000036   0.003759  -0.003617   0.001561  -0.000101
    112      -0.018027   0.000173  -0.018017   0.016869  -0.008804   0.001114
    113      -0.024094   0.000255  -0.022636   0.022213  -0.010797   0.001480


-----------
IR SPECTRUM
-----------

 Mode   freq       eps      Int      T**2         TX        TY        TZ
       cm**-1   L/(mol*cm) km/mol    a.u.
----------------------------------------------------------------------------
  6:     35.76   0.000201    1.01  0.001751  ( 0.019406 -0.001183 -0.037059)
  7:     46.74   0.000547    2.76  0.003653  ( 0.027716  0.047621  0.024845)
  8:     53.19   0.000032    0.16  0.000188  ( 0.012405 -0.004285 -0.003968)
  9:     67.39   0.000411    2.08  0.001905  (-0.002579 -0.042551  0.009355)
 10:     73.77   0.000366    1.85  0.001547  (-0.017811  0.029224 -0.019373)
 11:     93.48   0.000332    1.68  0.001110  ( 0.002189 -0.027725  0.018342)
 12:    105.53   0.000222    1.12  0.000657  (-0.012949 -0.022114 -0.000259)
 13:    116.54   0.000205    1.03  0.000548  (-0.010871  0.005724  0.019933)
 14:    153.85   0.000461    2.33  0.000936  ( 0.002539  0.030470  0.001063)
 15:    171.42   0.000468    2.37  0.000853  (-0.024844 -0.012719 -0.008582)
 16:    187.27   0.000168    0.85  0.000280  (-0.003017  0.013860 -0.008884)
 17:    202.61   0.000351    1.78  0.000541  ( 0.018798  0.008518  0.010737)
 18:    210.23   0.000208    1.05  0.000309  (-0.014397 -0.006434 -0.007774)
 19:    231.44   0.000155    0.78  0.000209  ( 0.008436 -0.010740 -0.004780)
 20:    238.03   0.001192    6.02  0.001563  ( 0.013345  0.028725  0.023661)
 21:    266.88   0.000316    1.60  0.000370  (-0.014138  0.004195 -0.012341)
 22:    277.68   0.000223    1.13  0.000250  ( 0.011722 -0.005259  0.009240)
 23:    314.81   0.000932    4.71  0.000924  (-0.008856 -0.023375  0.017294)
 24:    323.52   0.000148    0.75  0.000142  (-0.000372  0.008123  0.008731)
 25:    351.11   0.000551    2.78  0.000490  ( 0.005791  0.020844  0.004655)
 26:    405.95   0.000730    3.69  0.000561  (-0.008884  0.017110 -0.013755)
 27:    417.99   0.000077    0.39  0.000057  (-0.005117 -0.005239  0.001943)
 28:    441.55   0.000491    2.48  0.000347  (-0.004423 -0.018057  0.001211)
 29:    457.79   0.001729    8.74  0.001179  (-0.025505  0.019574 -0.012037)
 30:    515.53   0.000581    2.94  0.000352  ( 0.007892  0.016938  0.001642)
 31:    550.56   0.003950   19.96  0.002239  ( 0.037954 -0.015107  0.023880)
 32:    576.54   0.002807   14.19  0.001519  (-0.018195  0.021636  0.026837)
 33:    593.97   0.000555    2.80  0.000292  ( 0.014328 -0.009287  0.000075)
 34:    615.16   0.004720   23.85  0.002394  ( 0.016598  0.045992 -0.001913)
 35:    629.76   0.000118    0.60  0.000058  (-0.003334  0.004881 -0.004854)
 36:    636.88   0.000157    0.79  0.000077  ( 0.000022  0.007436 -0.004660)
 37:    683.09   0.001016    5.14  0.000464  ( 0.019562  0.008893 -0.001614)
 38:    721.08   0.007101   35.89  0.003073  ( 0.043147 -0.034797  0.000801)
 39:    759.97   0.001706    8.62  0.000700  ( 0.019799  0.017510 -0.001366)
 40:    778.98   0.003096   15.64  0.001240  (-0.008399  0.034005  0.003642)
 41:    793.69   0.000090    0.46  0.000036  (-0.000737 -0.005209 -0.002803)
 42:    816.02   0.003459   17.48  0.001323  (-0.035676 -0.003922  0.005876)
 43:    871.00   0.000045    0.23  0.000016  ( 0.001904 -0.000879 -0.003413)
 44:    929.13   0.000062    0.31  0.000021  (-0.003610  0.002520 -0.001192)
 45:    937.40   0.001442    7.29  0.000480  ( 0.019109 -0.010426 -0.002465)
 46:    980.03   0.000101    0.51  0.000032  (-0.004549  0.001397  0.003102)
 47:   1000.63   0.002270   11.47  0.000708  ( 0.012164  0.023574  0.002028)
 48:   1005.06   0.000553    2.80  0.000172  (-0.008497  0.009682 -0.002414)
 49:   1012.90   0.005775   29.19  0.001779  ( 0.006517 -0.021006  0.035994)
 50:   1018.32   0.000077    0.39  0.000024  ( 0.004297 -0.001926 -0.001225)
 51:   1028.00   0.001735    8.77  0.000527  (-0.002673 -0.019801  0.011288)
 52:   1059.58   0.000578    2.92  0.000170  (-0.009539  0.008378  0.003004)
 53:   1061.09   0.002400   12.13  0.000706  (-0.011945 -0.022451 -0.007685)
 54:   1066.50   0.000547    2.77  0.000160  (-0.004585  0.007005 -0.009491)
 55:   1088.83   0.002819   14.25  0.000808  (-0.018925 -0.014523 -0.015455)
 56:   1092.05   0.000716    3.62  0.000204  (-0.013743  0.003338  0.002108)
 57:   1103.29   0.000621    3.14  0.000176  (-0.004232  0.005457 -0.011308)
 58:   1139.12   0.000376    1.90  0.000103  (-0.008567 -0.000497  0.005414)
 59:   1151.79   0.002193   11.08  0.000594  (-0.017541  0.014862  0.008098)
 60:   1181.09   0.001443    7.29  0.000381  ( 0.013662  0.013068 -0.004895)
 61:   1193.66   0.000010    0.05  0.000003  (-0.000278 -0.000107  0.001584)
 62:   1195.26   0.009118   46.08  0.002381  ( 0.013270  0.039952 -0.024664)
 63:   1209.51   0.016679   84.29  0.004303  (-0.062456  0.006755 -0.018894)
 64:   1219.30   0.000373    1.88  0.000095  ( 0.006529 -0.003475  0.006380)
 65:   1243.40   0.006349   32.08  0.001593  ( 0.035987  0.015634  0.007346)
 66:   1295.17   0.005050   25.52  0.001217  (-0.005731  0.033878  0.006014)
 67:   1304.06   0.005498   27.78  0.001316  ( 0.028141 -0.022142  0.005786)
 68:   1331.92   0.027153  137.22  0.006362  (-0.040067 -0.024218 -0.064576)
 69:   1338.67   0.000775    3.92  0.000181  (-0.009661 -0.007142  0.006021)
 70:   1371.29   0.000092    0.47  0.000021  (-0.003957  0.000282 -0.002296)
 71:   1387.60   0.002057   10.40  0.000463  (-0.017315  0.000082  0.012762)
 72:   1414.21   0.000317    1.60  0.000070  ( 0.005796  0.002366 -0.005543)
 73:   1425.77   0.002303   11.64  0.000504  ( 0.017704 -0.007914  0.011312)
 74:   1438.79   0.001931    9.76  0.000419  ( 0.010929  0.017294  0.000627)
 75:   1445.63   0.012547   63.41  0.002709  ( 0.005618  0.040300 -0.032447)
 76:   1453.51   0.015370   77.67  0.003300  (-0.037050  0.007555 -0.043245)
 77:   1462.03   0.013568   68.57  0.002896  ( 0.017174  0.045158  0.023703)
 78:   1494.45   0.002021   10.21  0.000422  ( 0.018654  0.005413  0.006682)
 79:   1503.86   0.000618    3.12  0.000128  (-0.003444  0.009114 -0.005779)
 80:   1505.82   0.002561   12.94  0.000531  ( 0.009098 -0.014211 -0.015686)
 81:   1513.22   0.003872   19.57  0.000799  ( 0.009450 -0.025083  0.008953)
 82:   1520.80   0.001102    5.57  0.000226  ( 0.004182 -0.007385 -0.012415)
 83:   1521.72   0.004413   22.30  0.000905  ( 0.026922  0.013398  0.000863)
 84:   1523.49   0.001096    5.54  0.000224  (-0.001063 -0.010865 -0.010259)
 85:   1530.47   0.004143   20.94  0.000845  (-0.014381 -0.007925 -0.023984)
 86:   1534.38   0.002371   11.98  0.000482  (-0.016736  0.013775  0.003525)
 87:   1537.53   0.001610    8.14  0.000327  (-0.007761  0.005536 -0.015359)
 88:   1547.99   0.002258   11.41  0.000455  (-0.014747 -0.015393  0.000842)
 89:   1562.09   0.007613   38.47  0.001521  (-0.008125  0.031199 -0.021944)
 90:   1644.88   0.000639    3.23  0.000121  ( 0.002112 -0.007634 -0.007653)
 91:   1666.07   0.000644    3.25  0.000121  ( 0.009558  0.005350 -0.000747)
 92:   1745.11   0.046465  234.82  0.008309  (-0.022429  0.050620  0.072412)
 93:   1757.89   0.056306  284.55  0.009996  ( 0.077250  0.033739 -0.053756)
 94:   3031.04   0.007908   39.96  0.000814  ( 0.015502 -0.022136  0.009158)
 95:   3041.58   0.007944   40.14  0.000815  (-0.010589 -0.014749  0.022030)
 96:   3053.57   0.000721    3.64  0.000074  ( 0.003901 -0.005347 -0.005464)
 97:   3058.35   0.005193   26.24  0.000530  (-0.000918  0.005408 -0.022357)
 98:   3071.24   0.000747    3.78  0.000076  (-0.007230  0.002134 -0.004368)
 99:   3080.11   0.007422   37.51  0.000752  (-0.004103 -0.019727 -0.018601)
100:   3095.90   0.004615   23.32  0.000465  (-0.001003 -0.021310 -0.003167)
101:   3098.10   0.001704    8.61  0.000172  ( 0.008431  0.006278 -0.007818)
102:   3115.68   0.004041   20.42  0.000405  ( 0.003694  0.016486  0.010921)
103:   3129.93   0.004331   21.89  0.000432  ( 0.020082  0.005305 -0.000642)
104:   3136.73   0.002778   14.04  0.000276  (-0.012751  0.010665 -0.000108)
105:   3140.94   0.001611    8.14  0.000160  ( 0.005278  0.011204 -0.002591)
106:   3172.98   0.000957    4.84  0.000094  ( 0.001247  0.005289  0.008039)
107:   3181.56   0.000192    0.97  0.000019  ( 0.003068  0.001963 -0.002352)
108:   3189.40   0.001121    5.66  0.000110  (-0.004100 -0.003736 -0.008881)
109:   3191.13   0.000248    1.25  0.000024  (-0.004465  0.002038 -0.000370)
110:   3198.87   0.003311   16.73  0.000323  (-0.009915 -0.011397  0.009739)
111:   3204.98   0.004338   21.92  0.000422  (-0.000375 -0.001460 -0.020496)
112:   3211.60   0.003379   17.07  0.000328  ( 0.013921  0.011596  0.000218)
113:   3217.40   0.000505    2.55  0.000049  ( 0.002033  0.001245 -0.006578)

* The epsilon (eps) is given for a Dirac delta lineshape.
** The dipole moment derivative (T) already includes vibrational overlap.

The first frequency considered to be a vibration is 6
The total number of vibrations considered is 108


--------------------------
THERMOCHEMISTRY AT 298.15K
--------------------------

Temperature         ... 298.15 K
Pressure            ... 1.00 atm
Total Mass          ... 248.33 AMU

Throughout the following assumptions are being made:
  (1) The electronic state is orbitally nondegenerate
  (2) There are no thermally accessible electronically excited states
  (3) Hindered rotations indicated by low frequency modes are not
      treated as such but are treated as vibrations and this may
      cause some error
  (4) All equations used are the standard statistical mechanics
      equations for an ideal gas
  (5) All vibrations are strictly harmonic

freq.      35.76  E(vib)   ...       0.54 
freq.      46.74  E(vib)   ...       0.53 
freq.      53.19  E(vib)   ...       0.52 
freq.      67.39  E(vib)   ...       0.50 
freq.      73.77  E(vib)   ...       0.49 
freq.      93.48  E(vib)   ...       0.47 
freq.     105.53  E(vib)   ...       0.45 
freq.     116.54  E(vib)   ...       0.44 
freq.     153.85  E(vib)   ...       0.40 
freq.     171.42  E(vib)   ...       0.38 
freq.     187.27  E(vib)   ...       0.36 
freq.     202.61  E(vib)   ...       0.35 
freq.     210.23  E(vib)   ...       0.34 
freq.     231.44  E(vib)   ...       0.32 
freq.     238.03  E(vib)   ...       0.32 
freq.     266.88  E(vib)   ...       0.29 
freq.     277.68  E(vib)   ...       0.28 
freq.     314.81  E(vib)   ...       0.25 
freq.     323.52  E(vib)   ...       0.25 
freq.     351.11  E(vib)   ...       0.23 
freq.     405.95  E(vib)   ...       0.19 
freq.     417.99  E(vib)   ...       0.18 
freq.     441.55  E(vib)   ...       0.17 
freq.     457.79  E(vib)   ...       0.16 
freq.     515.53  E(vib)   ...       0.13 
freq.     550.56  E(vib)   ...       0.12 
freq.     576.54  E(vib)   ...       0.11 
freq.     593.97  E(vib)   ...       0.10 
freq.     615.16  E(vib)   ...       0.10 
freq.     629.76  E(vib)   ...       0.09 
freq.     636.88  E(vib)   ...       0.09 
freq.     683.09  E(vib)   ...       0.08 
freq.     721.08  E(vib)   ...       0.07 
freq.     759.97  E(vib)   ...       0.06 
freq.     778.98  E(vib)   ...       0.05 
freq.     793.69  E(vib)   ...       0.05 
freq.     816.02  E(vib)   ...       0.05 
freq.     871.00  E(vib)   ...       0.04 
freq.     929.13  E(vib)   ...       0.03 
freq.     937.40  E(vib)   ...       0.03 
freq.     980.03  E(vib)   ...       0.02 
freq.    1000.63  E(vib)   ...       0.02 
freq.    1005.06  E(vib)   ...       0.02 
freq.    1012.90  E(vib)   ...       0.02 
freq.    1018.32  E(vib)   ...       0.02 
freq.    1028.00  E(vib)   ...       0.02 
freq.    1059.58  E(vib)   ...       0.02 
freq.    1061.09  E(vib)   ...       0.02 
freq.    1066.50  E(vib)   ...       0.02 
freq.    1088.83  E(vib)   ...       0.02 
freq.    1092.05  E(vib)   ...       0.02 
freq.    1103.29  E(vib)   ...       0.02 
freq.    1139.12  E(vib)   ...       0.01 
freq.    1151.79  E(vib)   ...       0.01 
freq.    1181.09  E(vib)   ...       0.01 
freq.    1193.66  E(vib)   ...       0.01 
freq.    1195.26  E(vib)   ...       0.01 
freq.    1209.51  E(vib)   ...       0.01 
freq.    1219.30  E(vib)   ...       0.01 
freq.    1243.40  E(vib)   ...       0.01 
freq.    1295.17  E(vib)   ...       0.01 
freq.    1304.06  E(vib)   ...       0.01 
freq.    1331.92  E(vib)   ...       0.01 
freq.    1338.67  E(vib)   ...       0.01 
freq.    1371.29  E(vib)   ...       0.01 
freq.    1387.60  E(vib)   ...       0.00 
freq.    1414.21  E(vib)   ...       0.00 
freq.    1425.77  E(vib)   ...       0.00 
freq.    1438.79  E(vib)   ...       0.00 
freq.    1445.63  E(vib)   ...       0.00 
freq.    1453.51  E(vib)   ...       0.00 
freq.    1462.03  E(vib)   ...       0.00 
freq.    1494.45  E(vib)   ...       0.00 
freq.    1503.86  E(vib)   ...       0.00 
freq.    1505.82  E(vib)   ...       0.00 
freq.    1513.22  E(vib)   ...       0.00 
freq.    1520.80  E(vib)   ...       0.00 
freq.    1521.72  E(vib)   ...       0.00 
freq.    1523.49  E(vib)   ...       0.00 
freq.    1530.47  E(vib)   ...       0.00 
freq.    1534.38  E(vib)   ...       0.00 
freq.    1537.53  E(vib)   ...       0.00 
freq.    1547.99  E(vib)   ...       0.00 
freq.    1562.09  E(vib)   ...       0.00 
freq.    1644.88  E(vib)   ...       0.00 
freq.    1666.07  E(vib)   ...       0.00 
freq.    1745.11  E(vib)   ...       0.00 
freq.    1757.89  E(vib)   ...       0.00 
freq.    3031.04  E(vib)   ...       0.00 
freq.    3041.58  E(vib)   ...       0.00 
freq.    3053.57  E(vib)   ...       0.00 
freq.    3058.35  E(vib)   ...       0.00 
freq.    3071.24  E(vib)   ...       0.00 
freq.    3080.11  E(vib)   ...       0.00 
freq.    3095.90  E(vib)   ...       0.00 
freq.    3098.10  E(vib)   ...       0.00 
freq.    3115.68  E(vib)   ...       0.00 
freq.    3129.93  E(vib)   ...       0.00 
freq.    3136.73  E(vib)   ...       0.00 
freq.    3140.94  E(vib)   ...       0.00 
freq.    3172.98  E(vib)   ...       0.00 
freq.    3181.56  E(vib)   ...       0.00 
freq.    3189.40  E(vib)   ...       0.00 
freq.    3191.13  E(vib)   ...       0.00 
freq.    3198.87  E(vib)   ...       0.00 
freq.    3204.98  E(vib)   ...       0.00 
freq.    3211.60  E(vib)   ...       0.00 
freq.    3217.40  E(vib)   ...       0.00 

------------
INNER ENERGY
------------

The inner energy is: U= E(el) + E(ZPE) + E(vib) + E(rot) + E(trans)
    E(el)   - is the total energy from the electronic structure calculation
              = E(kin-el) + E(nuc-el) + E(el-el) + E(nuc-nuc)
    E(ZPE)  - the the zero temperature vibrational energy from the frequency calculation
    E(vib)  - the the finite temperature correction to E(ZPE) due to population
              of excited vibrational states
    E(rot)  - is the rotational thermal energy
    E(trans)- is the translational thermal energy

Summary of contributions to the inner energy U:
Electronic energy                ...   -805.06740021 Eh
Zero point energy                ...      0.32601077 Eh     204.57 kcal/mol
Thermal vibrational correction   ...      0.01598861 Eh      10.03 kcal/mol
Thermal rotational correction    ...      0.00141627 Eh       0.89 kcal/mol
Thermal translational correction ...      0.00141627 Eh       0.89 kcal/mol
-----------------------------------------------------------------------
Total thermal energy                   -804.72256828 Eh


Summary of corrections to the electronic energy:
(perhaps to be used in another calculation)
Total thermal correction                  0.01882115 Eh      11.81 kcal/mol
Non-thermal (ZPE) correction              0.32601077 Eh     204.57 kcal/mol
-----------------------------------------------------------------------
Total correction                          0.34483192 Eh     216.38 kcal/mol


--------
ENTHALPY
--------

The enthalpy is H = U + kB*T
                kB is Boltzmann's constant
Total free energy                 ...   -804.72256828 Eh 
Thermal Enthalpy correction       ...      0.00094421 Eh       0.59 kcal/mol
-----------------------------------------------------------------------
Total Enthalpy                    ...   -804.72162407 Eh


Note: Only C1 symmetry has been detected, increase convergence thresholds 
      if your molecule has a higher symmetry. Symmetry factor of 1.0 is   
      used for the rotational entropy correction. 
 

Note: Rotational entropy computed according to Herzberg 
Infrared and Raman Spectra, Chapter V,1, Van Nostrand Reinhold, 1945 
Point Group:  C1, Symmetry Number:   1  
Rotational constants in cm-1:     0.019082     0.011110     0.009380 

Vibrational entropy computed according to the QRRHO of S. Grimme
Chem.Eur.J. 2012 18 9955


-------
ENTROPY
-------

The entropy contributions are T*S = T*(S(el)+S(vib)+S(rot)+S(trans))
     S(el)   - electronic entropy
     S(vib)  - vibrational entropy
     S(rot)  - rotational entropy
     S(trans)- translational entropy
The entropies will be listed as multiplied by the temperature to get
units of energy

Electronic entropy                ...      0.00000000 Eh      0.00 kcal/mol
Vibrational entropy               ...      0.02834834 Eh     17.79 kcal/mol
Rotational entropy                ...      0.01570844 Eh      9.86 kcal/mol
Translational entropy             ...      0.02015944 Eh     12.65 kcal/mol
-----------------------------------------------------------------------
Final entropy term                ...      0.06421622 Eh     40.30 kcal/mol

In case the symmetry of your molecule has not been determined correctly
or in case you have a reason to use a different symmetry number we print 
out the resulting rotational entropy values for sn=1,12 :
 --------------------------------------------------------
|  sn= 1 | S(rot)=       0.01570844 Eh      9.86 kcal/mol|
|  sn= 2 | S(rot)=       0.01505398 Eh      9.45 kcal/mol|
|  sn= 3 | S(rot)=       0.01467115 Eh      9.21 kcal/mol|
|  sn= 4 | S(rot)=       0.01439953 Eh      9.04 kcal/mol|
|  sn= 5 | S(rot)=       0.01418884 Eh      8.90 kcal/mol|
|  sn= 6 | S(rot)=       0.01401669 Eh      8.80 kcal/mol|
|  sn= 7 | S(rot)=       0.01387115 Eh      8.70 kcal/mol|
|  sn= 8 | S(rot)=       0.01374507 Eh      8.63 kcal/mol|
|  sn= 9 | S(rot)=       0.01363386 Eh      8.56 kcal/mol|
|  sn=10 | S(rot)=       0.01353438 Eh      8.49 kcal/mol|
|  sn=11 | S(rot)=       0.01344439 Eh      8.44 kcal/mol|
|  sn=12 | S(rot)=       0.01336224 Eh      8.38 kcal/mol|
 --------------------------------------------------------


-------------------
GIBBS FREE ENERGY
-------------------

The Gibbs free energy is G = H - T*S

Total enthalpy                    ...   -804.72162407 Eh 
Total entropy correction          ...     -0.06421622 Eh    -40.30 kcal/mol
-----------------------------------------------------------------------
Final Gibbs free energy         ...   -804.78584029 Eh

For completeness - the Gibbs free energy minus the electronic energy
G-E(el)                           ...      0.28155991 Eh    176.68 kcal/mol


Timings for individual modules:

Sum of individual times         ...     2619.827 sec (=  43.664 min)
GTO integral calculation        ...       27.405 sec (=   0.457 min)   1.0 %
SCF iterations                  ...     1289.571 sec (=  21.493 min)  49.2 %
SCF Gradient evaluation         ...      403.706 sec (=   6.728 min)  15.4 %
Geometry relaxation             ...        1.712 sec (=   0.029 min)   0.1 %
Analytical frequency calculation...      897.434 sec (=  14.957 min)  34.3 %
                             ****ORCA TERMINATED NORMALLY****
TOTAL RUN TIME: 0 days 0 hours 43 minutes 47 seconds 303 msec
