
                                 *****************
                                 * O   R   C   A *
                                 *****************

                                            #,                                       
                                            ###                                      
                                            ####                                     
                                            #####                                    
                                            ######                                   
                                           ########,                                 
                                     ,,################,,,,,                         
                               ,,#################################,,                 
                          ,,##########################################,,             
                       ,#########################################, ''#####,          
                    ,#############################################,,   '####,        
                  ,##################################################,,,,####,       
                ,###########''''           ''''###############################       
              ,#####''   ,,,,##########,,,,          '''####'''          '####       
            ,##' ,,,,###########################,,,                        '##       
           ' ,,###''''                  '''############,,,                           
         ,,##''                                '''############,,,,        ,,,,,,###''
      ,#''                                            '''#######################'''  
     '                                                          ''''####''''         
             ,#######,   #######,   ,#######,      ##                                
            ,#'     '#,  ##    ##  ,#'     '#,    #''#        ######   ,####,        
            ##       ##  ##   ,#'  ##            #'  '#       #        #'  '#        
            ##       ##  #######   ##           ,######,      #####,   #    #        
            '#,     ,#'  ##    ##  '#,     ,#' ,#      #,         ##   #,  ,#        
             '#######'   ##     ##  '#######'  #'      '#     #####' # '####'        



                  #######################################################
                  #                        -***-                        #
                  #          Department of theory and spectroscopy      #
                  #    Directorship and core code : Frank Neese         #
                  #        Max Planck Institute fuer Kohlenforschung    #
                  #                Kaiser Wilhelm Platz 1               #
                  #                 D-45470 Muelheim/Ruhr               #
                  #                      Germany                        #
                  #                                                     #
                  #                  All rights reserved                #
                  #                        -***-                        #
                  #######################################################


                         Program Version 5.0.4 -  RELEASE  -


 With contributions from (in alphabetic order):
   Daniel Aravena         : Magnetic Suceptibility
   Michael Atanasov       : Ab Initio Ligand Field Theory (pilot matlab implementation)
   Alexander A. Auer      : GIAO ZORA, VPT2 properties, NMR spectrum
   Ute Becker             : Parallelization
   Giovanni Bistoni       : ED, misc. LED, open-shell LED, HFLD
   Martin Brehm           : Molecular dynamics
   Dmytro Bykov           : SCF Hessian
   Vijay G. Chilkuri      : MRCI spin determinant printing, contributions to CSF-ICE
   Dipayan Datta          : RHF DLPNO-CCSD density
   Achintya Kumar Dutta   : EOM-CC, STEOM-CC
   Dmitry Ganyushin       : Spin-Orbit,Spin-Spin,Magnetic field MRCI
   Miquel Garcia          : C-PCM and meta-GGA Hessian, CC/C-PCM, Gaussian charge scheme
   Yang Guo               : DLPNO-NEVPT2, F12-NEVPT2, CIM, IAO-localization
   Andreas Hansen         : Spin unrestricted coupled pair/coupled cluster methods
   Benjamin Helmich-Paris : MC-RPA, TRAH-SCF, COSX integrals
   Lee Huntington         : MR-EOM, pCC
   Robert Izsak           : Overlap fitted RIJCOSX, COSX-SCS-MP3, EOM
   Marcus Kettner         : VPT2
   Christian Kollmar      : KDIIS, OOCD, Brueckner-CCSD(T), CCSD density, CASPT2, CASPT2-K
   Simone Kossmann        : Meta GGA functionals, TD-DFT gradient, OOMP2, MP2 Hessian
   Martin Krupicka        : Initial AUTO-CI
   Lucas Lang             : DCDCAS
   Marvin Lechner         : AUTO-CI (C++ implementation), FIC-MRCC
   Dagmar Lenk            : GEPOL surface, SMD
   Dimitrios Liakos       : Extrapolation schemes; Compound Job, initial MDCI parallelization
   Dimitrios Manganas     : Further ROCIS development; embedding schemes
   Dimitrios Pantazis     : SARC Basis sets
   Anastasios Papadopoulos: AUTO-CI, single reference methods and gradients
   Taras Petrenko         : DFT Hessian,TD-DFT gradient, ASA, ECA, R-Raman, ABS, FL, XAS/XES, NRVS
   Peter Pinski           : DLPNO-MP2, DLPNO-MP2 Gradient
   Christoph Reimann      : Effective Core Potentials
   Marius Retegan         : Local ZFS, SOC
   Christoph Riplinger    : Optimizer, TS searches, QM/MM, DLPNO-CCSD(T), (RO)-DLPNO pert. Triples
   Tobias Risthaus        : Range-separated hybrids, TD-DFT gradient, RPA, STAB
   Michael Roemelt        : Original ROCIS implementation
   Masaaki Saitow         : Open-shell DLPNO-CCSD energy and density
   Barbara Sandhoefer     : DKH picture change effects
   Avijit Sen             : IP-ROCIS
   Kantharuban Sivalingam : CASSCF convergence, NEVPT2, FIC-MRCI
   Bernardo de Souza      : ESD, SOC TD-DFT
   Georgi Stoychev        : AutoAux, RI-MP2 NMR, DLPNO-MP2 response
   Willem Van den Heuvel  : Paramagnetic NMR
   Boris Wezisla          : Elementary symmetry handling
   Frank Wennmohs         : Technical directorship


 We gratefully acknowledge several colleagues who have allowed us to
 interface, adapt or use parts of their codes:
   Stefan Grimme, W. Hujo, H. Kruse, P. Pracht,  : VdW corrections, initial TS optimization,
                  C. Bannwarth, S. Ehlert          DFT functionals, gCP, sTDA/sTD-DF
   Ed Valeev, F. Pavosevic, A. Kumar             : LibInt (2-el integral package), F12 methods
   Garnet Chan, S. Sharma, J. Yang, R. Olivares  : DMRG
   Ulf Ekstrom                                   : XCFun DFT Library
   Mihaly Kallay                                 : mrcc  (arbitrary order and MRCC methods)
   Jiri Pittner, Ondrej Demel                    : Mk-CCSD
   Frank Weinhold                                : gennbo (NPA and NBO analysis)
   Christopher J. Cramer and Donald G. Truhlar   : smd solvation model
   Lars Goerigk                                  : TD-DFT with DH, B97 family of functionals
   V. Asgeirsson, H. Jonsson                     : NEB implementation
   FAccTs GmbH                                   : IRC, NEB, NEB-TS, DLPNO-Multilevel, CI-OPT
                                                   MM, QMMM, 2- and 3-layer-ONIOM, Crystal-QMMM,
                                                   LR-CPCM, SF, NACMEs, symmetry and pop. for TD-DFT,
                                                   nearIR, NL-DFT gradient (VV10), updates on ESD,
                                                   ML-optimized integration grids
   S Lehtola, MJT Oliveira, MAL Marques          : LibXC Library
   Liviu Ungur et al                             : ANISO software


 Your calculation uses the libint2 library for the computation of 2-el integrals
 For citations please refer to: http://libint.valeyev.net

 Your ORCA version has been built with support for libXC version: 5.1.0
 For citations please refer to: https://tddft.org/programs/libxc/

 This ORCA versions uses:
   CBLAS   interface :  Fast vector & matrix operations
   LAPACKE interface :  Fast linear algebra routines
   SCALAPACK package :  Parallel linear algebra routines
   Shared memory     :  Shared parallel matrices
   BLAS/LAPACK       :  OpenBLAS 0.3.15  USE64BITINT DYNAMIC_ARCH NO_AFFINITY SkylakeX SINGLE_THREADED
        Core in use  :  SkylakeX
   Copyright (c) 2011-2014, The OpenBLAS Project




***************************************
The coordinates will be read from file: /users/fjb15167/WWenergy/structures/Nkeqm.xyz
***************************************


Your calculation utilizes the atom-pairwise dispersion correction
based on tight binding partial charges (D4)
Cite in your paper:
E.Caldeweyher, C.Bannwarth, S.Grimme, J.Chem.Phys., (2017), 147, 034112.
E.Caldeweyher, S.Ehlert, A.Hansen, H.Neugebauer, S.Grimme, J.Chem.Phys., (2018), in progress.
   

================================================================================

----- Orbital basis set information -----
Your calculation utilizes the basis: 6-31+G(d)
   H-He, Li-Ne : W. J. Hehre, R. Ditchfield and J.A. Pople, J. Chem. Phys. 56, 2257 (1972).
                 Note: He and Ne are unpublished basis sets taken from the Gaussian program.
                 Note: Li and B from J. D. Dill and J. A. Pople, J. Chem. Phys. 62, 2921 (1975).
   Na - Ar     : M. M. Francl, W. J. Pietro, W. J. Hehre, J. S. Binkley, M. S. Gordon, 
                 D. J. DeFrees and J. A. Pople, J. Chem. Phys. 77, 3654 (1982).
   K - Zn      : V. A. Rassolov, J. A. Pople, M. A. Ratner, and T. L. Windus, J. Chem. Phys. 109, 1223 (1998).
   Additional Pol./Diff. from the 6-311G equivalent.

----- AuxJ basis set information -----
Your calculation utilizes the AutoAux generation procedure.
  G. L. Stoychev, A. A. Auer, F. Neese, J. Chem. Theory Comput. 13, 554 (2017)

----- AuxC basis set information -----
Your calculation utilizes the AutoAux generation procedure.
  G. L. Stoychev, A. A. Auer, F. Neese, J. Chem. Theory Comput. 13, 554 (2017)

----- AuxJK basis set information -----
Your calculation utilizes the AutoAux generation procedure.
  G. L. Stoychev, A. A. Auer, F. Neese, J. Chem. Theory Comput. 13, 554 (2017)

================================================================================
                                        WARNINGS
                       Please study these warnings very carefully!
================================================================================


WARNING: Geometry Optimization
  ===> : Switching off AutoStart
         For restart on a previous wavefunction, please use MOREAD

INFO   : the flag for use of the SHARK integral package has been found!

================================================================================
                                       INPUT FILE
================================================================================
NAME = Nkeqm_octanol.inp
|  1> ! OPT FREQ B3LYP 6-31+G(d) D4 AUTOAUX
|  2> ! CPCM
|  3> 
|  4> %cpcm
|  5> epsilon 9.8629 
|  6> refrac  1.4295 
|  7> end
|  8> 
|  9> %PAL NPROCS 4 END
| 10> 
| 11> %maxcore 3375
| 12> 
| 13> *xyzfile 1 1 /users/fjb15167/WWenergy/structures/Nkeqm.xyz
| 14> 
| 15>                          ****END OF INPUT****
================================================================================

                       *****************************
                       * Geometry Optimization Run *
                       *****************************

Geometry optimization settings:
Update method            Update   .... BFGS
Choice of coordinates    CoordSys .... Z-matrix Internals
Initial Hessian          InHess   .... Almoef's Model

Convergence Tolerances:
Energy Change            TolE     ....  5.0000e-06 Eh
Max. Gradient            TolMAXG  ....  3.0000e-04 Eh/bohr
RMS Gradient             TolRMSG  ....  1.0000e-04 Eh/bohr
Max. Displacement        TolMAXD  ....  4.0000e-03 bohr
RMS Displacement         TolRMSD  ....  2.0000e-03 bohr
Strict Convergence                ....  False
------------------------------------------------------------------------------
                        ORCA OPTIMIZATION COORDINATE SETUP
------------------------------------------------------------------------------

The optimization will be done in new redundant internal coordinates
Making redundant internal coordinates   ...  (new redundants) done
Evaluating the initial hessian          ...  (Almloef) done
Evaluating the coordinates              ...  done
Calculating the B-matrix                .... done
Calculating the G-matrix                .... done
Diagonalizing the G-matrix              .... done
Small eigenvalue found = 3.168e-03
Small eigenvalue found = 6.582e-03
Small eigenvalue found = 1.091e-02
Small eigenvalue found = 1.397e-02
Small eigenvalue found = 1.783e-02
Small eigenvalue found = 2.259e-02
Small eigenvalue found = 2.887e-02
The first mode is                       ....   86
The number of degrees of freedom        ....  114

    -----------------------------------------------------------------
                    Redundant Internal Coordinates


    -----------------------------------------------------------------
         Definition                    Initial Value    Approx d2E/dq
    -----------------------------------------------------------------
      1. B(H   1,C   0)                  1.0931         0.356060   
      2. B(H   2,C   0)                  1.0938         0.355139   
      3. B(H   3,C   0)                  1.0890         0.361378   
      4. B(C   4,C   0)                  1.5242         0.381552   
      5. B(O   5,C   4)                  1.2186         1.050158   
      6. B(N   6,C   4)                  1.3904         0.558756   
      7. B(C   7,N   6)                  1.4540         0.442306   
      8. B(H   8,C   7)                  1.0951         0.353365   
      9. B(H   9,C   7)                  1.0925         0.356860   
     10. B(C  10,N   6)                  1.4586         0.434988   
     11. B(H  11,C  10)                  1.0934         0.355579   
     12. B(H  12,C  10)                  1.0937         0.355292   
     13. B(C  13,C  10)                  1.5320         0.370782   
     14. B(H  14,C  13)                  1.0895         0.360731   
     15. B(H  15,C  13)                  1.0940         0.354846   
     16. B(C  16,C   7)                  1.5412         0.358491   
     17. B(N  17,C  16)                  1.3562         0.633505   
     18. B(O  18,C  16)                  1.2409         0.967764   
     19. B(C  19,N  17)                  1.4605         0.431972   
     20. B(H  20,C  19)                  1.0931         0.356074   
     21. B(H  21,C  19)                  1.0944         0.354333   
     22. B(H  22,C  19)                  1.0881         0.362608   
     23. B(C  23,N  17)                  1.4562         0.438740   
     24. B(H  24,C  23)                  1.0934         0.355629   
     25. B(H  25,C  23)                  1.0890         0.361444   
     26. B(H  26,C  23)                  1.0967         0.351373   
     27. B(N  27,C  13)                  1.5166         0.351478   
     28. B(C  28,N  27)                  1.4986         0.375512   
     29. B(H  29,C  28)                  1.0913         0.358388   
     30. B(H  30,C  28)                  1.0893         0.361009   
     31. B(C  31,N  27)                  1.5001         0.373416   
     32. B(H  32,C  31)                  1.0905         0.359379   
     33. B(H  33,C  31)                  1.0899         0.360230   
     34. B(C  34,N  27)                  1.5060         0.365424   
     35. B(H  35,C  34)                  1.0877         0.363122   
     36. B(H  36,C  34)                  1.0864         0.364945   
     37. B(H  37,C  31)                  1.0909         0.358854   
     38. B(H  38,C  28)                  1.0905         0.359389   
     39. B(H  39,C  34)                  1.0910         0.358789   
     40. A(H   2,C   0,C   4)          110.4474         0.324706   
     41. A(H   1,C   0,C   4)          112.1494         0.324844   
     42. A(H   3,C   0,C   4)          107.2012         0.325637   
     43. A(H   2,C   0,H   3)          108.8395         0.290368   
     44. A(H   1,C   0,H   2)          108.7958         0.289694   
     45. A(H   1,C   0,H   3)          109.3452         0.290486   
     46. A(C   0,C   4,N   6)          116.9933         0.388481   
     47. A(O   5,C   4,N   6)          120.7094         0.462510   
     48. A(C   0,C   4,O   5)          122.2581         0.434457   
     49. A(C   4,N   6,C   7)          120.9047         0.396118   
     50. A(C   4,N   6,C  10)          112.2064         0.394960   
     51. A(C   7,N   6,C  10)          116.1854         0.379196   
     52. A(N   6,C   7,H   9)          109.3951         0.330981   
     53. A(H   9,C   7,C  16)          111.3365         0.321657   
     54. A(N   6,C   7,C  16)          109.9706         0.369071   
     55. A(H   8,C   7,H   9)          106.5922         0.289568   
     56. A(H   8,C   7,C  16)          111.1800         0.321140   
     57. A(N   6,C   7,H   8)          108.2589         0.330442   
     58. A(H  12,C  10,C  13)          112.8406         0.323206   
     59. A(H  11,C  10,C  13)          110.3487         0.323249   
     60. A(N   6,C  10,C  13)          108.8119         0.370153   
     61. A(H  11,C  10,H  12)          107.7476         0.289652   
     62. A(N   6,C  10,H  12)          108.8556         0.329828   
     63. A(N   6,C  10,H  11)          108.1210         0.329872   
     64. A(H  14,C  13,H  15)          109.2090         0.290249   
     65. A(H  15,C  13,N  27)          105.9049         0.318419   
     66. A(C  10,C  13,H  15)          111.1454         0.323139   
     67. A(C  10,C  13,H  14)          110.1346         0.324012   
     68. A(H  14,C  13,N  27)          105.9184         0.319275   
     69. A(C  10,C  13,N  27)          114.2620         0.356909   
     70. A(N  17,C  16,O  18)          123.9583         0.466235   
     71. A(C   7,C  16,O  18)          118.4172         0.423375   
     72. A(C   7,C  16,N  17)          117.6139         0.392797   
     73. A(C  16,N  17,C  19)          119.0302         0.403285   
     74. A(C  19,N  17,C  23)          115.6082         0.378209   
     75. A(C  16,N  17,C  23)          124.4968         0.404392   
     76. A(H  20,C  19,H  21)          109.0724         0.289592   
     77. A(H  21,C  19,H  22)          109.6125         0.290419   
     78. A(H  20,C  19,H  22)          110.0505         0.290643   
     79. A(N  17,C  19,H  22)          108.4898         0.330561   
     80. A(N  17,C  19,H  21)          110.1953         0.329302   
     81. A(N  17,C  19,H  20)          109.4106         0.329569   
     82. A(H  25,C  23,H  26)          109.0063         0.289891   
     83. A(H  24,C  23,H  26)          108.4086         0.289155   
     84. A(N  17,C  23,H  26)          111.0795         0.329692   
     85. A(H  24,C  23,H  25)          107.9347         0.290439   
     86. A(N  17,C  23,H  25)          111.5247         0.331236   
     87. A(N  17,C  23,H  24)          108.7855         0.330349   
     88. A(C  31,N  27,C  34)          108.3097         0.357485   
     89. A(C  28,N  27,C  34)          109.7825         0.357826   
     90. A(C  13,N  27,C  34)          111.3288         0.353831   
     91. A(C  28,N  27,C  31)          108.9374         0.359145   
     92. A(C  13,N  27,C  31)          108.0135         0.355131   
     93. A(C  13,N  27,C  28)          110.3971         0.355468   
     94. A(H  29,C  28,H  30)          110.3846         0.290737   
     95. A(N  27,C  28,H  30)          109.2118         0.322789   
     96. A(N  27,C  28,H  29)          108.7356         0.322404   
     97. A(H  30,C  28,H  38)          109.7714         0.290864   
     98. A(H  29,C  28,H  38)          110.0583         0.290532   
     99. A(N  27,C  28,H  38)          108.6433         0.322551   
    100. A(H  32,C  31,H  33)          110.2217         0.290764   
    101. A(N  27,C  31,H  33)          108.9473         0.322379   
    102. A(N  27,C  31,H  32)          108.4949         0.322254   
    103. A(H  33,C  31,H  37)          110.1945         0.290698   
    104. A(H  32,C  31,H  37)          110.1231         0.290590   
    105. A(N  27,C  31,H  37)          108.8163         0.322177   
    106. A(H  35,C  34,H  36)          108.8919         0.291834   
    107. A(N  27,C  34,H  36)          109.7481         0.321924   
    108. A(N  27,C  34,H  35)          108.5914         0.321660   
    109. A(H  36,C  34,H  39)          110.6613         0.291284   
    110. A(H  35,C  34,H  39)          111.3424         0.291055   
    111. A(N  27,C  34,H  39)          107.5681         0.321029   
    112. D(O   5,C   4,C   0,H   1)   -126.0036         0.010858   
    113. D(O   5,C   4,C   0,H   2)    112.4608         0.010858   
    114. D(N   6,C   4,C   0,H   1)     51.7344         0.010858   
    115. D(N   6,C   4,C   0,H   2)    -69.8013         0.010858   
    116. D(O   5,C   4,C   0,H   3)     -5.9761         0.010858   
    117. D(N   6,C   4,C   0,H   3)    171.7619         0.010858   
    118. D(C   7,N   6,C   4,C   0)     23.7218         0.024928   
    119. D(C  10,N   6,C   4,C   0)    166.8384         0.024928   
    120. D(C  10,N   6,C   4,O   5)    -15.3865         0.024928   
    121. D(C   7,N   6,C   4,O   5)   -158.5031         0.024928   
    122. D(H   9,C   7,N   6,C  10)    167.0321         0.016683   
    123. D(H   9,C   7,N   6,C   4)    -51.2272         0.016683   
    124. D(H   8,C   7,N   6,C  10)     51.2506         0.016683   
    125. D(C  16,C   7,N   6,C   4)     71.3441         0.016683   
    126. D(H   8,C   7,N   6,C   4)   -167.0087         0.016683   
    127. D(C  16,C   7,N   6,C  10)    -70.3966         0.016683   
    128. D(C  13,C  10,N   6,C   4)     77.5487         0.016133   
    129. D(C  13,C  10,N   6,C   7)   -137.4719         0.016133   
    130. D(H  12,C  10,N   6,C   7)     99.1839         0.016133   
    131. D(H  12,C  10,N   6,C   4)    -45.7955         0.016133   
    132. D(H  11,C  10,N   6,C   7)    -17.6036         0.016133   
    133. D(H  11,C  10,N   6,C   4)   -162.5829         0.016133   
    134. D(H  15,C  13,C  10,H  12)   -147.7860         0.010987   
    135. D(N  27,C  13,C  10,H  11)     92.5870         0.010987   
    136. D(H  15,C  13,C  10,H  11)    -27.1896         0.010987   
    137. D(H  15,C  13,C  10,N   6)     91.2863         0.010987   
    138. D(H  14,C  13,C  10,H  12)     91.0469         0.010987   
    139. D(N  27,C  13,C  10,N   6)   -148.9371         0.010987   
    140. D(H  14,C  13,C  10,H  11)   -148.3566         0.010987   
    141. D(N  27,C  13,C  10,H  12)    -28.0094         0.010987   
    142. D(H  14,C  13,C  10,N   6)    -29.8808         0.010987   
    143. D(O  18,C  16,C   7,H   9)    120.6027         0.009671   
    144. D(O  18,C  16,C   7,H   8)   -120.7032         0.009671   
    145. D(O  18,C  16,C   7,N   6)     -0.8149         0.009671   
    146. D(N  17,C  16,C   7,H   9)    -60.5312         0.009671   
    147. D(N  17,C  16,C   7,H   8)     58.1629         0.009671   
    148. D(N  17,C  16,C   7,N   6)    178.0511         0.009671   
    149. D(C  23,N  17,C  16,O  18)   -173.2380         0.032610   
    150. D(C  23,N  17,C  16,C   7)      7.9644         0.032610   
    151. D(C  19,N  17,C  16,O  18)     -4.3710         0.032610   
    152. D(C  19,N  17,C  16,C   7)    176.8314         0.032610   
    153. D(H  22,C  19,N  17,C  16)     10.2402         0.015909   
    154. D(H  21,C  19,N  17,C  23)     60.0686         0.015909   
    155. D(H  21,C  19,N  17,C  16)   -109.7672         0.015909   
    156. D(H  20,C  19,N  17,C  23)    -59.8495         0.015909   
    157. D(H  22,C  19,N  17,C  23)   -179.9239         0.015909   
    158. D(H  20,C  19,N  17,C  16)    130.3146         0.015909   
    159. D(H  26,C  23,N  17,C  19)    -70.3159         0.016413   
    160. D(H  26,C  23,N  17,C  16)     98.8936         0.016413   
    161. D(H  25,C  23,N  17,C  19)    167.8661         0.016413   
    162. D(H  25,C  23,N  17,C  16)    -22.9244         0.016413   
    163. D(H  24,C  23,N  17,C  19)     48.9322         0.016413   
    164. D(H  24,C  23,N  17,C  16)   -141.8583         0.016413   
    165. D(C  34,N  27,C  13,H  15)   -169.9714         0.011383   
    166. D(C  34,N  27,C  13,H  14)    -54.0573         0.011383   
    167. D(C  34,N  27,C  13,C  10)     67.3540         0.011383   
    168. D(C  31,N  27,C  13,H  15)    -51.1811         0.011383   
    169. D(C  31,N  27,C  13,H  14)     64.7329         0.011383   
    170. D(C  31,N  27,C  13,C  10)   -173.8557         0.011383   
    171. D(C  28,N  27,C  13,H  15)     67.8317         0.011383   
    172. D(C  28,N  27,C  13,H  14)   -176.2542         0.011383   
    173. D(C  28,N  27,C  13,C  10)    -54.8429         0.011383   
    174. D(H  29,C  28,N  27,C  13)    -55.5913         0.012922   
    175. D(H  38,C  28,N  27,C  31)    -56.9206         0.012922   
    176. D(H  38,C  28,N  27,C  13)   -175.3703         0.012922   
    177. D(H  30,C  28,N  27,C  34)    -58.1829         0.012922   
    178. D(H  30,C  28,N  27,C  31)   -176.6314         0.012922   
    179. D(H  30,C  28,N  27,C  13)     64.9190         0.012922   
    180. D(H  29,C  28,N  27,C  34)   -178.6932         0.012922   
    181. D(H  38,C  28,N  27,C  34)     61.5279         0.012922   
    182. D(H  29,C  28,N  27,C  31)     62.8583         0.012922   
    183. D(H  37,C  31,N  27,C  34)    -57.6511         0.012783   
    184. D(H  37,C  31,N  27,C  13)   -178.3460         0.012783   
    185. D(H  33,C  31,N  27,C  34)   -177.8212         0.012783   
    186. D(H  33,C  31,N  27,C  28)    -58.4519         0.012783   
    187. D(H  33,C  31,N  27,C  13)     61.4840         0.012783   
    188. D(H  32,C  31,N  27,C  34)     62.1662         0.012783   
    189. D(H  37,C  31,N  27,C  28)     61.7181         0.012783   
    190. D(H  32,C  31,N  27,C  28)   -178.4645         0.012783   
    191. D(H  32,C  31,N  27,C  13)    -58.5287         0.012783   
    192. D(H  39,C  34,N  27,C  31)     58.8607         0.012260   
    193. D(H  39,C  34,N  27,C  28)    -59.9751         0.012260   
    194. D(H  39,C  34,N  27,C  13)    177.4735         0.012260   
    195. D(H  36,C  34,N  27,C  31)    179.3179         0.012260   
    196. D(H  36,C  34,N  27,C  28)     60.4821         0.012260   
    197. D(H  36,C  34,N  27,C  13)    -62.0693         0.012260   
    198. D(H  35,C  34,N  27,C  31)    -61.7539         0.012260   
    199. D(H  35,C  34,N  27,C  28)    179.4103         0.012260   
    200. D(H  35,C  34,N  27,C  13)     56.8589         0.012260   
    -----------------------------------------------------------------

Number of atoms                         .... 40
Number of degrees of freedom            .... 200

         *************************************************************
         *                GEOMETRY OPTIMIZATION CYCLE   1            *
         *************************************************************
---------------------------------
CARTESIAN COORDINATES (ANGSTROEM)
---------------------------------
  C      1.039000    2.743000    0.144000
  H      1.237000    3.067000   -0.881000
  H      1.988000    2.480000    0.620000
  H      0.582000    3.561000    0.699000
  C      0.072000    1.566000    0.198000
  O     -0.945000    1.590000    0.869000
  N      0.373000    0.465000   -0.596000
  C      1.738000    0.203000   -1.023000
  H      1.711000   -0.556000   -1.812000
  H      2.157000    1.106000   -1.473000
  C     -0.427000   -0.703000   -0.245000
  H      0.058000   -1.587000   -0.668000
  H     -0.432000   -0.814000    0.843000
  C     -1.832000   -0.534000   -0.832000
  H     -2.090000    0.523000   -0.889000
  H     -1.898000   -0.975000   -1.831000
  C      2.583000   -0.270000    0.176000
  N      3.878000   -0.598000   -0.058000
  O      2.038000   -0.349000    1.288000
  C      4.726000   -0.983000    1.067000
  H      5.242000   -1.917000    0.830000
  H      5.469000   -0.204000    1.264000
  H      4.096000   -1.117000    1.944000
  C      4.569000   -0.379000   -1.321000
  H      5.231000   -1.228000   -1.512000
  H      3.869000   -0.306000   -2.152000
  H      5.177000    0.533000   -1.285000
  N     -2.931000   -1.187000   -0.016000
  C     -2.627000   -2.638000    0.203000
  H     -2.477000   -3.115000   -0.767000
  H     -1.729000   -2.728000    0.813000
  C     -4.213000   -1.069000   -0.786000
  H     -4.413000   -0.012000   -0.965000
  H     -4.107000   -1.598000   -1.733000
  C     -3.111000   -0.498000    1.311000
  H     -3.320000    0.554000    1.130000
  H     -2.198000   -0.580000    1.894000
  H     -5.019000   -1.509000   -0.197000
  H     -3.471000   -3.097000    0.719000
  H     -3.941000   -0.985000    1.825000

----------------------------
CARTESIAN COORDINATES (A.U.)
----------------------------
  NO LB      ZA    FRAG     MASS         X           Y           Z
   0 C     6.0000    0    12.011    1.963425    5.183519    0.272121
   1 H     1.0000    0     1.008    2.337591    5.795790   -1.664849
   2 H     1.0000    0     1.008    3.756776    4.686521    1.171630
   3 H     1.0000    0     1.008    1.099821    6.729315    1.320919
   4 C     6.0000    0    12.011    0.136060    2.959311    0.374166
   5 O     8.0000    0    15.999   -1.785791    3.004665    1.642172
   6 N     7.0000    0    14.007    0.704868    0.878723   -1.126277
   7 C     6.0000    0    12.011    3.284344    0.383614   -1.933190
   8 H     1.0000    0     1.008    3.233321   -1.050688   -3.424184
   9 H     1.0000    0     1.008    4.076139    2.090037   -2.783567
  10 C     6.0000    0    12.011   -0.806913   -1.328477   -0.462983
  11 H     1.0000    0     1.008    0.109604   -2.998995   -1.262337
  12 H     1.0000    0     1.008   -0.816362   -1.538237    1.593039
  13 C     6.0000    0    12.011   -3.461978   -1.009114   -1.572252
  14 H     1.0000    0     1.008   -3.949528    0.988327   -1.679967
  15 H     1.0000    0     1.008   -3.586700   -1.842483   -3.460089
  16 C     6.0000    0    12.011    4.881163   -0.510226    0.332592
  17 N     7.0000    0    14.007    7.328358   -1.130056   -0.109604
  18 O     8.0000    0    15.999    3.851262   -0.659514    2.433967
  19 C     6.0000    0    12.011    8.930846   -1.857601    2.016338
  20 H     1.0000    0     1.008    9.905944   -3.622605    1.568473
  21 H     1.0000    0     1.008   10.334912   -0.385504    2.388614
  22 H     1.0000    0     1.008    7.740318   -2.110824    3.673628
  23 C     6.0000    0    12.011    8.634159   -0.716206   -2.496328
  24 H     1.0000    0     1.008    9.885157   -2.320584   -2.857266
  25 H     1.0000    0     1.008    7.311350   -0.578256   -4.066691
  26 H     1.0000    0     1.008    9.783112    1.007224   -2.428298
  27 N     7.0000    0    14.007   -5.538787   -2.243105   -0.030236
  28 C     6.0000    0    12.011   -4.964311   -4.985098    0.383614
  29 H     1.0000    0     1.008   -4.680852   -5.886497   -1.449420
  30 H     1.0000    0     1.008   -3.267336   -5.155173    1.536347
  31 C     6.0000    0    12.011   -7.961416   -2.020117   -1.485325
  32 H     1.0000    0     1.008   -8.339361   -0.022677   -1.823586
  33 H     1.0000    0     1.008   -7.761105   -3.019782   -3.274895
  34 C     6.0000    0    12.011   -5.878938   -0.941084    2.477431
  35 H     1.0000    0     1.008   -6.273891    1.046908    2.135391
  36 H     1.0000    0     1.008   -4.153618   -1.096041    3.579141
  37 H     1.0000    0     1.008   -9.484535   -2.851597   -0.372276
  38 H     1.0000    0     1.008   -6.559239   -5.852482    1.358713
  39 H     1.0000    0     1.008   -7.447411   -1.861380    3.448750

--------------------------------
INTERNAL COORDINATES (ANGSTROEM)
--------------------------------
 C      0   0   0     0.000000000000     0.00000000     0.00000000
 H      1   0   0     1.093071360891     0.00000000     0.00000000
 H      1   2   0     1.093776028262   108.79580384     0.00000000
 H      1   2   3     1.089035352962   109.34523435   118.75131122
 C      1   2   3     1.524248667377   112.14944802   237.52224566
 O      5   1   2     1.218649252246   122.25813226   233.99644394
 N      5   1   2     1.390409292259   116.99328056    51.73436092
 C      7   5   1     1.454028197801   120.90467590    23.72182432
 H      8   7   5     1.095139717114   108.25891206   192.99130066
 H      8   7   5     1.092460525603   109.39508745   308.77282201
 C      7   5   1     1.458569504686   112.20639708   166.83844642
 H     11   7   5     1.093439527363   108.12095328   197.41705679
 H     11   7   5     1.093658996214   108.85559333   314.20448654
 C     11   7   5     1.532042753973   108.81189171    77.54868097
 H     14  11   7     1.089523749167   110.13459186   330.11923661
 H     14  11   7     1.094000914076   111.14541052    91.28630762
 C      8   7   5     1.541218673648   109.97059800    71.34414211
 N     17   8   7     1.356231912322   117.61387291   178.05113076
 O     17   8   7     1.240890809056   118.41724377   359.18506296
 C     18  17   8     1.460463625018   119.03024387   176.83139830
 H     20  18  17     1.093060382596   109.41062805   130.31463237
 H     20  18  17     1.094394353056   110.19525973   250.23275116
 H     20  18  17     1.088110748040   108.48979298    10.24021730
 C     18  17   8     1.456231781002   124.49681330     7.96441146
 H     24  18  17     1.093401115785   108.78547659   218.14168211
 H     24  18  17     1.088985766665   111.52472295   337.07559974
 H     24  18  17     1.096678622022   111.07948656    98.89358358
 N     14  11   7     1.516596848210   114.26201852   211.06289521
 C     28  14  11     1.498592005851   110.39705280   305.15712322
 H     29  28  14     1.091296934844   108.73564722   304.40866730
 H     29  28  14     1.089313545312   109.21182128    64.91896485
 C     28  14  11     1.500115995515   108.01346142   186.14428221
 H     32  28  14     1.090545734942   108.49494052   301.47134530
 H     32  28  14     1.089901830442   108.94733624    61.48398999
 C     28  14  11     1.506004648067   111.32877204    67.35402816
 H     35  28  14     1.087725149107   108.59142568    56.85892911
 H     35  28  14     1.086361818180   109.74810102   297.93066075
 H     32  28  14     1.090943169922   108.81630604   181.65403314
 H     29  28  14     1.090537940651   108.64331867   184.62973224
 H     35  28  14     1.090992667253   107.56814397   177.47350632

---------------------------
INTERNAL COORDINATES (A.U.)
---------------------------
 C      0   0   0     0.000000000000     0.00000000     0.00000000
 H      1   0   0     2.065605516917     0.00000000     0.00000000
 H      1   2   0     2.066937145263   108.79580384     0.00000000
 H      1   2   3     2.057978567256   109.34523435   118.75131122
 C      1   2   3     2.880412541337   112.14944802   237.52224566
 O      5   1   2     2.302913340053   122.25813226   233.99644394
 N      5   1   2     2.627492776429   116.99328056    51.73436092
 C      7   5   1     2.747715084843   120.90467590    23.72182432
 H      8   7   5     2.069514143725   108.25891206   192.99130066
 H      8   7   5     2.064451205509   109.39508745   308.77282201
 C      7   5   1     2.756296911146   112.20639708   166.83844642
 H     11   7   5     2.066301250721   108.12095328   197.41705679
 H     11   7   5     2.066715986744   108.85559333   314.20448654
 C     11   7   5     2.895141230467   108.81189171    77.54868097
 H     14  11   7     2.058901502330   110.13459186   330.11923661
 H     14  11   7     2.067362117864   111.14541052    91.28630762
 C      8   7   5     2.912481205679   109.97059800    71.34414211
 N     17   8   7     2.562906888372   117.61387291   178.05113076
 O     17   8   7     2.344943791216   118.41724377   359.18506296
 C     18  17   8     2.759876279837   119.03024387   176.83139830
 H     20  18  17     2.065584770945   109.41062805   130.31463237
 H     20  18  17     2.068105609785   110.19525973   250.23275116
 H     20  18  17     2.056231317172   108.48979298    10.24021730
 C     18  17   8     2.751879253606   124.49681330     7.96441146
 H     24  18  17     2.066228663358   108.78547659   218.14168211
 H     24  18  17     2.057884862736   111.52472295   337.07559974
 H     24  18  17     2.072422252548   111.07948656    98.89358358
 N     14  11   7     2.865952698685   114.26201852   211.06289521
 C     28  14  11     2.831928477542   110.39705280   305.15712322
 H     29  28  14     2.062252337643   108.73564722   304.40866730
 H     29  28  14     2.058504274610   109.21182128    64.91896485
 C     28  14  11     2.834808400638   108.01346142   186.14428221
 H     32  28  14     2.060832775556   108.49494052   301.47134530
 H     32  28  14     2.059615972394   108.94733624    61.48398999
 C     28  14  11     2.845936341259   111.32877204    67.35402816
 H     35  28  14     2.055502640791   108.59142568    56.85892911
 H     35  28  14     2.052926318710   109.74810102   297.93066075
 H     32  28  14     2.061583818825   108.81630604   181.65403314
 H     29  28  14     2.060818046481   108.64331867   184.62973224
 H     35  28  14     2.061677355225   107.56814397   177.47350632

---------------------
BASIS SET INFORMATION
---------------------
There are 4 groups of distinct atoms

 Group   1 Type C   : 11s5p1d contracted to 4s3p1d pattern {6311/311/1}
 Group   2 Type H   : 4s contracted to 2s pattern {31}
 Group   3 Type O   : 11s5p1d contracted to 4s3p1d pattern {6311/311/1}
 Group   4 Type N   : 11s5p1d contracted to 4s3p1d pattern {6311/311/1}

Atom   0C    basis set group =>   1
Atom   1H    basis set group =>   2
Atom   2H    basis set group =>   2
Atom   3H    basis set group =>   2
Atom   4C    basis set group =>   1
Atom   5O    basis set group =>   3
Atom   6N    basis set group =>   4
Atom   7C    basis set group =>   1
Atom   8H    basis set group =>   2
Atom   9H    basis set group =>   2
Atom  10C    basis set group =>   1
Atom  11H    basis set group =>   2
Atom  12H    basis set group =>   2
Atom  13C    basis set group =>   1
Atom  14H    basis set group =>   2
Atom  15H    basis set group =>   2
Atom  16C    basis set group =>   1
Atom  17N    basis set group =>   4
Atom  18O    basis set group =>   3
Atom  19C    basis set group =>   1
Atom  20H    basis set group =>   2
Atom  21H    basis set group =>   2
Atom  22H    basis set group =>   2
Atom  23C    basis set group =>   1
Atom  24H    basis set group =>   2
Atom  25H    basis set group =>   2
Atom  26H    basis set group =>   2
Atom  27N    basis set group =>   4
Atom  28C    basis set group =>   1
Atom  29H    basis set group =>   2
Atom  30H    basis set group =>   2
Atom  31C    basis set group =>   1
Atom  32H    basis set group =>   2
Atom  33H    basis set group =>   2
Atom  34C    basis set group =>   1
Atom  35H    basis set group =>   2
Atom  36H    basis set group =>   2
Atom  37H    basis set group =>   2
Atom  38H    basis set group =>   2
Atom  39H    basis set group =>   2
---------------------------------
AUXILIARY/J BASIS SET INFORMATION
---------------------------------
There are 4 groups of distinct atoms

 Group   1 Type C   : 16s13p12d2f contracted to 16s13p12d2f pattern {1111111111111111/1111111111111/111111111111/11}
 Group   2 Type H   : 9s2p contracted to 9s2p pattern {111111111/11}
 Group   3 Type O   : 16s13p12d3f contracted to 16s13p12d3f pattern {1111111111111111/1111111111111/111111111111/111}
 Group   4 Type N   : 16s13p12d3f contracted to 16s13p12d3f pattern {1111111111111111/1111111111111/111111111111/111}

Atom   0C    basis set group =>   1
Atom   1H    basis set group =>   2
Atom   2H    basis set group =>   2
Atom   3H    basis set group =>   2
Atom   4C    basis set group =>   1
Atom   5O    basis set group =>   3
Atom   6N    basis set group =>   4
Atom   7C    basis set group =>   1
Atom   8H    basis set group =>   2
Atom   9H    basis set group =>   2
Atom  10C    basis set group =>   1
Atom  11H    basis set group =>   2
Atom  12H    basis set group =>   2
Atom  13C    basis set group =>   1
Atom  14H    basis set group =>   2
Atom  15H    basis set group =>   2
Atom  16C    basis set group =>   1
Atom  17N    basis set group =>   4
Atom  18O    basis set group =>   3
Atom  19C    basis set group =>   1
Atom  20H    basis set group =>   2
Atom  21H    basis set group =>   2
Atom  22H    basis set group =>   2
Atom  23C    basis set group =>   1
Atom  24H    basis set group =>   2
Atom  25H    basis set group =>   2
Atom  26H    basis set group =>   2
Atom  27N    basis set group =>   4
Atom  28C    basis set group =>   1
Atom  29H    basis set group =>   2
Atom  30H    basis set group =>   2
Atom  31C    basis set group =>   1
Atom  32H    basis set group =>   2
Atom  33H    basis set group =>   2
Atom  34C    basis set group =>   1
Atom  35H    basis set group =>   2
Atom  36H    basis set group =>   2
Atom  37H    basis set group =>   2
Atom  38H    basis set group =>   2
Atom  39H    basis set group =>   2
---------------------------------
AUXILIARY/C BASIS SET INFORMATION
---------------------------------
There are 4 groups of distinct atoms

 Group   1 Type C   : 16s13p12d2f contracted to 16s13p12d2f pattern {1111111111111111/1111111111111/111111111111/11}
 Group   2 Type H   : 9s2p contracted to 9s2p pattern {111111111/11}
 Group   3 Type O   : 16s13p12d3f contracted to 16s13p12d3f pattern {1111111111111111/1111111111111/111111111111/111}
 Group   4 Type N   : 16s13p12d3f contracted to 16s13p12d3f pattern {1111111111111111/1111111111111/111111111111/111}

Atom   0C    basis set group =>   1
Atom   1H    basis set group =>   2
Atom   2H    basis set group =>   2
Atom   3H    basis set group =>   2
Atom   4C    basis set group =>   1
Atom   5O    basis set group =>   3
Atom   6N    basis set group =>   4
Atom   7C    basis set group =>   1
Atom   8H    basis set group =>   2
Atom   9H    basis set group =>   2
Atom  10C    basis set group =>   1
Atom  11H    basis set group =>   2
Atom  12H    basis set group =>   2
Atom  13C    basis set group =>   1
Atom  14H    basis set group =>   2
Atom  15H    basis set group =>   2
Atom  16C    basis set group =>   1
Atom  17N    basis set group =>   4
Atom  18O    basis set group =>   3
Atom  19C    basis set group =>   1
Atom  20H    basis set group =>   2
Atom  21H    basis set group =>   2
Atom  22H    basis set group =>   2
Atom  23C    basis set group =>   1
Atom  24H    basis set group =>   2
Atom  25H    basis set group =>   2
Atom  26H    basis set group =>   2
Atom  27N    basis set group =>   4
Atom  28C    basis set group =>   1
Atom  29H    basis set group =>   2
Atom  30H    basis set group =>   2
Atom  31C    basis set group =>   1
Atom  32H    basis set group =>   2
Atom  33H    basis set group =>   2
Atom  34C    basis set group =>   1
Atom  35H    basis set group =>   2
Atom  36H    basis set group =>   2
Atom  37H    basis set group =>   2
Atom  38H    basis set group =>   2
Atom  39H    basis set group =>   2
----------------------------------
AUXILIARY/JK BASIS SET INFORMATION
----------------------------------
There are 4 groups of distinct atoms

 Group   1 Type C   : 16s13p12d2f contracted to 16s13p12d2f pattern {1111111111111111/1111111111111/111111111111/11}
 Group   2 Type H   : 9s2p contracted to 9s2p pattern {111111111/11}
 Group   3 Type O   : 16s13p12d3f contracted to 16s13p12d3f pattern {1111111111111111/1111111111111/111111111111/111}
 Group   4 Type N   : 16s13p12d3f contracted to 16s13p12d3f pattern {1111111111111111/1111111111111/111111111111/111}

Atom   0C    basis set group =>   1
Atom   1H    basis set group =>   2
Atom   2H    basis set group =>   2
Atom   3H    basis set group =>   2
Atom   4C    basis set group =>   1
Atom   5O    basis set group =>   3
Atom   6N    basis set group =>   4
Atom   7C    basis set group =>   1
Atom   8H    basis set group =>   2
Atom   9H    basis set group =>   2
Atom  10C    basis set group =>   1
Atom  11H    basis set group =>   2
Atom  12H    basis set group =>   2
Atom  13C    basis set group =>   1
Atom  14H    basis set group =>   2
Atom  15H    basis set group =>   2
Atom  16C    basis set group =>   1
Atom  17N    basis set group =>   4
Atom  18O    basis set group =>   3
Atom  19C    basis set group =>   1
Atom  20H    basis set group =>   2
Atom  21H    basis set group =>   2
Atom  22H    basis set group =>   2
Atom  23C    basis set group =>   1
Atom  24H    basis set group =>   2
Atom  25H    basis set group =>   2
Atom  26H    basis set group =>   2
Atom  27N    basis set group =>   4
Atom  28C    basis set group =>   1
Atom  29H    basis set group =>   2
Atom  30H    basis set group =>   2
Atom  31C    basis set group =>   1
Atom  32H    basis set group =>   2
Atom  33H    basis set group =>   2
Atom  34C    basis set group =>   1
Atom  35H    basis set group =>   2
Atom  36H    basis set group =>   2
Atom  37H    basis set group =>   2
Atom  38H    basis set group =>   2
Atom  39H    basis set group =>   2


           ************************************************************
           *        Program running with 4 parallel MPI-processes     *
           *              working on a common directory               *
           ************************************************************
------------------------------------------------------------------------------
                           ORCA GTO INTEGRAL CALCULATION
                           -- RI-GTO INTEGRALS CHOSEN --
------------------------------------------------------------------------------
------------------------------------------------------------------------------
                   ___                                                        
                  /   \      - P O W E R E D   B Y -                         
                 /     \                                                     
                 |  |  |   _    _      __       _____    __    __             
                 |  |  |  | |  | |    /  \     |  _  \  |  |  /  |          
                  \  \/   | |  | |   /    \    | | | |  |  | /  /          
                 / \  \   | |__| |  /  /\  \   | |_| |  |  |/  /          
                |  |  |   |  __  | /  /__\  \  |    /   |      \           
                |  |  |   | |  | | |   __   |  |    \   |  |\   \          
                \     /   | |  | | |  |  |  |  | |\  \  |  | \   \       
                 \___/    |_|  |_| |__|  |__|  |_| \__\ |__|  \__/        
                                                                              
                      - O R C A' S   B I G   F R I E N D -                    
                                      &                                       
                       - I N T E G R A L  F E E D E R -                       
                                                                              
 v1 FN, 2020, v2 2021                                                         
------------------------------------------------------------------------------


Reading SHARK input file Nkeqm_octanol.SHARKINP.tmp ... ok
----------------------
SHARK INTEGRAL PACKAGE
----------------------

Number of atoms                             ...     40
Number of basis functions                   ...    336
Number of shells                            ...    176
Maximum angular momentum                    ...      2
Integral batch strategy                     ... SHARK/LIBINT Hybrid
RI-J (if used) integral strategy            ... SPLIT-RIJ (Revised 2003 algorithm where possible)
Printlevel                                  ...      1
Contraction scheme used                     ... SEGMENTED contraction
Coulomb Range Separation                    ... NOT USED
Exchange Range Separation                   ... NOT USED
Finite Nucleus Model                        ... NOT USED
Auxiliary Coulomb fitting basis             ... AVAILABLE
   # of basis functions in Aux-J            ...   2459
   # of shells in Aux-J                     ...    957
   Maximum angular momentum in Aux-J        ...      3
Auxiliary J/K fitting basis                 ... AVAILABLE
   # of basis functions in Aux-JK           ...   2459
   # of shells in Aux-JK                    ...    957
   Maximum angular momentum in Aux-JK       ...      3
Auxiliary Correlation fitting basis         ... AVAILABLE
   # of basis functions in Aux-C            ...   2459
   # of shells in Aux-C                     ...    957
   Maximum angular momentum in Aux-C        ...      3
Auxiliary 'external' fitting basis          ... NOT available
Integral threshold                          ...     2.500000e-11
Primitive cut-off                           ...     2.500000e-12
Primitive pair pre-selection threshold      ...     2.500000e-12

Calculating pre-screening integrals         ... done (  0.1 sec) Dimension = 176
Organizing shell pair data                  ... done (  2.2 sec)
Shell pair information
Total number of shell pairs                 ...     15576
Shell pairs after pre-screening             ...     13300
Total number of primitive shell pairs       ...     68304
Primitive shell pairs kept                  ...     37001
          la=0 lb=0:   5157 shell pairs
          la=1 lb=0:   4890 shell pairs
          la=1 lb=1:   1136 shell pairs
          la=2 lb=0:   1344 shell pairs
          la=2 lb=1:    681 shell pairs
          la=2 lb=2:     92 shell pairs

Calculating one electron integrals          ... done (  0.0 sec)
Calculating RI/J V-Matrix + Cholesky decomp.... done (  0.4 sec)
Calculating RI/JK V-Matrix + Cholesky decomp... done (  0.4 sec)
Calculating RI/C V-Matrix + Cholesky decomp.... done (  0.4 sec)
Calculating Nuclear repulsion               ... done (  0.0 sec) ENN=   1243.885373454350 Eh

SHARK setup successfully completed in   4.0 seconds

Maximum memory used throughout the entire GTOINT-calculation: 53.5 MB


           ************************************************************
           *        Program running with 4 parallel MPI-processes     *
           *              working on a common directory               *
           ************************************************************
-------------------------------------------------------------------------------
                                 ORCA SCF
-------------------------------------------------------------------------------

------------
SCF SETTINGS
------------
Hamiltonian:
 Density Functional     Method          .... DFT(GTOs)
 Exchange Functional    Exchange        .... B88
   X-Alpha parameter    XAlpha          ....  0.666667
   Becke's b parameter  XBeta           ....  0.004200
 Correlation Functional Correlation     .... LYP
 LDA part of GGA corr.  LDAOpt          .... VWN-5
 Gradients option       PostSCFGGA      .... off
 Hybrid DFT is turned on
   Fraction HF Exchange ScalHFX         ....  0.200000
   Scaling of DF-GGA-X  ScalDFX         ....  0.720000
   Scaling of DF-GGA-C  ScalDFC         ....  0.810000
   Scaling of DF-LDA-C  ScalLDAC        ....  1.000000
   Perturbative correction              ....  0.000000
   Density functional embedding theory  .... OFF
   NL short-range parameter             ....  4.800000
 RI-approximation to the Coulomb term is turned on
   Number of AuxJ basis functions       .... 2459
   RIJ-COSX (HFX calculated with COS-X)).... on


General Settings:
 Integral files         IntName         .... Nkeqm_octanol
 Hartree-Fock type      HFTyp           .... RHF
 Total Charge           Charge          ....    1
 Multiplicity           Mult            ....    1
 Number of Electrons    NEL             ....  126
 Basis Dimension        Dim             ....  336
 Nuclear Repulsion      ENuc            ....   1243.8853734543 Eh

Convergence Acceleration:
 DIIS                   CNVDIIS         .... on
   Start iteration      DIISMaxIt       ....    12
   Startup error        DIISStart       ....  0.200000
   # of expansion vecs  DIISMaxEq       ....     5
   Bias factor          DIISBfac        ....   1.050
   Max. coefficient     DIISMaxC        ....  10.000
 Trust-Rad. Augm. Hess. CNVTRAH         .... auto
   Auto Start mean grad. ratio tolernc. ....  1.125000
   Auto Start start iteration           ....    20
   Auto Start num. interpolation iter.  ....    10
   Max. Number of Micro iterations      ....    16
   Max. Number of Macro iterations      .... Maxiter - #DIIS iter
   Number of Davidson start vectors     ....     2
   Converg. threshold I  (grad. norm)   ....   1.000e-05
   Converg. threshold II (energy diff.) ....   1.000e-08
   Grad. Scal. Fac. for Micro threshold ....   0.100
   Minimum threshold for Micro iter.    ....   0.010
   NR start threshold (gradient norm)   ....   0.001
   Initial trust radius                 ....   0.400
   Minimum AH scaling param. (alpha)    ....   1.000
   Maximum AH scaling param. (alpha)    .... 1000.000
   Orbital update algorithm             .... Taylor
   White noise on init. David. guess    .... on
   Maximum white noise                  ....   0.010
   Quad. conv. algorithm                .... NR
 SOSCF                  CNVSOSCF        .... on
   Start iteration      SOSCFMaxIt      ....   150
   Startup grad/error   SOSCFStart      ....  0.003300
 Level Shifting         CNVShift        .... on
   Level shift para.    LevelShift      ....    0.2500
   Turn off err/grad.   ShiftErr        ....    0.0010
 Zerner damping         CNVZerner       .... off
 Static damping         CNVDamp         .... on
   Fraction old density DampFac         ....    0.7000
   Max. Damping (<1)    DampMax         ....    0.9800
   Min. Damping (>=0)   DampMin         ....    0.0000
   Turn off err/grad.   DampErr         ....    0.1000
 Fernandez-Rico         CNVRico         .... off

SCF Procedure:
 Maximum # iterations   MaxIter         ....   125
 SCF integral mode      SCFMode         .... Direct
   Integral package                     .... SHARK and LIBINT hybrid scheme
 Reset frequency        DirectResetFreq ....    20
 Integral Threshold     Thresh          ....  2.500e-11 Eh
 Primitive CutOff       TCut            ....  2.500e-12 Eh

Convergence Tolerance:
 Convergence Check Mode ConvCheckMode   .... Total+1el-Energy
 Convergence forced     ConvForced      .... 0
 Energy Change          TolE            ....  1.000e-08 Eh
 1-El. energy change                    ....  1.000e-05 Eh
 Orbital Gradient       TolG            ....  1.000e-05
 Orbital Rotation angle TolX            ....  1.000e-05
 DIIS Error             TolErr          ....  5.000e-07


Diagonalization of the overlap matrix:
Smallest eigenvalue                        ... 6.429e-06
Time for diagonalization                   ...    0.018 sec
Threshold for overlap eigenvalues          ... 1.000e-08
Number of eigenvalues below threshold      ... 0
Time for construction of square roots      ...    0.009 sec
Total time needed                          ...    0.029 sec

Time for model grid setup =    0.391 sec

------------------------------
INITIAL GUESS: MODEL POTENTIAL
------------------------------
Loading Hartree-Fock densities                     ... done
Calculating cut-offs                               ... done
Initializing the effective Hamiltonian             ... done
Setting up the integral package (SHARK)            ... done
Starting the Coulomb interaction                   ... done (   0.4 sec)
Reading the grid                                   ... done
Mapping shells                                     ... done
Starting the XC term evaluation                    ... done (   0.3 sec)
  promolecular density results
     # of electrons  =    126.971189153
     EX              =    -99.881051418
     EC              =     -4.249924735
     EX+EC           =   -104.130976153
Transforming the Hamiltonian                       ... done (   0.0 sec)
Diagonalizing the Hamiltonian                      ... done (   0.0 sec)
Back transforming the eigenvectors                 ... done (   0.0 sec)
Now organizing SCF variables                       ... done
                      ------------------
                      INITIAL GUESS DONE (   1.2 sec)
                      ------------------
-------------------
DFT GRID GENERATION
-------------------

General Integration Accuracy     IntAcc      ... 4.388
Radial Grid Type                 RadialGrid  ... OptM3 with GC (2021)
Angular Grid (max. ang.)         AngularGrid ... 4 (Lebedev-302)
Angular grid pruning method      GridPruning ... 4 (adaptive)
Weight generation scheme         WeightScheme... Becke
Basis function cutoff            BFCut       ... 1.0000e-11
Integration weight cutoff        WCut        ... 1.0000e-14
Angular grids for H and He will be reduced by one unit
Partially contracted basis set               ... off
Rotationally invariant grid construction     ... off

Total number of grid points                  ...   175317
Total number of batches                      ...     2760
Average number of points per batch           ...       63
Average number of grid points per atom       ...     4383
Time for grid setup =    2.198 sec

--------------------
COSX GRID GENERATION
--------------------

GRIDX 1
-------
General Integration Accuracy     IntAcc      ... 3.816
Radial Grid Type                 RadialGrid  ... OptM3 with GC (2021)
Angular Grid (max. ang.)         AngularGrid ... 1 (Lebedev-50)
Angular grid pruning method      GridPruning ... 4 (adaptive)
Weight generation scheme         WeightScheme... Becke
Basis function cutoff            BFCut       ... 1.0000e-11
Integration weight cutoff        WCut        ... 1.0000e-14
Angular grids for H and He will be reduced by one unit
Partially contracted basis set               ... on
Rotationally invariant grid construction     ... off

Total number of grid points                  ...    22403
Total number of batches                      ...      373
Average number of points per batch           ...       60
Average number of grid points per atom       ...      560
UseSFitting                                  ... on

GRIDX 2
-------
General Integration Accuracy     IntAcc      ... 4.020
Radial Grid Type                 RadialGrid  ... OptM3 with GC (2021)
Angular Grid (max. ang.)         AngularGrid ... 2 (Lebedev-110)
Angular grid pruning method      GridPruning ... 4 (adaptive)
Weight generation scheme         WeightScheme... Becke
Basis function cutoff            BFCut       ... 1.0000e-11
Integration weight cutoff        WCut        ... 1.0000e-14
Angular grids for H and He will be reduced by one unit
Partially contracted basis set               ... on
Rotationally invariant grid construction     ... off

Total number of grid points                  ...    49399
Total number of batches                      ...      789
Average number of points per batch           ...       62
Average number of grid points per atom       ...     1235
UseSFitting                                  ... on

GRIDX 3
-------
General Integration Accuracy     IntAcc      ... 4.338
Radial Grid Type                 RadialGrid  ... OptM3 with GC (2021)
Angular Grid (max. ang.)         AngularGrid ... 3 (Lebedev-194)
Angular grid pruning method      GridPruning ... 4 (adaptive)
Weight generation scheme         WeightScheme... Becke
Basis function cutoff            BFCut       ... 1.0000e-11
Integration weight cutoff        WCut        ... 1.0000e-14
Angular grids for H and He will be reduced by one unit
Partially contracted basis set               ... on
Rotationally invariant grid construction     ... off

Total number of grid points                  ...   106337
Total number of batches                      ...     1682
Average number of points per batch           ...       63
Average number of grid points per atom       ...     2658
UseSFitting                                  ... on

Time for X-Grid setup             =    2.788 sec


--------------------
CPCM SOLVATION MODEL
--------------------
CPCM parameters:
  Epsilon                                         ...       9.8629
  Refrac                                          ...       1.4295
  Rsolv                                           ...       1.3000
  Surface type                                    ... GAUSSIAN VDW
  Epsilon function type                           ...         CPCM
Radii:
 Radius for C  used is    3.8550 Bohr (=   2.0400 Ang.)
 Radius for H  used is    2.4944 Bohr (=   1.3200 Ang.)
 Radius for O  used is    3.4469 Bohr (=   1.8240 Ang.)
 Radius for N  used is    3.5149 Bohr (=   1.8600 Ang.)
Calculating surface                               ...        done! (  0.0s)
GEPOL surface points                              ...         2019
GEPOL Volume                                      ...    2025.2178
GEPOL Surface-area                                ...    1060.7196
Calculating surface distance matrix               ...        done! (  0.0s)
Performing Cholesky decomposition & store         ...        done! (  0.3s)
Overall time for CPCM initialization              ...                 0.3s
--------------
SCF ITERATIONS
--------------
ITER       Energy         Delta-E        Max-DP      RMS-DP      [F,P]     Damp
               ***  Starting incremental Fock matrix formation  ***
  0   -747.3325120118   0.000000000000 0.27176778  0.00300501  0.2751456 0.7000
  1   -747.5255710391  -0.193059027207 0.18318921  0.00218478  0.1083296 0.7000
                               ***Turning on DIIS***
  2   -747.5987134362  -0.073142397122 0.45203985  0.00422412  0.0377681 0.0000
  3   -747.7176484832  -0.118935046987 0.07390562  0.00130640  0.0521700 0.0000
  4   -747.7420999480  -0.024451464854 0.02571411  0.00055039  0.0135972 0.0000
  5   -747.7436859859  -0.001586037861 0.01998140  0.00023385  0.0050923 0.0000
                      *** Initiating the SOSCF procedure ***
                           *** Shutting down DIIS ***
                      *** Re-Reading the Fockian *** 
                      *** Removing any level shift *** 
ITER      Energy       Delta-E        Grad      Rot      Max-DP    RMS-DP
  6   -747.74378771  -0.0001017200  0.000216  0.000216  0.010251  0.000155
               *** Restarting incremental Fock matrix formation ***
  7   -747.74377602   0.0000116833  0.000356  0.001374  0.004377  0.000067
  8   -747.74376661   0.0000094111  0.000706  0.000977  0.002515  0.000032
  9   -747.74378071  -0.0000140995  0.000082  0.000219  0.003320  0.000028
 10   -747.74378026   0.0000004546  0.000158  0.000145  0.000668  0.000007
 11   -747.74378086  -0.0000006007  0.000004  0.000007  0.001773  0.000013
 12   -747.74378087  -0.0000000126  0.000005  0.000004  0.001306  0.000009
                  ***Gradient check signals convergence***
              ***Rediagonalizing the Fockian in SOSCF/NRSCF***

               *****************************************************
               *                     SUCCESS                       *
               *           SCF CONVERGED AFTER  13 CYCLES          *
               *****************************************************

Old exchange energy                            =    -20.327921793 Eh
New exchange energy                            =    -20.327964034 Eh
Exchange energy change after final integration =     -0.000042241 Eh
Total energy after final integration           =   -747.743823094 Eh
Final COS-X integration done in                =    21.974 sec

----------------
TOTAL SCF ENERGY
----------------

Total Energy       :         -747.74382309 Eh          -20347.14386 eV

Components:
Nuclear Repulsion  :         1243.88537345 Eh           33847.84180 eV
Electronic Energy  :        -1991.62919655 Eh          -54194.98566 eV
One Electron Energy:        -3467.89634310 Eh          -94366.25698 eV
Two Electron Energy:         1476.26714655 Eh           40171.27133 eV
Max COSX asymmetry :            0.00000893 Eh               0.00024 eV
CPCM Dielectric    :           -0.08656276 Eh              -2.35549 eV

Virial components:
Potential Energy   :        -1491.03062412 Eh          -40573.00597 eV
Kinetic Energy     :          743.28680103 Eh           20225.86212 eV
Virial Ratio       :            2.00599637


DFT components:
N(Alpha)           :       62.999925275963 electrons
N(Beta)            :       62.999925275963 electrons
N(Total)           :      125.999850551927 electrons
E(X)               :      -80.691069824870 Eh       
E(C)               :       -4.968230390650 Eh       
E(XC)              :      -85.659300215520 Eh       
DFET-embed. en.    :        0.000000000000 Eh       
CPCM Solvation Model Properties:
Surface-charge          :           -1.03119269
Charge-correction       :            0.00265871 Eh               0.07235 eV
Free-energy (cav+disp)  :  This term is not implemented in the current solvation scheme

---------------
SCF CONVERGENCE
---------------

  Last Energy change         ...    1.6448e-08  Tolerance :   1.0000e-08
  Last MAX-Density change    ...    3.9968e-15  Tolerance :   1.0000e-07
  Last RMS-Density change    ...    3.9532e-17  Tolerance :   5.0000e-09
  Last Orbital Gradient      ...    1.4684e-06  Tolerance :   1.0000e-05
  Last Orbital Rotation      ...    3.3390e-06  Tolerance :   1.0000e-05

             **** THE GBW FILE WAS UPDATED (Nkeqm_octanol.gbw) ****
             **** DENSITY Nkeqm_octanol.scfp WAS UPDATED ****
             **** ENERGY FILE WAS UPDATED (Nkeqm_octanol.en.tmp) ****
             **** THE GBW FILE WAS UPDATED (Nkeqm_octanol.gbw) ****
             **** DENSITY Nkeqm_octanol.scfp WAS UPDATED ****
----------------
ORBITAL ENERGIES
----------------

  NO   OCC          E(Eh)            E(eV) 
   0   2.0000     -19.143362      -520.9174 
   1   2.0000     -19.136225      -520.7232 
   2   2.0000     -14.478445      -393.9785 
   3   2.0000     -14.383387      -391.3918 
   4   2.0000     -14.380179      -391.3046 
   5   2.0000     -10.306760      -280.4612 
   6   2.0000     -10.304601      -280.4025 
   7   2.0000     -10.249037      -278.8905 
   8   2.0000     -10.242792      -278.7205 
   9   2.0000     -10.242370      -278.7091 
  10   2.0000     -10.241051      -278.6732 
  11   2.0000     -10.236587      -278.5517 
  12   2.0000     -10.235334      -278.5176 
  13   2.0000     -10.220787      -278.1217 
  14   2.0000     -10.211260      -277.8625 
  15   2.0000     -10.188189      -277.2347 
  16   2.0000      -1.071619       -29.1602 
  17   2.0000      -1.054447       -28.6930 
  18   2.0000      -1.036413       -28.2022 
  19   2.0000      -0.958763       -26.0893 
  20   2.0000      -0.952182       -25.9102 
  21   2.0000      -0.805083       -21.9074 
  22   2.0000      -0.766018       -20.8444 
  23   2.0000      -0.762226       -20.7412 
  24   2.0000      -0.761346       -20.7173 
  25   2.0000      -0.746632       -20.3169 
  26   2.0000      -0.730431       -19.8760 
  27   2.0000      -0.700181       -19.0529 
  28   2.0000      -0.684288       -18.6204 
  29   2.0000      -0.632267       -17.2049 
  30   2.0000      -0.579302       -15.7636 
  31   2.0000      -0.556514       -15.1435 
  32   2.0000      -0.543228       -14.7820 
  33   2.0000      -0.541086       -14.7237 
  34   2.0000      -0.532453       -14.4888 
  35   2.0000      -0.519096       -14.1253 
  36   2.0000      -0.514390       -13.9973 
  37   2.0000      -0.503733       -13.7073 
  38   2.0000      -0.485593       -13.2137 
  39   2.0000      -0.477286       -12.9876 
  40   2.0000      -0.469226       -12.7683 
  41   2.0000      -0.462125       -12.5750 
  42   2.0000      -0.452886       -12.3236 
  43   2.0000      -0.439163       -11.9502 
  44   2.0000      -0.435367       -11.8469 
  45   2.0000      -0.429194       -11.6790 
  46   2.0000      -0.422615       -11.4999 
  47   2.0000      -0.418738       -11.3944 
  48   2.0000      -0.416173       -11.3246 
  49   2.0000      -0.415670       -11.3110 
  50   2.0000      -0.415174       -11.2975 
  51   2.0000      -0.411578       -11.1996 
  52   2.0000      -0.409031       -11.1303 
  53   2.0000      -0.404583       -11.0093 
  54   2.0000      -0.401336       -10.9209 
  55   2.0000      -0.391307       -10.6480 
  56   2.0000      -0.389605       -10.6017 
  57   2.0000      -0.375254       -10.2112 
  58   2.0000      -0.365168        -9.9367 
  59   2.0000      -0.290136        -7.8950 
  60   2.0000      -0.280885        -7.6433 
  61   2.0000      -0.268393        -7.3034 
  62   2.0000      -0.260325        -7.0838 
  63   0.0000      -0.011344        -0.3087 
  64   0.0000      -0.006265        -0.1705 
  65   0.0000      -0.001361        -0.0370 
  66   0.0000       0.002939         0.0800 
  67   0.0000       0.010279         0.2797 
  68   0.0000       0.012424         0.3381 
  69   0.0000       0.019206         0.5226 
  70   0.0000       0.025709         0.6996 
  71   0.0000       0.026060         0.7091 
  72   0.0000       0.028672         0.7802 
  73   0.0000       0.035499         0.9660 
  74   0.0000       0.038009         1.0343 
  75   0.0000       0.039364         1.0712 
  76   0.0000       0.042781         1.1641 
  77   0.0000       0.049430         1.3450 
  78   0.0000       0.053805         1.4641 
  79   0.0000       0.057377         1.5613 
  80   0.0000       0.061987         1.6868 
  81   0.0000       0.067166         1.8277 
  82   0.0000       0.071434         1.9438 
  83   0.0000       0.078539         2.1372 
  84   0.0000       0.083671         2.2768 
  85   0.0000       0.086215         2.3460 
  86   0.0000       0.089500         2.4354 
  87   0.0000       0.092996         2.5306 
  88   0.0000       0.095754         2.6056 
  89   0.0000       0.101888         2.7725 
  90   0.0000       0.103237         2.8092 
  91   0.0000       0.104720         2.8496 
  92   0.0000       0.110958         3.0193 
  93   0.0000       0.113621         3.0918 
  94   0.0000       0.119997         3.2653 
  95   0.0000       0.121037         3.2936 
  96   0.0000       0.124782         3.3955 
  97   0.0000       0.133566         3.6345 
  98   0.0000       0.134567         3.6618 
  99   0.0000       0.140098         3.8122 
 100   0.0000       0.143989         3.9181 
 101   0.0000       0.149371         4.0646 
 102   0.0000       0.153169         4.1679 
 103   0.0000       0.157007         4.2724 
 104   0.0000       0.159164         4.3311 
 105   0.0000       0.163975         4.4620 
 106   0.0000       0.167604         4.5607 
 107   0.0000       0.169404         4.6097 
 108   0.0000       0.174516         4.7488 
 109   0.0000       0.177702         4.8355 
 110   0.0000       0.179199         4.8763 
 111   0.0000       0.182345         4.9619 
 112   0.0000       0.190714         5.1896 
 113   0.0000       0.192594         5.2408 
 114   0.0000       0.197320         5.3694 
 115   0.0000       0.203196         5.5292 
 116   0.0000       0.208310         5.6684 
 117   0.0000       0.210922         5.7395 
 118   0.0000       0.215508         5.8643 
 119   0.0000       0.221130         6.0173 
 120   0.0000       0.224089         6.0978 
 121   0.0000       0.229752         6.2519 
 122   0.0000       0.233062         6.3419 
 123   0.0000       0.236887         6.4460 
 124   0.0000       0.242580         6.6009 
 125   0.0000       0.246966         6.7203 
 126   0.0000       0.254628         6.9288 
 127   0.0000       0.258177         7.0253 
 128   0.0000       0.260470         7.0878 
 129   0.0000       0.263865         7.1801 
 130   0.0000       0.268375         7.3029 
 131   0.0000       0.270272         7.3545 
 132   0.0000       0.273999         7.4559 
 133   0.0000       0.279657         7.6099 
 134   0.0000       0.280427         7.6308 
 135   0.0000       0.282932         7.6990 
 136   0.0000       0.284503         7.7417 
 137   0.0000       0.291029         7.9193 
 138   0.0000       0.297271         8.0892 
 139   0.0000       0.299602         8.1526 
 140   0.0000       0.303020         8.2456 
 141   0.0000       0.310571         8.4511 
 142   0.0000       0.317471         8.6388 
 143   0.0000       0.323474         8.8022 
 144   0.0000       0.325811         8.8658 
 145   0.0000       0.331758         9.0276 
 146   0.0000       0.338580         9.2132 
 147   0.0000       0.344583         9.3766 
 148   0.0000       0.351523         9.5654 
 149   0.0000       0.357334         9.7235 
 150   0.0000       0.363775         9.8988 
 151   0.0000       0.367876        10.0104 
 152   0.0000       0.374419        10.1885 
 153   0.0000       0.377275        10.2662 
 154   0.0000       0.385902        10.5009 
 155   0.0000       0.388848        10.5811 
 156   0.0000       0.404337        11.0026 
 157   0.0000       0.407347        11.0845 
 158   0.0000       0.415969        11.3191 
 159   0.0000       0.422696        11.5022 
 160   0.0000       0.426108        11.5950 
 161   0.0000       0.451642        12.2898 
 162   0.0000       0.456557        12.4236 
 163   0.0000       0.474236        12.9046 
 164   0.0000       0.492924        13.4131 
 165   0.0000       0.512127        13.9357 
 166   0.0000       0.532070        14.4784 
 167   0.0000       0.553976        15.0745 
 168   0.0000       0.619670        16.8621 
 169   0.0000       0.628999        17.1159 
 170   0.0000       0.640009        17.4155 
 171   0.0000       0.649954        17.6861 
 172   0.0000       0.659239        17.9388 
 173   0.0000       0.664711        18.0877 
 174   0.0000       0.666501        18.1364 
 175   0.0000       0.673064        18.3150 
 176   0.0000       0.684330        18.6216 
 177   0.0000       0.692155        18.8345 
 178   0.0000       0.702006        19.1025 
 179   0.0000       0.709011        19.2932 
 180   0.0000       0.717694        19.5295 
 181   0.0000       0.724762        19.7218 
 182   0.0000       0.736510        20.0415 
 183   0.0000       0.749654        20.3991 
 184   0.0000       0.759194        20.6587 
 185   0.0000       0.783830        21.3291 
 186   0.0000       0.789799        21.4915 
 187   0.0000       0.798986        21.7415 
 188   0.0000       0.805586        21.9211 
 189   0.0000       0.818631        22.2761 
 190   0.0000       0.829039        22.5593 
 191   0.0000       0.837710        22.7953 
 192   0.0000       0.852130        23.1876 
 193   0.0000       0.856113        23.2960 
 194   0.0000       0.864258        23.5177 
 195   0.0000       0.875086        23.8123 
 196   0.0000       0.884431        24.0666 
 197   0.0000       0.910159        24.7667 
 198   0.0000       0.912912        24.8416 
 199   0.0000       0.926005        25.1979 
 200   0.0000       0.936581        25.4857 
 201   0.0000       0.946454        25.7543 
 202   0.0000       0.961225        26.1563 
 203   0.0000       0.965535        26.2735 
 204   0.0000       0.969983        26.3946 
 205   0.0000       0.977615        26.6023 
 206   0.0000       0.982708        26.7409 
 207   0.0000       0.989194        26.9173 
 208   0.0000       0.992093        26.9962 
 209   0.0000       1.002768        27.2867 
 210   0.0000       1.009927        27.4815 
 211   0.0000       1.011197        27.5161 
 212   0.0000       1.015739        27.6397 
 213   0.0000       1.018213        27.7070 
 214   0.0000       1.028460        27.9858 
 215   0.0000       1.034688        28.1553 
 216   0.0000       1.046138        28.4669 
 217   0.0000       1.060884        28.8681 
 218   0.0000       1.076312        29.2879 
 219   0.0000       1.089031        29.6340 
 220   0.0000       1.100579        29.9483 
 221   0.0000       1.116340        30.3771 
 222   0.0000       1.125719        30.6324 
 223   0.0000       1.132211        30.8090 
 224   0.0000       1.146174        31.1890 
 225   0.0000       1.151763        31.3411 
 226   0.0000       1.159993        31.5650 
 227   0.0000       1.166628        31.7456 
 228   0.0000       1.172120        31.8950 
 229   0.0000       1.180721        32.1291 
 230   0.0000       1.194340        32.4996 
 231   0.0000       1.221763        33.2459 
 232   0.0000       1.235366        33.6160 
 233   0.0000       1.246441        33.9174 
 234   0.0000       1.264327        34.4041 
 235   0.0000       1.274290        34.6752 
 236   0.0000       1.290636        35.1200 
 237   0.0000       1.303794        35.4780 
 238   0.0000       1.330259        36.1982 
 239   0.0000       1.334772        36.3210 
 240   0.0000       1.366668        37.1889 
 241   0.0000       1.374852        37.4116 
 242   0.0000       1.391276        37.8585 
 243   0.0000       1.396636        38.0044 
 244   0.0000       1.400984        38.1227 
 245   0.0000       1.418358        38.5955 
 246   0.0000       1.442902        39.2634 
 247   0.0000       1.453619        39.5550 
 248   0.0000       1.462061        39.7847 
 249   0.0000       1.474795        40.1312 
 250   0.0000       1.514270        41.2054 
 251   0.0000       1.520574        41.3769 
 252   0.0000       1.530052        41.6348 
 253   0.0000       1.556059        42.3425 
 254   0.0000       1.584585        43.1187 
 255   0.0000       1.589357        43.2486 
 256   0.0000       1.601151        43.5695 
 257   0.0000       1.633653        44.4540 
 258   0.0000       1.657523        45.1035 
 259   0.0000       1.679505        45.7016 
 260   0.0000       1.695530        46.1377 
 261   0.0000       1.714589        46.6563 
 262   0.0000       1.742959        47.4283 
 263   0.0000       1.749775        47.6138 
 264   0.0000       1.770381        48.1745 
 265   0.0000       1.794180        48.8221 
 266   0.0000       1.802690        49.0537 
 267   0.0000       1.817285        49.4508 
 268   0.0000       1.839445        50.0538 
 269   0.0000       1.860523        50.6274 
 270   0.0000       1.871518        50.9266 
 271   0.0000       1.885578        51.3092 
 272   0.0000       1.890381        51.4399 
 273   0.0000       1.900605        51.7181 
 274   0.0000       1.914152        52.0867 
 275   0.0000       1.920074        52.2479 
 276   0.0000       1.938316        52.7442 
 277   0.0000       1.939789        52.7843 
 278   0.0000       1.964565        53.4585 
 279   0.0000       1.986114        54.0449 
 280   0.0000       1.989545        54.1383 
 281   0.0000       2.003827        54.5269 
 282   0.0000       2.011063        54.7238 
 283   0.0000       2.031043        55.2675 
 284   0.0000       2.053827        55.8875 
 285   0.0000       2.073751        56.4296 
 286   0.0000       2.077480        56.5311 
 287   0.0000       2.082150        56.6582 
 288   0.0000       2.087660        56.8081 
 289   0.0000       2.116160        57.5836 
 290   0.0000       2.133446        58.0540 
 291   0.0000       2.160529        58.7910 
 292   0.0000       2.170546        59.0636 
 293   0.0000       2.172200        59.1086 
 294   0.0000       2.183693        59.4213 
 295   0.0000       2.188943        59.5642 
 296   0.0000       2.208182        60.0877 
 297   0.0000       2.225211        60.5511 
 298   0.0000       2.238208        60.9047 
 299   0.0000       2.239055        60.9278 
 300   0.0000       2.244301        61.0705 
 301   0.0000       2.253406        61.3183 
 302   0.0000       2.263130        61.5829 
 303   0.0000       2.267883        61.7122 
 304   0.0000       2.294332        62.4319 
 305   0.0000       2.303439        62.6798 
 306   0.0000       2.342942        63.7547 
 307   0.0000       2.352868        64.0248 
 308   0.0000       2.361551        64.2611 
 309   0.0000       2.394207        65.1497 
 310   0.0000       2.420318        65.8602 
 311   0.0000       2.437268        66.3214 
[...]
----------------------------------------------------------------------------
  6:     20.70   0.000821    4.15  0.012380  ( 0.016275 -0.109272 -0.013222)
  7:     28.73   0.000736    3.72  0.007989  (-0.035155 -0.072465 -0.038759)
  8:     34.99   0.000490    2.48  0.004373  (-0.032622 -0.055650 -0.014539)
  9:     44.62   0.001169    5.91  0.008172  ( 0.067836  0.057079  0.017677)
 10:     49.80   0.000675    3.41  0.004229  ( 0.044227  0.025127  0.040519)
 11:     69.20   0.000303    1.53  0.001365  (-0.005694 -0.035913 -0.006509)
 12:     84.67   0.000403    2.04  0.001484  ( 0.036812  0.010057  0.005292)
 13:    102.74   0.001745    8.82  0.005300  (-0.019692  0.025714 -0.065200)
 14:    119.99   0.000561    2.83  0.001459  (-0.001273 -0.037248 -0.008344)
 15:    127.50   0.001943    9.82  0.004755  ( 0.037324  0.057910 -0.002852)
 16:    182.42   0.000312    1.57  0.000533  ( 0.016397 -0.002727  0.016019)
 17:    183.80   0.002089   10.56  0.003547  ( 0.044509 -0.000524  0.039565)
 18:    217.14   0.000855    4.32  0.001228  ( 0.030447 -0.009196 -0.014717)
 19:    239.42   0.001633    8.25  0.002128  ( 0.000722 -0.044516 -0.012091)
 20:    247.01   0.000023    0.12  0.000029  ( 0.002538  0.004486 -0.001689)
 21:    260.87   0.000182    0.92  0.000218  ( 0.011177  0.009445  0.001881)
 22:    308.09   0.000116    0.59  0.000118  ( 0.000767  0.008157  0.007101)
 23:    319.45   0.000038    0.19  0.000037  ( 0.004277  0.002496  0.003503)
 24:    327.39   0.001151    5.82  0.001098  ( 0.019201  0.022582  0.014795)
 25:    368.37   0.000241    1.22  0.000204  (-0.012414 -0.002667 -0.006534)
 26:    374.45   0.000138    0.70  0.000115  ( 0.003505  0.008841  0.004982)
 27:    383.08   0.003781   19.11  0.003080  (-0.048233  0.027245 -0.003419)
 28:    403.95   0.000985    4.98  0.000761  (-0.009923  0.025592  0.002685)
 29:    429.33   0.001627    8.22  0.001183  (-0.019197 -0.028474  0.001803)
 30:    460.46   0.000855    4.32  0.000580  (-0.002720  0.009307 -0.022037)
 31:    467.78   0.000448    2.26  0.000299  (-0.010557 -0.013623 -0.001266)
 32:    478.67   0.000250    1.26  0.000163  ( 0.005918  0.004206  0.010490)
 33:    491.18   0.001020    5.15  0.000648  ( 0.022612  0.007540 -0.008934)
 34:    546.68   0.001796    9.08  0.001025  (-0.017646 -0.026264  0.004914)
 35:    578.15   0.000085    0.43  0.000046  ( 0.001328 -0.004993 -0.004411)
 36:    597.72   0.005647   28.54  0.002948  ( 0.046579 -0.027884 -0.001176)
 37:    609.38   0.001326    6.70  0.000679  ( 0.000803  0.001442 -0.026003)
 38:    655.41   0.003487   17.62  0.001660  (-0.000275  0.026311  0.031114)
 39:    767.47   0.000479    2.42  0.000195  (-0.005255  0.011030  0.006752)
 40:    776.99   0.002444   12.35  0.000982  ( 0.005717 -0.021934 -0.021632)
 41:    803.30   0.002372   11.99  0.000921  (-0.002585  0.014384 -0.026606)
 42:    834.70   0.005991   30.27  0.002240  (-0.022754  0.024394  0.033569)
 43:    926.74   0.014249   72.01  0.004798  ( 0.061234  0.028952  0.014499)
 44:    956.79   0.003400   17.18  0.001109  ( 0.012629 -0.019353 -0.023979)
 45:    966.66   0.000615    3.11  0.000198  ( 0.008822  0.010861  0.001634)
 46:    976.70   0.006301   31.84  0.002013  (-0.003986 -0.039420  0.021057)
 47:    992.83   0.002213   11.18  0.000696  ( 0.006062  0.005863  0.024989)
 48:   1004.23   0.006901   34.88  0.002145  ( 0.001069 -0.045876 -0.006233)
 49:   1058.51   0.007050   35.63  0.002078  ( 0.023094 -0.023060 -0.031832)
 50:   1065.46   0.005689   28.75  0.001666  ( 0.034481 -0.021614  0.003208)
 51:   1069.53   0.000376    1.90  0.000110  (-0.003389  0.009076 -0.003992)
 52:   1080.97   0.003097   15.65  0.000894  (-0.000897 -0.002068  0.029816)
 53:   1098.52   0.000003    0.01  0.000001  ( 0.000407 -0.000765 -0.000225)
 54:   1116.82   0.000018    0.09  0.000005  (-0.001075 -0.001482  0.001316)
 55:   1126.76   0.000450    2.27  0.000125  ( 0.000780  0.001045 -0.011085)
 56:   1158.52   0.037499  189.51  0.010101  (-0.087994  0.034462  0.034212)
 57:   1165.88   0.000601    3.04  0.000161  ( 0.011755 -0.004713  0.000677)
 58:   1176.99   0.000281    1.42  0.000074  ( 0.005133  0.003438  0.006017)
 59:   1178.70   0.003020   15.26  0.000799  (-0.027258  0.006702  0.003397)
 60:   1228.33   0.001514    7.65  0.000385  ( 0.018089  0.005321 -0.005403)
 61:   1271.59   0.014508   73.32  0.003560  (-0.024278  0.054377 -0.003746)
 62:   1274.83   0.003489   17.63  0.000854  ( 0.022568 -0.018477 -0.001813)
 63:   1279.85   0.011659   58.92  0.002843  (-0.041914 -0.029986 -0.013675)
 64:   1299.58   0.020628  104.24  0.004953  (-0.011296  0.066914  0.018660)
 65:   1311.16   0.000116    0.59  0.000028  ( 0.004796 -0.002109 -0.000457)
 66:   1350.37   0.004130   20.87  0.000954  ( 0.000604 -0.027012 -0.014982)
 67:   1380.53   0.007993   40.40  0.001807  (-0.034323  0.012024  0.022005)
 68:   1388.34   0.004652   23.51  0.001046  ( 0.027692  0.015191 -0.006933)
 69:   1391.08   0.008200   41.44  0.001839  ( 0.025181 -0.016571 -0.030509)
 70:   1410.72   0.004342   21.94  0.000960  (-0.024957 -0.016246  0.008579)
 71:   1441.73   0.017901   90.47  0.003875  (-0.053635  0.021916  0.022753)
 72:   1447.42   0.003393   17.15  0.000731  (-0.000327  0.021053  0.016975)
 73:   1450.72   0.008280   41.84  0.001781  (-0.034681  0.014672 -0.019056)
 74:   1467.13   0.010929   55.23  0.002325  ( 0.006603 -0.047533 -0.004665)
 75:   1470.90   0.002185   11.04  0.000464  (-0.005086  0.020483  0.004254)
 76:   1473.55   0.023097  116.72  0.004891  (-0.008491  0.068375  0.012003)
 77:   1478.90   0.005940   30.02  0.001253  ( 0.030005  0.007634 -0.017171)
 78:   1485.90   0.005534   27.96  0.001162  ( 0.002539 -0.012219 -0.031724)
 79:   1489.03   0.003021   15.27  0.000633  ( 0.002379  0.024474  0.005332)
 80:   1494.38   0.000107    0.54  0.000022  (-0.001742 -0.004333  0.000764)
 81:   1496.67   0.002061   10.42  0.000430  ( 0.008136 -0.000560  0.019059)
 82:   1497.45   0.000324    1.64  0.000068  ( 0.007320 -0.003634 -0.000852)
 83:   1499.54   0.001349    6.82  0.000281  ( 0.006696 -0.012967  0.008238)
 84:   1499.66   0.001846    9.33  0.000384  ( 0.007789 -0.006125  0.016910)
 85:   1503.30   0.006680   33.76  0.001387  (-0.000080 -0.035570 -0.011019)
 86:   1505.19   0.005359   27.08  0.001111  (-0.005467  0.017748 -0.027681)
 87:   1512.58   0.008769   44.31  0.001809  ( 0.018845  0.037841  0.004692)
 88:   1518.15   0.001737    8.78  0.000357  (-0.004981  0.015438  0.009694)
 89:   1526.79   0.016019   80.95  0.003274  ( 0.054092 -0.003252  0.018375)
 90:   1527.30   0.005823   29.43  0.001190  (-0.000316  0.019044  0.028757)
 91:   1530.93   0.007102   35.89  0.001448  ( 0.022757  0.024658  0.017938)
 92:   1537.98   0.015670   79.19  0.003179  (-0.019998 -0.042215  0.031582)
 93:   1552.04   0.012116   61.23  0.002436  (-0.038859  0.030426 -0.000550)
 94:   1672.84   0.055617  281.06  0.010375  ( 0.074411 -0.063399 -0.028611)
 95:   1684.14   0.219325  1108.38  0.040640  (-0.116306  0.056051  0.154827)
 96:   3041.00   0.007000   35.38  0.000718  (-0.010212  0.007206 -0.023710)
 97:   3045.42   0.018453   93.25  0.001891  (-0.040028 -0.003564  0.016612)
 98:   3060.75   0.000660    3.33  0.000067  (-0.006097 -0.003062  0.004550)
 99:   3094.29   0.003284   16.60  0.000331  (-0.012686  0.005323  0.011913)
100:   3096.99   0.001359    6.87  0.000137  ( 0.006743 -0.003249  0.008996)
101:   3099.23   0.000782    3.95  0.000079  (-0.000237 -0.007621 -0.004542)
102:   3102.45   0.009335   47.17  0.000939  ( 0.000334 -0.030492 -0.003011)
103:   3102.87   0.001781    9.00  0.000179  ( 0.007356 -0.007181 -0.008568)
104:   3108.40   0.003455   17.46  0.000347  (-0.001745  0.017200  0.006928)
105:   3110.40   0.000604    3.05  0.000061  ( 0.001424  0.007018  0.003048)
106:   3116.26   0.004740   23.96  0.000475  ( 0.000122 -0.018036  0.012222)
107:   3123.92   0.001303    6.59  0.000130  (-0.007344  0.000905 -0.008686)
108:   3145.52   0.000716    3.62  0.000071  ( 0.006965  0.004548 -0.001350)
109:   3160.11   0.000395    2.00  0.000039  ( 0.004415  0.001485 -0.004160)
110:   3166.80   0.002242   11.33  0.000221  (-0.005694  0.012719  0.005169)
111:   3177.57   0.001268    6.41  0.000125  ( 0.007505 -0.005698 -0.005980)
112:   3185.89   0.002596   13.12  0.000254  ( 0.014354 -0.001205  0.006843)
113:   3189.47   0.000821    4.15  0.000080  (-0.002380  0.001487 -0.008512)
114:   3193.03   0.000025    0.13  0.000002  ( 0.000123  0.001346  0.000769)
115:   3193.39   0.000147    0.74  0.000014  ( 0.003076 -0.000600 -0.002121)
116:   3198.67   0.000623    3.15  0.000061  (-0.001353  0.007678  0.000008)
117:   3199.43   0.001050    5.31  0.000102  (-0.007291 -0.002494  0.006563)
118:   3201.28   0.000630    3.18  0.000061  ( 0.006012  0.004245  0.002693)
119:   3211.49   0.000658    3.32  0.000064  (-0.004843 -0.000216 -0.006356)

* The epsilon (eps) is given for a Dirac delta lineshape.
** The dipole moment derivative (T) already includes vibrational overlap.

The first frequency considered to be a vibration is 6
The total number of vibrations considered is 114


--------------------------
THERMOCHEMISTRY AT 298.15K
--------------------------

Temperature         ... 298.15 K
Pressure            ... 1.00 atm
Total Mass          ... 230.33 AMU

Throughout the following assumptions are being made:
  (1) The electronic state is orbitally nondegenerate
  (2) There are no thermally accessible electronically excited states
  (3) Hindered rotations indicated by low frequency modes are not
      treated as such but are treated as vibrations and this may
      cause some error
  (4) All equations used are the standard statistical mechanics
      equations for an ideal gas
  (5) All vibrations are strictly harmonic

freq.      20.70  E(vib)   ...       0.56 
freq.      28.73  E(vib)   ...       0.55 
freq.      34.99  E(vib)   ...       0.54 
freq.      44.62  E(vib)   ...       0.53 
freq.      49.80  E(vib)   ...       0.52 
freq.      69.20  E(vib)   ...       0.50 
freq.      84.67  E(vib)   ...       0.48 
freq.     102.74  E(vib)   ...       0.46 
freq.     119.99  E(vib)   ...       0.44 
freq.     127.50  E(vib)   ...       0.43 
freq.     182.42  E(vib)   ...       0.37 
freq.     183.80  E(vib)   ...       0.37 
freq.     217.14  E(vib)   ...       0.34 
freq.     239.42  E(vib)   ...       0.31 
freq.     247.01  E(vib)   ...       0.31 
freq.     260.87  E(vib)   ...       0.30 
freq.     308.09  E(vib)   ...       0.26 
freq.     319.45  E(vib)   ...       0.25 
freq.     327.39  E(vib)   ...       0.24 
freq.     368.37  E(vib)   ...       0.21 
freq.     374.45  E(vib)   ...       0.21 
freq.     383.08  E(vib)   ...       0.20 
freq.     403.95  E(vib)   ...       0.19 
freq.     429.33  E(vib)   ...       0.18 
freq.     460.46  E(vib)   ...       0.16 
freq.     467.78  E(vib)   ...       0.16 
freq.     478.67  E(vib)   ...       0.15 
freq.     491.18  E(vib)   ...       0.14 
freq.     546.68  E(vib)   ...       0.12 
freq.     578.15  E(vib)   ...       0.11 
freq.     597.72  E(vib)   ...       0.10 
freq.     609.38  E(vib)   ...       0.10 
freq.     655.41  E(vib)   ...       0.08 
freq.     767.47  E(vib)   ...       0.06 
freq.     776.99  E(vib)   ...       0.05 
freq.     803.30  E(vib)   ...       0.05 
freq.     834.70  E(vib)   ...       0.04 
freq.     926.74  E(vib)   ...       0.03 
freq.     956.79  E(vib)   ...       0.03 
freq.     966.66  E(vib)   ...       0.03 
freq.     976.70  E(vib)   ...       0.03 
freq.     992.83  E(vib)   ...       0.02 
freq.    1004.23  E(vib)   ...       0.02 
freq.    1058.51  E(vib)   ...       0.02 
freq.    1065.46  E(vib)   ...       0.02 
freq.    1069.53  E(vib)   ...       0.02 
freq.    1080.97  E(vib)   ...       0.02 
freq.    1098.52  E(vib)   ...       0.02 
freq.    1116.82  E(vib)   ...       0.01 
freq.    1126.76  E(vib)   ...       0.01 
freq.    1158.52  E(vib)   ...       0.01 
freq.    1165.88  E(vib)   ...       0.01 
freq.    1176.99  E(vib)   ...       0.01 
freq.    1178.70  E(vib)   ...       0.01 
freq.    1228.33  E(vib)   ...       0.01 
freq.    1271.59  E(vib)   ...       0.01 
freq.    1274.83  E(vib)   ...       0.01 
freq.    1279.85  E(vib)   ...       0.01 
freq.    1299.58  E(vib)   ...       0.01 
freq.    1311.16  E(vib)   ...       0.01 
freq.    1350.37  E(vib)   ...       0.01 
freq.    1380.53  E(vib)   ...       0.01 
freq.    1388.34  E(vib)   ...       0.00 
freq.    1391.08  E(vib)   ...       0.00 
freq.    1410.72  E(vib)   ...       0.00 
freq.    1441.73  E(vib)   ...       0.00 
freq.    1447.42  E(vib)   ...       0.00 
freq.    1450.72  E(vib)   ...       0.00 
freq.    1467.13  E(vib)   ...       0.00 
freq.    1470.90  E(vib)   ...       0.00 
freq.    1473.55  E(vib)   ...       0.00 
freq.    1478.90  E(vib)   ...       0.00 
freq.    1485.90  E(vib)   ...       0.00 
freq.    1489.03  E(vib)   ...       0.00 
freq.    1494.38  E(vib)   ...       0.00 
freq.    1496.67  E(vib)   ...       0.00 
freq.    1497.45  E(vib)   ...       0.00 
freq.    1499.54  E(vib)   ...       0.00 
freq.    1499.66  E(vib)   ...       0.00 
freq.    1503.30  E(vib)   ...       0.00 
freq.    1505.19  E(vib)   ...       0.00 
freq.    1512.58  E(vib)   ...       0.00 
freq.    1518.15  E(vib)   ...       0.00 
freq.    1526.79  E(vib)   ...       0.00 
freq.    1527.30  E(vib)   ...       0.00 
freq.    1530.93  E(vib)   ...       0.00 
freq.    1537.98  E(vib)   ...       0.00 
freq.    1552.04  E(vib)   ...       0.00 
freq.    1672.84  E(vib)   ...       0.00 
freq.    1684.14  E(vib)   ...       0.00 
freq.    3041.00  E(vib)   ...       0.00 
freq.    3045.42  E(vib)   ...       0.00 
freq.    3060.75  E(vib)   ...       0.00 
freq.    3094.29  E(vib)   ...       0.00 
freq.    3096.99  E(vib)   ...       0.00 
freq.    3099.23  E(vib)   ...       0.00 
freq.    3102.45  E(vib)   ...       0.00 
freq.    3102.87  E(vib)   ...       0.00 
freq.    3108.40  E(vib)   ...       0.00 
freq.    3110.40  E(vib)   ...       0.00 
freq.    3116.26  E(vib)   ...       0.00 
freq.    3123.92  E(vib)   ...       0.00 
freq.    3145.52  E(vib)   ...       0.00 
freq.    3160.11  E(vib)   ...       0.00 
freq.    3166.80  E(vib)   ...       0.00 
freq.    3177.57  E(vib)   ...       0.00 
freq.    3185.89  E(vib)   ...       0.00 
freq.    3189.47  E(vib)   ...       0.00 
freq.    3193.03  E(vib)   ...       0.00 
freq.    3193.39  E(vib)   ...       0.00 
freq.    3198.67  E(vib)   ...       0.00 
freq.    3199.43  E(vib)   ...       0.00 
freq.    3201.28  E(vib)   ...       0.00 
freq.    3211.49  E(vib)   ...       0.00 

------------
INNER ENERGY
------------

The inner energy is: U= E(el) + E(ZPE) + E(vib) + E(rot) + E(trans)
    E(el)   - is the total energy from the electronic structure calculation
              = E(kin-el) + E(nuc-el) + E(el-el) + E(nuc-nuc)
    E(ZPE)  - the the zero temperature vibrational energy from the frequency calculation
    E(vib)  - the the finite temperature correction to E(ZPE) due to population
              of excited vibrational states
    E(rot)  - is the rotational thermal energy
    E(trans)- is the translational thermal energy

Summary of contributions to the inner energy U:
Electronic energy                ...   -747.81503116 Eh
Zero point energy                ...      0.36175353 Eh     227.00 kcal/mol
Thermal vibrational correction   ...      0.01680297 Eh      10.54 kcal/mol
Thermal rotational correction    ...      0.00141627 Eh       0.89 kcal/mol
Thermal translational correction ...      0.00141627 Eh       0.89 kcal/mol
-----------------------------------------------------------------------
Total thermal energy                   -747.43364212 Eh


Summary of corrections to the electronic energy:
(perhaps to be used in another calculation)
Total thermal correction                  0.01963551 Eh      12.32 kcal/mol
Non-thermal (ZPE) correction              0.36175353 Eh     227.00 kcal/mol
-----------------------------------------------------------------------
Total correction                          0.38138904 Eh     239.32 kcal/mol


--------
ENTHALPY
--------

The enthalpy is H = U + kB*T
                kB is Boltzmann's constant
Total free energy                 ...   -747.43364212 Eh 
Thermal Enthalpy correction       ...      0.00094421 Eh       0.59 kcal/mol
-----------------------------------------------------------------------
Total Enthalpy                    ...   -747.43269791 Eh


Note: Only C1 symmetry has been detected, increase convergence thresholds 
      if your molecule has a higher symmetry. Symmetry factor of 1.0 is   
      used for the rotational entropy correction. 
 

Note: Rotational entropy computed according to Herzberg 
Infrared and Raman Spectra, Chapter V,1, Van Nostrand Reinhold, 1945 
Point Group:  C1, Symmetry Number:   1  
Rotational constants in cm-1:     0.025740     0.008652     0.007437 

Vibrational entropy computed according to the QRRHO of S. Grimme
Chem.Eur.J. 2012 18 9955


-------
ENTROPY
-------

The entropy contributions are T*S = T*(S(el)+S(vib)+S(rot)+S(trans))
     S(el)   - electronic entropy
     S(vib)  - vibrational entropy
     S(rot)  - rotational entropy
     S(trans)- translational entropy
The entropies will be listed as multiplied by the temperature to get
units of energy

Electronic entropy                ...      0.00000000 Eh      0.00 kcal/mol
Vibrational entropy               ...      0.03045793 Eh     19.11 kcal/mol
Rotational entropy                ...      0.01579480 Eh      9.91 kcal/mol
Translational entropy             ...      0.02005291 Eh     12.58 kcal/mol
-----------------------------------------------------------------------
Final entropy term                ...      0.06630564 Eh     41.61 kcal/mol

In case the symmetry of your molecule has not been determined correctly
or in case you have a reason to use a different symmetry number we print 
out the resulting rotational entropy values for sn=1,12 :
 --------------------------------------------------------
|  sn= 1 | S(rot)=       0.01579480 Eh      9.91 kcal/mol|
|  sn= 2 | S(rot)=       0.01514035 Eh      9.50 kcal/mol|
|  sn= 3 | S(rot)=       0.01475751 Eh      9.26 kcal/mol|
|  sn= 4 | S(rot)=       0.01448589 Eh      9.09 kcal/mol|
|  sn= 5 | S(rot)=       0.01427520 Eh      8.96 kcal/mol|
|  sn= 6 | S(rot)=       0.01410306 Eh      8.85 kcal/mol|
|  sn= 7 | S(rot)=       0.01395751 Eh      8.76 kcal/mol|
|  sn= 8 | S(rot)=       0.01383143 Eh      8.68 kcal/mol|
|  sn= 9 | S(rot)=       0.01372022 Eh      8.61 kcal/mol|
|  sn=10 | S(rot)=       0.01362075 Eh      8.55 kcal/mol|
|  sn=11 | S(rot)=       0.01353076 Eh      8.49 kcal/mol|
|  sn=12 | S(rot)=       0.01344860 Eh      8.44 kcal/mol|
 --------------------------------------------------------


-------------------
GIBBS FREE ENERGY
-------------------

The Gibbs free energy is G = H - T*S

Total enthalpy                    ...   -747.43269791 Eh 
Total entropy correction          ...     -0.06630564 Eh    -41.61 kcal/mol
-----------------------------------------------------------------------
Final Gibbs free energy         ...   -747.49900355 Eh

For completeness - the Gibbs free energy minus the electronic energy
G-E(el)                           ...      0.31602761 Eh    198.31 kcal/mol


Timings for individual modules:

Sum of individual times         ...     4163.795 sec (=  69.397 min)
GTO integral calculation        ...       31.302 sec (=   0.522 min)   0.8 %
SCF iterations                  ...     2105.943 sec (=  35.099 min)  50.6 %
SCF Gradient evaluation         ...      583.985 sec (=   9.733 min)  14.0 %
Geometry relaxation             ...        1.770 sec (=   0.029 min)   0.0 %
Analytical frequency calculation...     1440.795 sec (=  24.013 min)  34.6 %
                             ****ORCA TERMINATED NORMALLY****
TOTAL RUN TIME: 0 days 1 hours 9 minutes 31 seconds 172 msec
