
                                 *****************
                                 * O   R   C   A *
                                 *****************

                                            #,                                       
                                            ###                                      
                                            ####                                     
                                            #####                                    
                                            ######                                   
                                           ########,                                 
                                     ,,################,,,,,                         
                               ,,#################################,,                 
                          ,,##########################################,,             
                       ,#########################################, ''#####,          
                    ,#############################################,,   '####,        
                  ,##################################################,,,,####,       
                ,###########''''           ''''###############################       
              ,#####''   ,,,,##########,,,,          '''####'''          '####       
            ,##' ,,,,###########################,,,                        '##       
           ' ,,###''''                  '''############,,,                           
         ,,##''                                '''############,,,,        ,,,,,,###''
      ,#''                                            '''#######################'''  
     '                                                          ''''####''''         
             ,#######,   #######,   ,#######,      ##                                
            ,#'     '#,  ##    ##  ,#'     '#,    #''#        ######   ,####,        
            ##       ##  ##   ,#'  ##            #'  '#       #        #'  '#        
            ##       ##  #######   ##           ,######,      #####,   #    #        
            '#,     ,#'  ##    ##  '#,     ,#' ,#      #,         ##   #,  ,#        
             '#######'   ##     ##  '#######'  #'      '#     #####' # '####'        



                  #######################################################
                  #                        -***-                        #
                  #          Department of theory and spectroscopy      #
                  #    Directorship and core code : Frank Neese         #
                  #        Max Planck Institute fuer Kohlenforschung    #
                  #                Kaiser Wilhelm Platz 1               #
                  #                 D-45470 Muelheim/Ruhr               #
                  #                      Germany                        #
                  #                                                     #
                  #                  All rights reserved                #
                  #                        -***-                        #
                  #######################################################


                         Program Version 5.0.4 -  RELEASE  -


 With contributions from (in alphabetic order):
   Daniel Aravena         : Magnetic Suceptibility
   Michael Atanasov       : Ab Initio Ligand Field Theory (pilot matlab implementation)
   Alexander A. Auer      : GIAO ZORA, VPT2 properties, NMR spectrum
   Ute Becker             : Parallelization
   Giovanni Bistoni       : ED, misc. LED, open-shell LED, HFLD
   Martin Brehm           : Molecular dynamics
   Dmytro Bykov           : SCF Hessian
   Vijay G. Chilkuri      : MRCI spin determinant printing, contributions to CSF-ICE
   Dipayan Datta          : RHF DLPNO-CCSD density
   Achintya Kumar Dutta   : EOM-CC, STEOM-CC
   Dmitry Ganyushin       : Spin-Orbit,Spin-Spin,Magnetic field MRCI
   Miquel Garcia          : C-PCM and meta-GGA Hessian, CC/C-PCM, Gaussian charge scheme
   Yang Guo               : DLPNO-NEVPT2, F12-NEVPT2, CIM, IAO-localization
   Andreas Hansen         : Spin unrestricted coupled pair/coupled cluster methods
   Benjamin Helmich-Paris : MC-RPA, TRAH-SCF, COSX integrals
   Lee Huntington         : MR-EOM, pCC
   Robert Izsak           : Overlap fitted RIJCOSX, COSX-SCS-MP3, EOM
   Marcus Kettner         : VPT2
   Christian Kollmar      : KDIIS, OOCD, Brueckner-CCSD(T), CCSD density, CASPT2, CASPT2-K
   Simone Kossmann        : Meta GGA functionals, TD-DFT gradient, OOMP2, MP2 Hessian
   Martin Krupicka        : Initial AUTO-CI
   Lucas Lang             : DCDCAS
   Marvin Lechner         : AUTO-CI (C++ implementation), FIC-MRCC
   Dagmar Lenk            : GEPOL surface, SMD
   Dimitrios Liakos       : Extrapolation schemes; Compound Job, initial MDCI parallelization
   Dimitrios Manganas     : Further ROCIS development; embedding schemes
   Dimitrios Pantazis     : SARC Basis sets
   Anastasios Papadopoulos: AUTO-CI, single reference methods and gradients
   Taras Petrenko         : DFT Hessian,TD-DFT gradient, ASA, ECA, R-Raman, ABS, FL, XAS/XES, NRVS
   Peter Pinski           : DLPNO-MP2, DLPNO-MP2 Gradient
   Christoph Reimann      : Effective Core Potentials
   Marius Retegan         : Local ZFS, SOC
   Christoph Riplinger    : Optimizer, TS searches, QM/MM, DLPNO-CCSD(T), (RO)-DLPNO pert. Triples
   Tobias Risthaus        : Range-separated hybrids, TD-DFT gradient, RPA, STAB
   Michael Roemelt        : Original ROCIS implementation
   Masaaki Saitow         : Open-shell DLPNO-CCSD energy and density
   Barbara Sandhoefer     : DKH picture change effects
   Avijit Sen             : IP-ROCIS
   Kantharuban Sivalingam : CASSCF convergence, NEVPT2, FIC-MRCI
   Bernardo de Souza      : ESD, SOC TD-DFT
   Georgi Stoychev        : AutoAux, RI-MP2 NMR, DLPNO-MP2 response
   Willem Van den Heuvel  : Paramagnetic NMR
   Boris Wezisla          : Elementary symmetry handling
   Frank Wennmohs         : Technical directorship


 We gratefully acknowledge several colleagues who have allowed us to
 interface, adapt or use parts of their codes:
   Stefan Grimme, W. Hujo, H. Kruse, P. Pracht,  : VdW corrections, initial TS optimization,
                  C. Bannwarth, S. Ehlert          DFT functionals, gCP, sTDA/sTD-DF
   Ed Valeev, F. Pavosevic, A. Kumar             : LibInt (2-el integral package), F12 methods
   Garnet Chan, S. Sharma, J. Yang, R. Olivares  : DMRG
   Ulf Ekstrom                                   : XCFun DFT Library
   Mihaly Kallay                                 : mrcc  (arbitrary order and MRCC methods)
   Jiri Pittner, Ondrej Demel                    : Mk-CCSD
   Frank Weinhold                                : gennbo (NPA and NBO analysis)
   Christopher J. Cramer and Donald G. Truhlar   : smd solvation model
   Lars Goerigk                                  : TD-DFT with DH, B97 family of functionals
   V. Asgeirsson, H. Jonsson                     : NEB implementation
   FAccTs GmbH                                   : IRC, NEB, NEB-TS, DLPNO-Multilevel, CI-OPT
                                                   MM, QMMM, 2- and 3-layer-ONIOM, Crystal-QMMM,
                                                   LR-CPCM, SF, NACMEs, symmetry and pop. for TD-DFT,
                                                   nearIR, NL-DFT gradient (VV10), updates on ESD,
                                                   ML-optimized integration grids
   S Lehtola, MJT Oliveira, MAL Marques          : LibXC Library
   Liviu Ungur et al                             : ANISO software


 Your calculation uses the libint2 library for the computation of 2-el integrals
 For citations please refer to: http://libint.valeyev.net

 Your ORCA version has been built with support for libXC version: 5.1.0
 For citations please refer to: https://tddft.org/programs/libxc/

 This ORCA versions uses:
   CBLAS   interface :  Fast vector & matrix operations
   LAPACKE interface :  Fast linear algebra routines
   SCALAPACK package :  Parallel linear algebra routines
   Shared memory     :  Shared parallel matrices
   BLAS/LAPACK       :  OpenBLAS 0.3.15  USE64BITINT DYNAMIC_ARCH NO_AFFINITY SkylakeX SINGLE_THREADED
        Core in use  :  SkylakeX
   Copyright (c) 2011-2014, The OpenBLAS Project




***************************************
The coordinates will be read from file: /users/fjb15167/WWenergy/structures/NfeCl.xyz
***************************************


Your calculation utilizes the atom-pairwise dispersion correction
based on tight binding partial charges (D4)
Cite in your paper:
E.Caldeweyher, C.Bannwarth, S.Grimme, J.Chem.Phys., (2017), 147, 034112.
E.Caldeweyher, S.Ehlert, A.Hansen, H.Neugebauer, S.Grimme, J.Chem.Phys., (2018), in progress.
   

================================================================================

----- Orbital basis set information -----
Your calculation utilizes the basis: 6-31G(d)
   H-He, Li-Ne : W. J. Hehre, R. Ditchfield and J.A. Pople, J. Chem. Phys. 56, 2257 (1972).
                 Note: He and Ne are unpublished basis sets taken from the Gaussian program.
                 Note: Li and B from J. D. Dill and J. A. Pople, J. Chem. Phys. 62, 2921 (1975).
   Na - Ar     : M. M. Francl, W. J. Pietro, W. J. Hehre, J. S. Binkley, M. S. Gordon, 
                 D. J. DeFrees and J. A. Pople, J. Chem. Phys. 77, 3654 (1982).
   K - Zn      : V. A. Rassolov, J. A. Pople, M. A. Ratner, and T. L. Windus, J. Chem. Phys. 109, 1223 (1998).

----- AuxJ basis set information -----
Your calculation utilizes the AutoAux generation procedure.
  G. L. Stoychev, A. A. Auer, F. Neese, J. Chem. Theory Comput. 13, 554 (2017)

----- AuxC basis set information -----
Your calculation utilizes the AutoAux generation procedure.
  G. L. Stoychev, A. A. Auer, F. Neese, J. Chem. Theory Comput. 13, 554 (2017)

----- AuxJK basis set information -----
Your calculation utilizes the AutoAux generation procedure.
  G. L. Stoychev, A. A. Auer, F. Neese, J. Chem. Theory Comput. 13, 554 (2017)

================================================================================
                                        WARNINGS
                       Please study these warnings very carefully!
================================================================================


WARNING: Geometry Optimization
  ===> : Switching off AutoStart
         For restart on a previous wavefunction, please use MOREAD

INFO   : the flag for use of the SHARK integral package has been found!

================================================================================
                                       INPUT FILE
================================================================================
NAME = NfeCl_water.inp
|  1> ! OPT FREQ B3LYP 6-31G(d) D4 AUTOAUX CPCM(water)
|  2> 
|  3> %PAL NPROCS 4 END
|  4> 
|  5> %maxcore 3375
|  6> 
|  7> *xyzfile 0 1 /users/fjb15167/WWenergy/structures/NfeCl.xyz
|  8> 
|  9>                          ****END OF INPUT****
================================================================================

                       *****************************
                       * Geometry Optimization Run *
                       *****************************

Geometry optimization settings:
Update method            Update   .... BFGS
Choice of coordinates    CoordSys .... Z-matrix Internals
Initial Hessian          InHess   .... Almoef's Model

Convergence Tolerances:
Energy Change            TolE     ....  5.0000e-06 Eh
Max. Gradient            TolMAXG  ....  3.0000e-04 Eh/bohr
RMS Gradient             TolRMSG  ....  1.0000e-04 Eh/bohr
Max. Displacement        TolMAXD  ....  4.0000e-03 bohr
RMS Displacement         TolRMSD  ....  2.0000e-03 bohr
Strict Convergence                ....  False
------------------------------------------------------------------------------
                        ORCA OPTIMIZATION COORDINATE SETUP
------------------------------------------------------------------------------

The optimization will be done in new redundant internal coordinates
Making redundant internal coordinates   ...  (new redundants) done
Evaluating the initial hessian          ...  (Almloef) done
Evaluating the coordinates              ...  done
Calculating the B-matrix                .... done
Calculating the G-matrix                .... done
Diagonalizing the G-matrix              .... done
Small eigenvalue found = 2.705e-03
Small eigenvalue found = 4.837e-03
Small eigenvalue found = 6.976e-03
Small eigenvalue found = 1.144e-02
Small eigenvalue found = 2.011e-02
Small eigenvalue found = 2.174e-02
Small eigenvalue found = 2.816e-02
The first mode is                       ....   79
The number of degrees of freedom        ....  108

    -----------------------------------------------------------------
                    Redundant Internal Coordinates


    -----------------------------------------------------------------
         Definition                    Initial Value    Approx d2E/dq
    -----------------------------------------------------------------
      1. B(H   1,C   0)                  1.0929         0.356236   
      2. B(H   2,C   0)                  1.0943         0.354463   
      3. B(H   3,C   0)                  1.0894         0.360887   
      4. B(C   4,C   0)                  1.5158         0.393545   
      5. B(O   5,C   4)                  1.2388         0.975396   
      6. B(N   6,C   4)                  1.3734         0.594794   
      7. B(C   7,N   6)                  1.4605         0.431970   
      8. B(H   8,C   7)                  1.0954         0.353079   
      9. B(H   9,C   7)                  1.0896         0.360642   
     10. B(C  10,N   6)                  1.4619         0.429661   
     11. B(H  11,C  10)                  1.0944         0.354375   
     12. B(H  12,C  10)                  1.0945         0.354192   
     13. B(C  13,C  10)                  1.5379         0.362912   
     14. B(H  14,C  13)                  1.0942         0.354553   
     15. B(H  15,C  13)                  1.0960         0.352208   
     16. B(C  16,C  13)                  1.5041         0.410878   
     17. B(C  17,C  16)                  1.4040         0.593464   
     18. B(C  18,C  16)                  1.3993         0.603914   
     19. B(C  19,C  17)                  1.3945         0.614460   
     20. B(H  20,C  17)                  1.0890         0.361457   
     21. B(C  21,C  18)                  1.3965         0.609963   
     22. B(H  22,C  18)                  1.0889         0.361585   
     23. B(C  23,C  21)                  1.3937         0.616341   
     24. B(C  23,C  19)                  1.3960         0.611180   
     25. B(H  24,C  19)                  1.0864         0.364875   
     26. B(H  25,C  21)                  1.0858         0.365748   
     27. B(C  26,C   7)                  1.5253         0.380059   
     28. B(N  27,C  26)                  1.3625         0.619140   
     29. B(O  28,C  26)                  1.2422         0.963236   
     30. B(C  29,N  27)                  1.4559         0.439208   
     31. B(H  30,C  29)                  1.0972         0.350721   
     32. B(H  31,C  29)                  1.0950         0.353496   
     33. B(H  32,C  29)                  1.0881         0.362637   
     34. B(C  33,N  27)                  1.4558         0.439480   
     35. B(H  34,C  33)                  1.0970         0.351003   
     36. B(H  35,C  33)                  1.0882         0.362485   
     37. B(H  36,C  33)                  1.0938         0.355152   
     38. B(Cl 37,C  23)                  1.7597         0.360472   
     39. A(H   2,C   0,C   4)          110.8084         0.326260   
     40. A(H   1,C   0,H   3)          109.4527         0.290447   
     41. A(H   2,C   0,H   3)          108.9701         0.290219   
     42. A(H   1,C   0,H   2)          108.0242         0.289629   
     43. A(H   3,C   0,C   4)          107.1341         0.327227   
     44. A(H   1,C   0,C   4)          112.4035         0.326528   
     45. A(C   0,C   4,O   5)          121.0700         0.431118   
     46. A(C   0,C   4,N   6)          116.9358         0.394883   
     47. A(O   5,C   4,N   6)          121.9874         0.461552   
     48. A(C   7,N   6,C  10)          115.9766         0.376844   
     49. A(C   4,N   6,C  10)          124.8108         0.398455   
     50. A(C   4,N   6,C   7)          119.1338         0.398831   
     51. A(N   6,C   7,H   9)          107.9302         0.330264   
     52. A(H   8,C   7,H   9)          108.9831         0.290010   
     53. A(N   6,C   7,C  26)          111.0273         0.371284   
     54. A(H   8,C   7,C  26)          105.4203         0.324187   
     55. A(N   6,C   7,H   8)          109.5575         0.329109   
     56. A(H   9,C   7,C  26)          113.8495         0.325317   
     57. A(H  12,C  10,C  13)          108.8273         0.321908   
     58. A(H  11,C  10,C  13)          110.0092         0.321935   
     59. A(N   6,C  10,C  13)          113.5596         0.368012   
     60. A(H  11,C  10,H  12)          107.1128         0.289357   
     61. A(N   6,C  10,H  12)          106.8661         0.328989   
     62. A(N   6,C  10,H  11)          110.2095         0.329017   
     63. A(H  15,C  13,C  16)          110.4754         0.328240   
     64. A(H  14,C  13,C  16)          109.7973         0.328600   
     65. A(C  10,C  13,C  16)          110.4780         0.367494   
     66. A(H  14,C  13,H  15)          107.1137         0.289125   
     67. A(C  10,C  13,H  15)          109.9523         0.321612   
     68. A(C  10,C  13,H  14)          108.9514         0.321962   
     69. A(C  17,C  16,C  18)          118.8912         0.428640   
     70. A(C  13,C  16,C  17)          119.3554         0.400287   
     71. A(C  13,C  16,C  18)          121.6793         0.401519   
     72. A(C  16,C  17,C  19)          120.7859         0.429973   
     73. A(C  19,C  17,H  20)          119.9007         0.352598   
     74. A(C  16,C  17,H  20)          119.3124         0.350532   
     75. A(C  21,C  18,H  22)          119.1482         0.352181   
     76. A(C  16,C  18,H  22)          119.7498         0.351588   
     77. A(C  16,C  18,C  21)          121.0943         0.430754   
     78. A(C  23,C  19,H  24)          120.1891         0.352840   
     79. A(C  17,C  19,H  24)          120.7877         0.353160   
     80. A(C  17,C  19,C  23)          119.0230         0.432251   
     81. A(C  23,C  21,H  25)          120.2559         0.353486   
     82. A(C  18,C  21,H  25)          120.9547         0.352864   
     83. A(C  18,C  21,C  23)          118.7894         0.432333   
     84. A(C  19,C  23,C  21)          121.4104         0.432488   
     85. A(C  21,C  23,Cl 37)          119.2418         0.411381   
     86. A(C  19,C  23,Cl 37)          119.3472         0.410768   
     87. A(N  27,C  26,O  28)          122.7353         0.463884   
     88. A(C   7,C  26,O  28)          119.1178         0.427466   
     89. A(C   7,C  26,N  27)          118.1196         0.395247   
     90. A(C  29,N  27,C  33)          115.4010         0.379410   
     91. A(C  26,N  27,C  33)          118.3289         0.402879   
     92. A(C  26,N  27,C  29)          125.3210         0.402835   
     93. A(H  31,C  29,H  32)          108.9099         0.290315   
     94. A(H  30,C  29,H  32)          108.4492         0.289957   
     95. A(N  27,C  29,H  32)          111.9514         0.331476   
     96. A(H  30,C  29,H  31)          108.2290         0.288799   
     97. A(N  27,C  29,H  31)          109.1334         0.330079   
     98. A(N  27,C  29,H  30)          110.0876         0.329649   
     99. A(H  34,C  33,H  36)          108.6572         0.289046   
    100. A(N  27,C  33,H  36)          109.1897         0.330368   
    101. A(H  34,C  33,H  35)          109.3816         0.289974   
    102. A(N  27,C  33,H  35)          108.6519         0.331487   
    103. A(N  27,C  33,H  34)          110.8117         0.329726   
    104. A(H  35,C  33,H  36)          110.1436         0.290509   
    105. D(N   6,C   4,C   0,H   2)    -67.6275         0.011512   
    106. D(O   5,C   4,C   0,H   1)   -127.5771         0.011512   
    107. D(N   6,C   4,C   0,H   1)     53.3498         0.011512   
    108. D(O   5,C   4,C   0,H   2)    111.4457         0.011512   
    109. D(O   5,C   4,C   0,H   3)     -7.3097         0.011512   
    110. D(N   6,C   4,C   0,H   3)    173.6172         0.011512   
    111. D(C   7,N   6,C   4,O   5)     -5.4228         0.028472   
    112. D(C  10,N   6,C   4,C   0)     -2.9940         0.028472   
    113. D(C  10,N   6,C   4,O   5)    177.9420         0.028472   
    114. D(C   7,N   6,C   4,C   0)    173.6412         0.028472   
    115. D(C  26,C   7,N   6,C   4)    126.7246         0.015909   
    116. D(H   8,C   7,N   6,C   4)   -117.2436         0.015909   
    117. D(H   9,C   7,N   6,C  10)    178.2237         0.015909   
    118. D(H   8,C   7,N   6,C  10)     59.6835         0.015909   
    119. D(H   9,C   7,N   6,C   4)      1.2966         0.015909   
    120. D(C  26,C   7,N   6,C  10)    -56.3483         0.015909   
    121. D(C  13,C  10,N   6,C   7)     95.2003         0.015739   
    122. D(C  13,C  10,N   6,C   4)    -88.0691         0.015739   
    123. D(H  12,C  10,N   6,C   7)    -24.8055         0.015739   
    124. D(H  11,C  10,N   6,C   7)   -140.8620         0.015739   
    125. D(H  11,C  10,N   6,C   4)     35.8687         0.015739   
    126. D(H  12,C  10,N   6,C   4)    151.9252         0.015739   
    127. D(C  16,C  13,C  10,N   6)   -165.9890         0.010555   
    128. D(C  16,C  13,C  10,H  11)     69.9645         0.010555   
    129. D(H  15,C  13,C  10,H  12)   -169.2976         0.010555   
    130. D(H  15,C  13,C  10,H  11)    -52.2314         0.010555   
    131. D(H  15,C  13,C  10,N   6)     71.8151         0.010555   
    132. D(H  14,C  13,C  10,H  12)     73.5951         0.010555   
    133. D(H  14,C  13,C  10,H  11)   -169.3387         0.010555   
    134. D(C  16,C  13,C  10,H  12)    -47.1017         0.010555   
    135. D(H  14,C  13,C  10,N   6)    -45.2921         0.010555   
    136. D(C  18,C  16,C  13,H  15)     22.8222         0.012501   
    137. D(C  18,C  16,C  13,H  14)    140.7433         0.012501   
    138. D(C  18,C  16,C  13,C  10)    -99.0660         0.012501   
    139. D(C  17,C  16,C  13,H  15)   -160.3447         0.012501   
    140. D(C  17,C  16,C  13,H  14)    -42.4236         0.012501   
    141. D(C  17,C  16,C  13,C  10)     77.7671         0.012501   
    142. D(H  20,C  17,C  16,C  18)    179.5171         0.024252   
    143. D(H  20,C  17,C  16,C  13)      2.5951         0.024252   
    144. D(C  19,C  17,C  16,C  18)     -0.8418         0.024252   
    145. D(C  19,C  17,C  16,C  13)   -177.7638         0.024252   
    146. D(H  22,C  18,C  16,C  17)    179.8343         0.025160   
    147. D(H  22,C  18,C  16,C  13)     -3.3183         0.025160   
    148. D(C  21,C  18,C  16,C  17)      0.8543         0.025160   
    149. D(C  21,C  18,C  16,C  13)    177.7017         0.025160   
    150. D(H  24,C  19,C  17,H  20)      0.0364         0.026098   
    151. D(H  24,C  19,C  17,C  16)   -179.6026         0.026098   
    152. D(C  23,C  19,C  17,H  20)   -179.8249         0.026098   
    153. D(C  23,C  19,C  17,C  16)      0.5361         0.026098   
    154. D(H  25,C  21,C  18,H  22)      0.5160         0.025696   
    155. D(H  25,C  21,C  18,C  16)    179.5021         0.025696   
    156. D(C  23,C  21,C  18,H  22)   -179.5442         0.025696   
    157. D(C  23,C  21,C  18,C  16)     -0.5581         0.025696   
    158. D(Cl 37,C  23,C  21,H  25)     -0.1064         0.026268   
    159. D(Cl 37,C  23,C  21,C  18)    179.9533         0.026268   
    160. D(C  19,C  23,C  21,H  25)   -179.8182         0.026268   
    161. D(C  19,C  23,C  21,C  18)      0.2415         0.026268   
    162. D(Cl 37,C  23,C  19,H  24)      0.1938         0.025804   
    163. D(Cl 37,C  23,C  19,C  17)   -179.9441         0.025804   
    164. D(C  21,C  23,C  19,H  24)    179.9053         0.025804   
    165. D(C  21,C  23,C  19,C  17)     -0.2326         0.025804   
    166. D(N  27,C  26,C   7,H   8)    162.1720         0.010778   
    167. D(N  27,C  26,C   7,N   6)    -79.2693         0.010778   
    168. D(O  28,C  26,C   7,H   9)   -139.0723         0.010778   
    169. D(O  28,C  26,C   7,H   8)    -19.6739         0.010778   
    170. D(O  28,C  26,C   7,N   6)     98.8847         0.010778   
    171. D(N  27,C  26,C   7,H   9)     42.7737         0.010778   
    172. D(C  33,N  27,C  26,O  28)     -2.0972         0.031034   
    173. D(C  33,N  27,C  26,C   7)    175.9856         0.031034   
    174. D(C  29,N  27,C  26,O  28)   -170.4046         0.031034   
    175. D(C  29,N  27,C  26,C   7)      7.6782         0.031034   
    176. D(H  32,C  29,N  27,C  33)    178.0397         0.016449   
    177. D(H  32,C  29,N  27,C  26)    -13.3499         0.016449   
    178. D(H  31,C  29,N  27,C  33)     57.3977         0.016449   
    179. D(H  31,C  29,N  27,C  26)   -133.9919         0.016449   
    180. D(H  30,C  29,N  27,C  33)    -61.2504         0.016449   
    181. D(H  30,C  29,N  27,C  26)    107.3600         0.016449   
    182. D(H  36,C  33,N  27,C  29)    -52.1728         0.016469   
    183. D(H  36,C  33,N  27,C  26)    138.3748         0.016469   
    184. D(H  35,C  33,N  27,C  29)   -172.3268         0.016469   
    185. D(H  35,C  33,N  27,C  26)     18.2208         0.016469   
    186. D(H  34,C  33,N  27,C  29)     67.4744         0.016469   
    187. D(H  34,C  33,N  27,C  26)   -101.9781         0.016469   
    -----------------------------------------------------------------

Number of atoms                         .... 38
Number of degrees of freedom            .... 187

         *************************************************************
         *                GEOMETRY OPTIMIZATION CYCLE   1            *
         *************************************************************
---------------------------------
CARTESIAN COORDINATES (ANGSTROEM)
---------------------------------
  C      3.113000    3.180000    0.302000
  H      2.358000    2.998000    1.071000
  H      2.647000    3.762000   -0.499000
  H      3.933000    3.757000    0.728000
  C      3.706000    1.895000   -0.241000
  O      4.932000    1.721000   -0.275000
  N      2.824000    0.951000   -0.707000
  C      3.344000   -0.243000   -1.368000
  H      2.998000   -0.267000   -2.407000
  H      4.432000   -0.185000   -1.358000
  C      1.368000    1.073000   -0.658000
  H      1.070000    2.113000   -0.823000
  H      0.972000    0.488000   -1.494000
  C      0.751000    0.550000    0.650000
  H      1.206000   -0.414000    0.897000
  H      0.982000    1.236000    1.473000
  C     -0.737000    0.388000    0.502000
  C     -1.243000   -0.727000   -0.185000
  C     -1.632000    1.354000    0.975000
  C     -2.615000   -0.883000   -0.380000
  H     -0.552000   -1.479000   -0.563000
  C     -3.009000    1.214000    0.789000
  H     -1.255000    2.223000    1.512000
  C     -3.484000    0.094000    0.109000
  H     -3.007000   -1.749000   -0.906000
  H     -3.702000    1.961000    1.164000
  C      2.788000   -1.510000   -0.726000
  N      3.348000   -1.938000    0.440000
  O      1.828000   -2.088000   -1.262000
  C      4.335000   -1.204000    1.219000
  H      3.875000   -0.808000    2.133000
  H      5.142000   -1.885000    1.509000
  H      4.759000   -0.373000    0.659000
  C      2.764000   -3.095000    1.103000
  H      2.141000   -2.785000    1.951000
  H      2.152000   -3.636000    0.384000
  H      3.566000   -3.739000    1.475000
  Cl    -5.217000   -0.095000   -0.131000

----------------------------
CARTESIAN COORDINATES (A.U.)
----------------------------
  NO LB      ZA    FRAG     MASS         X           Y           Z
   0 C     6.0000    0    12.011    5.882717    6.009329    0.570697
   1 H     1.0000    0     1.008    4.455974    5.665399    2.023897
   2 H     1.0000    0     1.008    5.002105    7.109150   -0.942973
   3 H     1.0000    0     1.008    7.432293    7.099701    1.375721
   4 C     6.0000    0    12.011    7.003325    3.581031   -0.455424
   5 O     8.0000    0    15.999    9.320129    3.252219   -0.519675
   6 N     7.0000    0    14.007    5.336587    1.797130   -1.336036
   7 C     6.0000    0    12.011    6.319244   -0.459203   -2.585145
   8 H     1.0000    0     1.008    5.665399   -0.504557   -4.548571
   9 H     1.0000    0     1.008    8.375266   -0.349599   -2.566248
  10 C     6.0000    0    12.011    2.585145    2.027676   -1.243440
  11 H     1.0000    0     1.008    2.022007    3.992991   -1.555245
  12 H     1.0000    0     1.008    1.836814    0.922186   -2.823251
  13 C     6.0000    0    12.011    1.419184    1.039349    1.228322
  14 H     1.0000    0     1.008    2.279010   -0.782347    1.695084
  15 H     1.0000    0     1.008    1.855711    2.335702    2.783567
  16 C     6.0000    0    12.011   -1.392728    0.733214    0.948643
  17 C     6.0000    0    12.011   -2.348930   -1.373831   -0.349599
  18 C     6.0000    0    12.011   -3.084033    2.558689    1.842483
  19 C     6.0000    0    12.011   -4.941634   -1.668628   -0.718096
  20 H     1.0000    0     1.008   -1.043129   -2.794905   -1.063916
  21 C     6.0000    0    12.011   -5.686186    2.294128    1.490994
  22 H     1.0000    0     1.008   -2.371606    4.200861    2.857266
  23 C     6.0000    0    12.011   -6.583806    0.177634    0.205980
  24 H     1.0000    0     1.008   -5.682406   -3.305131   -1.712092
  25 H     1.0000    0     1.008   -6.995766    3.705753    2.199641
  26 C     6.0000    0    12.011    5.268556   -2.853486   -1.371941
  27 N     7.0000    0    14.007    6.326803   -3.662289    0.831479
  28 O     8.0000    0    15.999    3.454419   -3.945748   -2.384834
  29 C     6.0000    0    12.011    8.191963   -2.275230    2.303576
  30 H     1.0000    0     1.008    7.322689   -1.526899    4.030786
  31 H     1.0000    0     1.008    9.716972   -3.562134    2.851597
  32 H     1.0000    0     1.008    8.993207   -0.704868    1.245330
  33 C     6.0000    0    12.011    5.223203   -5.848702    2.084368
  34 H     1.0000    0     1.008    4.045904   -5.262887    3.686856
  35 H     1.0000    0     1.008    4.066691   -6.871044    0.725655
  36 H     1.0000    0     1.008    6.738763   -7.065686    2.787346
  37 Cl   17.0000    0    35.453   -9.858701   -0.179524   -0.247554

--------------------------------
INTERNAL COORDINATES (ANGSTROEM)
--------------------------------
 C      0   0   0     0.000000000000     0.00000000     0.00000000
 H      1   0   0     1.092936411691     0.00000000     0.00000000
 H      1   2   0     1.094294750056   108.02419775     0.00000000
 H      1   2   3     1.089405801343   109.45265545   118.52024246
 C      1   2   3     1.515824198250   112.40347563   237.43786826
 O      5   1   2     1.238752598383   121.07004512   232.42293999
 N      5   1   2     1.373395791460   116.93584778    53.34979849
 C      7   5   1     1.460464652089   119.13375764   173.64121198
 H      8   7   5     1.095359758253   109.55748733   242.75635820
 H      8   7   5     1.089590748859   107.93022362     1.29657983
 C      7   5   1     1.461923732621   124.81082092   357.00603334
 H     11   7   5     1.094362371429   110.20951267    35.86871493
 H     11   7   5     1.094503083595   106.86614245   151.92515781
 C     11   7   5     1.537882310192   113.55958721   271.93093446
 H     14  11   7     1.094225753672   108.95139457   314.70787119
 H     14  11   7     1.096031933841   109.95228531    71.81510137
 C     14  11   7     1.504091752520   110.47799087   194.01102817
 C     17  14  11     1.404004985746   119.35537807    77.76707876
 C     17  14  11     1.399253372338   121.67931565   260.93400469
 C     18  17  14     1.394541143172   120.78591046   182.23624462
 H     18  17  14     1.088976124623   119.31244163     2.59513766
 C     19  17  14     1.396540368196   121.09425032   177.70168845
 H     19  17  14     1.088879699508   119.74979684   356.68168596
 C     22  19  17     1.393709080117   118.78937270   359.44185367
 H     20  18  17     1.086414285620   120.78766232   180.39736638
 H     22  19  17     1.085763786466   120.95469784   179.50205367
 C      8   7   5     1.525316032827   111.02728837   126.72457197
 N     27   8   7     1.362475687856   118.11963785   280.73065820
 O     27   8   7     1.242167460530   119.11783728    98.88466875
 C     28  27   8     1.455941619709   125.32104110     7.67817802
 H     30  28  27     1.097183667396   110.08762005   107.35999687
 H     30  28  27     1.095038812098   109.13337150   226.00807317
 H     30  28  27     1.088088691238   111.95135143   346.65006211
 C     28  27   8     1.455772647085   118.32892263   175.98559846
 H     34  28  27     1.096965359526   110.81167834   258.02193576
 H     34  28  27     1.088203106042   108.65191480    18.22076762
 H     34  28  27     1.093765971312   109.18971239   138.37476357
 Cl    24  22  19     1.759718727524   119.24180236   179.95333439

---------------------------
INTERNAL COORDINATES (A.U.)
---------------------------
 C      0   0   0     0.000000000000     0.00000000     0.00000000
 H      1   0   0     2.065350499887     0.00000000     0.00000000
 H      1   2   0     2.067917387394   108.02419775     0.00000000
 H      1   2   3     2.058678613243   109.45265545   118.52024246
 C      1   2   3     2.864492601863   112.40347563   237.43786826
 O      5   1   2     2.340903158627   121.07004512   232.42293999
 N      5   1   2     2.595341919339   116.93584778    53.34979849
 C      7   5   1     2.759878220720   119.13375764   173.64121198
 H      8   7   5     2.069929961216   109.55748733   242.75635820
 H      8   7   5     2.059028113398   107.93022362     1.29657983
 C      7   5   1     2.762635483333   124.81082092   357.00603334
 H     11   7   5     2.068045173270   110.20951267    35.86871493
 H     11   7   5     2.068311080728   106.86614245   151.92515781
 C     11   7   5     2.906176392464   113.55958721   271.93093446
 H     14  11   7     2.067787003124   108.95139457   314.70787119
 H     14  11   7     2.071200188992   109.95228531    71.81510137
 C     14  11   7     2.842321492553   110.47799087   194.01102817
 C     17  14  11     2.653184913720   119.35537807    77.76707876
 C     17  14  11     2.644205665685   121.67931565   260.93400469
 C     18  17  14     2.635300843081   120.78591046   182.23624462
 H     18  17  14     2.057866641917   119.31244163     2.59513766
 C     19  17  14     2.639078830855   121.09425032   177.70168845
 H     19  17  14     2.057684424856   119.74979684   356.68168596
 C     22  19  17     2.633728471780   118.78937270   359.44185367
 H     20  18  17     2.053025467802   120.78766232   180.39736638
 H     22  19  17     2.051796202549   120.95469784   179.50205367
 C      8   7   5     2.882429569723   111.02728837   126.72457197
 N     27   8   7     2.574705914175   118.11963785   280.73065820
 O     27   8   7     2.347356312870   119.11783728    98.88466875
 C     28  27   8     2.751330928227   125.32104110     7.67817802
 H     30  28  27     2.073376649989   110.08762005   107.35999687
 H     30  28  27     2.069323460879   109.13337150   226.00807317
 H     30  28  27     2.056189635857   111.95135143   346.65006211
 C     28  27   8     2.751011616244   118.32892263   175.98559846
 H     34  28  27     2.072964107903   110.81167834   258.02193576
 H     34  28  27     2.056405848502   108.65191480    18.22076762
 H     34  28  27     2.066918140382   109.18971239   138.37476357
 Cl    24  22  19     3.325386467753   119.24180236   179.95333439

---------------------
BASIS SET INFORMATION
---------------------
There are 5 groups of distinct atoms

 Group   1 Type C   : 10s4p1d contracted to 3s2p1d pattern {631/31/1}
 Group   2 Type H   : 4s contracted to 2s pattern {31}
 Group   3 Type O   : 10s4p1d contracted to 3s2p1d pattern {631/31/1}
 Group   4 Type N   : 10s4p1d contracted to 3s2p1d pattern {631/31/1}
 Group   5 Type Cl  : 16s10p1d contracted to 4s3p1d pattern {6631/631/1}

Atom   0C    basis set group =>   1
Atom   1H    basis set group =>   2
Atom   2H    basis set group =>   2
Atom   3H    basis set group =>   2
Atom   4C    basis set group =>   1
Atom   5O    basis set group =>   3
Atom   6N    basis set group =>   4
Atom   7C    basis set group =>   1
Atom   8H    basis set group =>   2
Atom   9H    basis set group =>   2
Atom  10C    basis set group =>   1
Atom  11H    basis set group =>   2
Atom  12H    basis set group =>   2
Atom  13C    basis set group =>   1
Atom  14H    basis set group =>   2
Atom  15H    basis set group =>   2
Atom  16C    basis set group =>   1
Atom  17C    basis set group =>   1
Atom  18C    basis set group =>   1
Atom  19C    basis set group =>   1
Atom  20H    basis set group =>   2
Atom  21C    basis set group =>   1
Atom  22H    basis set group =>   2
Atom  23C    basis set group =>   1
Atom  24H    basis set group =>   2
Atom  25H    basis set group =>   2
Atom  26C    basis set group =>   1
Atom  27N    basis set group =>   4
Atom  28O    basis set group =>   3
Atom  29C    basis set group =>   1
Atom  30H    basis set group =>   2
Atom  31H    basis set group =>   2
Atom  32H    basis set group =>   2
Atom  33C    basis set group =>   1
Atom  34H    basis set group =>   2
Atom  35H    basis set group =>   2
Atom  36H    basis set group =>   2
Atom  37Cl   basis set group =>   5
---------------------------------
AUXILIARY/J BASIS SET INFORMATION
---------------------------------
There are 5 groups of distinct atoms

 Group   1 Type C   : 13s11p10d2f contracted to 13s11p10d2f pattern {1111111111111/11111111111/1111111111/11}
 Group   2 Type H   : 9s2p contracted to 9s2p pattern {111111111/11}
 Group   3 Type O   : 14s11p10d2f contracted to 14s11p10d2f pattern {11111111111111/11111111111/1111111111/11}
 Group   4 Type N   : 14s11p10d2f contracted to 14s11p10d2f pattern {11111111111111/11111111111/1111111111/11}
 Group   5 Type Cl  : 17s14p13d4f contracted to 17s14p13d4f pattern {11111111111111111/11111111111111/1111111111111/1111}

Atom   0C    basis set group =>   1
Atom   1H    basis set group =>   2
Atom   2H    basis set group =>   2
Atom   3H    basis set group =>   2
Atom   4C    basis set group =>   1
Atom   5O    basis set group =>   3
Atom   6N    basis set group =>   4
Atom   7C    basis set group =>   1
Atom   8H    basis set group =>   2
Atom   9H    basis set group =>   2
Atom  10C    basis set group =>   1
Atom  11H    basis set group =>   2
Atom  12H    basis set group =>   2
Atom  13C    basis set group =>   1
Atom  14H    basis set group =>   2
Atom  15H    basis set group =>   2
Atom  16C    basis set group =>   1
Atom  17C    basis set group =>   1
Atom  18C    basis set group =>   1
Atom  19C    basis set group =>   1
Atom  20H    basis set group =>   2
Atom  21C    basis set group =>   1
Atom  22H    basis set group =>   2
Atom  23C    basis set group =>   1
Atom  24H    basis set group =>   2
Atom  25H    basis set group =>   2
Atom  26C    basis set group =>   1
Atom  27N    basis set group =>   4
Atom  28O    basis set group =>   3
Atom  29C    basis set group =>   1
Atom  30H    basis set group =>   2
Atom  31H    basis set group =>   2
Atom  32H    basis set group =>   2
Atom  33C    basis set group =>   1
Atom  34H    basis set group =>   2
Atom  35H    basis set group =>   2
Atom  36H    basis set group =>   2
Atom  37Cl   basis set group =>   5
---------------------------------
AUXILIARY/C BASIS SET INFORMATION
---------------------------------
There are 5 groups of distinct atoms

 Group   1 Type C   : 13s11p10d2f contracted to 13s11p10d2f pattern {1111111111111/11111111111/1111111111/11}
 Group   2 Type H   : 9s2p contracted to 9s2p pattern {111111111/11}
 Group   3 Type O   : 14s11p10d2f contracted to 14s11p10d2f pattern {11111111111111/11111111111/1111111111/11}
 Group   4 Type N   : 14s11p10d2f contracted to 14s11p10d2f pattern {11111111111111/11111111111/1111111111/11}
 Group   5 Type Cl  : 17s14p13d4f contracted to 17s14p13d4f pattern {11111111111111111/11111111111111/1111111111111/1111}

Atom   0C    basis set group =>   1
Atom   1H    basis set group =>   2
Atom   2H    basis set group =>   2
Atom   3H    basis set group =>   2
Atom   4C    basis set group =>   1
Atom   5O    basis set group =>   3
Atom   6N    basis set group =>   4
Atom   7C    basis set group =>   1
Atom   8H    basis set group =>   2
Atom   9H    basis set group =>   2
Atom  10C    basis set group =>   1
Atom  11H    basis set group =>   2
Atom  12H    basis set group =>   2
Atom  13C    basis set group =>   1
Atom  14H    basis set group =>   2
Atom  15H    basis set group =>   2
Atom  16C    basis set group =>   1
Atom  17C    basis set group =>   1
Atom  18C    basis set group =>   1
Atom  19C    basis set group =>   1
Atom  20H    basis set group =>   2
Atom  21C    basis set group =>   1
Atom  22H    basis set group =>   2
Atom  23C    basis set group =>   1
Atom  24H    basis set group =>   2
Atom  25H    basis set group =>   2
Atom  26C    basis set group =>   1
Atom  27N    basis set group =>   4
Atom  28O    basis set group =>   3
Atom  29C    basis set group =>   1
Atom  30H    basis set group =>   2
Atom  31H    basis set group =>   2
Atom  32H    basis set group =>   2
Atom  33C    basis set group =>   1
Atom  34H    basis set group =>   2
Atom  35H    basis set group =>   2
Atom  36H    basis set group =>   2
Atom  37Cl   basis set group =>   5
----------------------------------
AUXILIARY/JK BASIS SET INFORMATION
----------------------------------
There are 5 groups of distinct atoms

 Group   1 Type C   : 13s11p10d2f contracted to 13s11p10d2f pattern {1111111111111/11111111111/1111111111/11}
 Group   2 Type H   : 9s2p contracted to 9s2p pattern {111111111/11}
 Group   3 Type O   : 14s11p10d2f contracted to 14s11p10d2f pattern {11111111111111/11111111111/1111111111/11}
 Group   4 Type N   : 14s11p10d2f contracted to 14s11p10d2f pattern {11111111111111/11111111111/1111111111/11}
 Group   5 Type Cl  : 17s14p13d4f contracted to 17s14p13d4f pattern {11111111111111111/11111111111111/1111111111111/1111}

Atom   0C    basis set group =>   1
Atom   1H    basis set group =>   2
Atom   2H    basis set group =>   2
Atom   3H    basis set group =>   2
Atom   4C    basis set group =>   1
Atom   5O    basis set group =>   3
Atom   6N    basis set group =>   4
Atom   7C    basis set group =>   1
Atom   8H    basis set group =>   2
Atom   9H    basis set group =>   2
Atom  10C    basis set group =>   1
Atom  11H    basis set group =>   2
Atom  12H    basis set group =>   2
Atom  13C    basis set group =>   1
Atom  14H    basis set group =>   2
Atom  15H    basis set group =>   2
Atom  16C    basis set group =>   1
Atom  17C    basis set group =>   1
Atom  18C    basis set group =>   1
Atom  19C    basis set group =>   1
Atom  20H    basis set group =>   2
Atom  21C    basis set group =>   1
Atom  22H    basis set group =>   2
Atom  23C    basis set group =>   1
Atom  24H    basis set group =>   2
Atom  25H    basis set group =>   2
Atom  26C    basis set group =>   1
Atom  27N    basis set group =>   4
Atom  28O    basis set group =>   3
Atom  29C    basis set group =>   1
Atom  30H    basis set group =>   2
Atom  31H    basis set group =>   2
Atom  32H    basis set group =>   2
Atom  33C    basis set group =>   1
Atom  34H    basis set group =>   2
Atom  35H    basis set group =>   2
Atom  36H    basis set group =>   2
Atom  37Cl   basis set group =>   5


           ************************************************************
           *        Program running with 4 parallel MPI-processes     *
           *              working on a common directory               *
           ************************************************************
------------------------------------------------------------------------------
                           ORCA GTO INTEGRAL CALCULATION
                           -- RI-GTO INTEGRALS CHOSEN --
------------------------------------------------------------------------------
------------------------------------------------------------------------------
                   ___                                                        
                  /   \      - P O W E R E D   B Y -                         
                 /     \                                                     
                 |  |  |   _    _      __       _____    __    __             
                 |  |  |  | |  | |    /  \     |  _  \  |  |  /  |          
                  \  \/   | |  | |   /    \    | | | |  |  | /  /          
                 / \  \   | |__| |  /  /\  \   | |_| |  |  |/  /          
                |  |  |   |  __  | /  /__\  \  |    /   |      \           
                |  |  |   | |  | | |   __   |  |    \   |  |\   \          
                \     /   | |  | | |  |  |  |  | |\  \  |  | \   \       
                 \___/    |_|  |_| |__|  |__|  |_| \__\ |__|  \__/        
                                                                              
                      - O R C A' S   B I G   F R I E N D -                    
                                      &                                       
                       - I N T E G R A L  F E E D E R -                       
                                                                              
 v1 FN, 2020, v2 2021                                                         
------------------------------------------------------------------------------


Reading SHARK input file NfeCl_water.SHARKINP.tmp ... ok
----------------------
SHARK INTEGRAL PACKAGE
----------------------

Number of atoms                             ...     38
Number of basis functions                   ...    308
Number of shells                            ...    154
Maximum angular momentum                    ...      2
Integral batch strategy                     ... SHARK/LIBINT Hybrid
RI-J (if used) integral strategy            ... SPLIT-RIJ (Revised 2003 algorithm where possible)
Printlevel                                  ...      1
Contraction scheme used                     ... SEGMENTED contraction
Coulomb Range Separation                    ... NOT USED
Exchange Range Separation                   ... NOT USED
Finite Nucleus Model                        ... NOT USED
Auxiliary Coulomb fitting basis             ... AVAILABLE
   # of basis functions in Aux-J            ...   2421
   # of shells in Aux-J                     ...    909
   Maximum angular momentum in Aux-J        ...      3
Auxiliary J/K fitting basis                 ... AVAILABLE
   # of basis functions in Aux-JK           ...   2421
   # of shells in Aux-JK                    ...    909
   Maximum angular momentum in Aux-JK       ...      3
Auxiliary Correlation fitting basis         ... AVAILABLE
   # of basis functions in Aux-C            ...   2421
   # of shells in Aux-C                     ...    909
   Maximum angular momentum in Aux-C        ...      3
Auxiliary 'external' fitting basis          ... NOT available
Integral threshold                          ...     2.500000e-11
Primitive cut-off                           ...     2.500000e-12
Primitive pair pre-selection threshold      ...     2.500000e-12

Calculating pre-screening integrals         ... done (  0.1 sec) Dimension = 154
Organizing shell pair data                  ... done (  0.2 sec)
Shell pair information
Total number of shell pairs                 ...     11935
Shell pairs after pre-screening             ...      9122
Total number of primitive shell pairs       ...     70237
Primitive shell pairs kept                  ...     29226
          la=0 lb=0:   3444 shell pairs
          la=1 lb=0:   3035 shell pairs
          la=1 lb=1:    678 shell pairs
          la=2 lb=0:   1266 shell pairs
          la=2 lb=1:    574 shell pairs
          la=2 lb=2:    125 shell pairs

Calculating one electron integrals          ... done (  0.0 sec)
Calculating RI/J V-Matrix + Cholesky decomp.... done (  0.4 sec)
Calculating RI/JK V-Matrix + Cholesky decomp... done (  0.4 sec)
Calculating RI/C V-Matrix + Cholesky decomp.... done (  0.4 sec)
Calculating Nuclear repulsion               ... done (  0.0 sec) ENN=   1560.868659841466 Eh

SHARK setup successfully completed in   1.9 seconds

Maximum memory used throughout the entire GTOINT-calculation: 48.6 MB


           ************************************************************
           *        Program running with 4 parallel MPI-processes     *
           *              working on a common directory               *
           ************************************************************
-------------------------------------------------------------------------------
                                 ORCA SCF
-------------------------------------------------------------------------------

------------
SCF SETTINGS
------------
Hamiltonian:
 Density Functional     Method          .... DFT(GTOs)
 Exchange Functional    Exchange        .... B88
   X-Alpha parameter    XAlpha          ....  0.666667
   Becke's b parameter  XBeta           ....  0.004200
 Correlation Functional Correlation     .... LYP
 LDA part of GGA corr.  LDAOpt          .... VWN-5
 Gradients option       PostSCFGGA      .... off
 Hybrid DFT is turned on
   Fraction HF Exchange ScalHFX         ....  0.200000
   Scaling of DF-GGA-X  ScalDFX         ....  0.720000
   Scaling of DF-GGA-C  ScalDFC         ....  0.810000
   Scaling of DF-LDA-C  ScalLDAC        ....  1.000000
   Perturbative correction              ....  0.000000
   Density functional embedding theory  .... OFF
   NL short-range parameter             ....  4.800000
 RI-approximation to the Coulomb term is turned on
   Number of AuxJ basis functions       .... 2421
   RIJ-COSX (HFX calculated with COS-X)).... on


General Settings:
 Integral files         IntName         .... NfeCl_water
 Hartree-Fock type      HFTyp           .... RHF
 Total Charge           Charge          ....    0
 Multiplicity           Mult            ....    1
 Number of Electrons    NEL             ....  150
 Basis Dimension        Dim             ....  308
 Nuclear Repulsion      ENuc            ....   1560.8686598415 Eh

Convergence Acceleration:
 DIIS                   CNVDIIS         .... on
   Start iteration      DIISMaxIt       ....    12
   Startup error        DIISStart       ....  0.200000
   # of expansion vecs  DIISMaxEq       ....     5
   Bias factor          DIISBfac        ....   1.050
   Max. coefficient     DIISMaxC        ....  10.000
 Trust-Rad. Augm. Hess. CNVTRAH         .... auto
   Auto Start mean grad. ratio tolernc. ....  1.125000
   Auto Start start iteration           ....    20
   Auto Start num. interpolation iter.  ....    10
   Max. Number of Micro iterations      ....    16
   Max. Number of Macro iterations      .... Maxiter - #DIIS iter
   Number of Davidson start vectors     ....     2
   Converg. threshold I  (grad. norm)   ....   1.000e-05
   Converg. threshold II (energy diff.) ....   1.000e-08
   Grad. Scal. Fac. for Micro threshold ....   0.100
   Minimum threshold for Micro iter.    ....   0.010
   NR start threshold (gradient norm)   ....   0.001
   Initial trust radius                 ....   0.400
   Minimum AH scaling param. (alpha)    ....   1.000
   Maximum AH scaling param. (alpha)    .... 1000.000
   Orbital update algorithm             .... Taylor
   White noise on init. David. guess    .... on
   Maximum white noise                  ....   0.010
   Quad. conv. algorithm                .... NR
 SOSCF                  CNVSOSCF        .... on
   Start iteration      SOSCFMaxIt      ....   150
   Startup grad/error   SOSCFStart      ....  0.003300
 Level Shifting         CNVShift        .... on
   Level shift para.    LevelShift      ....    0.2500
   Turn off err/grad.   ShiftErr        ....    0.0010
 Zerner damping         CNVZerner       .... off
 Static damping         CNVDamp         .... on
   Fraction old density DampFac         ....    0.7000
   Max. Damping (<1)    DampMax         ....    0.9800
   Min. Damping (>=0)   DampMin         ....    0.0000
   Turn off err/grad.   DampErr         ....    0.1000
 Fernandez-Rico         CNVRico         .... off

SCF Procedure:
 Maximum # iterations   MaxIter         ....   125
 SCF integral mode      SCFMode         .... Direct
   Integral package                     .... SHARK and LIBINT hybrid scheme
 Reset frequency        DirectResetFreq ....    20
 Integral Threshold     Thresh          ....  2.500e-11 Eh
 Primitive CutOff       TCut            ....  2.500e-12 Eh

Convergence Tolerance:
 Convergence Check Mode ConvCheckMode   .... Total+1el-Energy
 Convergence forced     ConvForced      .... 0
 Energy Change          TolE            ....  1.000e-08 Eh
 1-El. energy change                    ....  1.000e-05 Eh
 Orbital Gradient       TolG            ....  1.000e-05
 Orbital Rotation angle TolX            ....  1.000e-05
 DIIS Error             TolErr          ....  5.000e-07


Diagonalization of the overlap matrix:
Smallest eigenvalue                        ... 4.532e-04
Time for diagonalization                   ...    0.020 sec
Threshold for overlap eigenvalues          ... 1.000e-08
Number of eigenvalues below threshold      ... 0
Time for construction of square roots      ...    0.008 sec
Total time needed                          ...    0.030 sec

Time for model grid setup =    0.356 sec

------------------------------
INITIAL GUESS: MODEL POTENTIAL
------------------------------
Loading Hartree-Fock densities                     ... done
Calculating cut-offs                               ... done
Initializing the effective Hamiltonian             ... done
Setting up the integral package (SHARK)            ... done
Starting the Coulomb interaction                   ... done (   0.3 sec)
Reading the grid                                   ... done
Mapping shells                                     ... done
Starting the XC term evaluation                    ... done (   0.2 sec)
  promolecular density results
     # of electrons  =    149.993913519
     EX              =   -134.726758073
     EC              =     -5.201921738
     EX+EC           =   -139.928679811
Transforming the Hamiltonian                       ... done (   0.0 sec)
Diagonalizing the Hamiltonian                      ... done (   0.0 sec)
Back transforming the eigenvectors                 ... done (   0.0 sec)
Now organizing SCF variables                       ... done
                      ------------------
                      INITIAL GUESS DONE (   0.9 sec)
                      ------------------
-------------------
DFT GRID GENERATION
-------------------

General Integration Accuracy     IntAcc      ... 4.388
Radial Grid Type                 RadialGrid  ... OptM3 with GC (2021)
Angular Grid (max. ang.)         AngularGrid ... 4 (Lebedev-302)
Angular grid pruning method      GridPruning ... 4 (adaptive)
Weight generation scheme         WeightScheme... Becke
Basis function cutoff            BFCut       ... 1.0000e-11
Integration weight cutoff        WCut        ... 1.0000e-14
Angular grids for H and He will be reduced by one unit
Partially contracted basis set               ... off
Rotationally invariant grid construction     ... off

Total number of grid points                  ...   174979
Total number of batches                      ...     2754
Average number of points per batch           ...       63
Average number of grid points per atom       ...     4605
Time for grid setup =    1.666 sec

--------------------
COSX GRID GENERATION
--------------------

GRIDX 1
-------
General Integration Accuracy     IntAcc      ... 3.816
Radial Grid Type                 RadialGrid  ... OptM3 with GC (2021)
Angular Grid (max. ang.)         AngularGrid ... 1 (Lebedev-50)
Angular grid pruning method      GridPruning ... 4 (adaptive)
Weight generation scheme         WeightScheme... Becke
Basis function cutoff            BFCut       ... 1.0000e-11
Integration weight cutoff        WCut        ... 1.0000e-14
Angular grids for H and He will be reduced by one unit
Partially contracted basis set               ... on
Rotationally invariant grid construction     ... off

Total number of grid points                  ...    22149
Total number of batches                      ...      367
Average number of points per batch           ...       60
Average number of grid points per atom       ...      583
UseSFitting                                  ... on

GRIDX 2
-------
General Integration Accuracy     IntAcc      ... 4.020
Radial Grid Type                 RadialGrid  ... OptM3 with GC (2021)
Angular Grid (max. ang.)         AngularGrid ... 2 (Lebedev-110)
Angular grid pruning method      GridPruning ... 4 (adaptive)
Weight generation scheme         WeightScheme... Becke
Basis function cutoff            BFCut       ... 1.0000e-11
Integration weight cutoff        WCut        ... 1.0000e-14
Angular grids for H and He will be reduced by one unit
Partially contracted basis set               ... on
Rotationally invariant grid construction     ... off

Total number of grid points                  ...    47384
Total number of batches                      ...      758
Average number of points per batch           ...       62
Average number of grid points per atom       ...     1247
UseSFitting                                  ... on

GRIDX 3
-------
General Integration Accuracy     IntAcc      ... 4.338
Radial Grid Type                 RadialGrid  ... OptM3 with GC (2021)
Angular Grid (max. ang.)         AngularGrid ... 3 (Lebedev-194)
Angular grid pruning method      GridPruning ... 4 (adaptive)
Weight generation scheme         WeightScheme... Becke
Basis function cutoff            BFCut       ... 1.0000e-11
Integration weight cutoff        WCut        ... 1.0000e-14
Angular grids for H and He will be reduced by one unit
Partially contracted basis set               ... on
Rotationally invariant grid construction     ... off

Total number of grid points                  ...   103932
Total number of batches                      ...     1645
Average number of points per batch           ...       63
Average number of grid points per atom       ...     2735
UseSFitting                                  ... on

Time for X-Grid setup             =    3.046 sec


--------------------
CPCM SOLVATION MODEL
--------------------
CPCM parameters:
  Epsilon                                         ...      80.4000
  Refrac                                          ...       1.3300
  Rsolv                                           ...       1.3000
  Surface type                                    ... GAUSSIAN VDW
  Epsilon function type                           ...         CPCM
Radii:
 Radius for C  used is    3.8550 Bohr (=   2.0400 Ang.)
 Radius for H  used is    2.4944 Bohr (=   1.3200 Ang.)
 Radius for O  used is    3.4469 Bohr (=   1.8240 Ang.)
 Radius for N  used is    3.5149 Bohr (=   1.8600 Ang.)
 Radius for Cl used is    3.9684 Bohr (=   2.1000 Ang.)
Calculating surface                               ...        done! (  0.0s)
GEPOL surface points                              ...         2006
GEPOL Volume                                      ...    2280.7686
GEPOL Surface-area                                ...    1163.9664
Calculating surface distance matrix               ...        done! (  0.0s)
Performing Cholesky decomposition & store         ...        done! (  0.2s)
Overall time for CPCM initialization              ...                 0.2s
--------------
SCF ITERATIONS
--------------
ITER       Energy         Delta-E        Max-DP      RMS-DP      [F,P]     Damp
               ***  Starting incremental Fock matrix formation  ***
  0  -1264.0715696413   0.000000000000 0.09668870  0.00174229  0.2743056 0.7000
  1  -1264.2923048362  -0.220735194839 0.05577852  0.00118570  0.1122012 0.7000
                               ***Turning on DIIS***
  2  -1264.3801793460  -0.087874509864 0.06301048  0.00192049  0.0379003 0.0000
  3  -1264.5184755387  -0.138296192636 0.03752327  0.00081177  0.0551071 0.0000
  4  -1264.5475445307  -0.029068992078 0.00899631  0.00027303  0.0139337 0.0000
  5  -1264.5495097922  -0.001965261462 0.00417272  0.00008792  0.0068540 0.0000
                      *** Initiating the SOSCF procedure ***
                           *** Shutting down DIIS ***
                      *** Re-Reading the Fockian *** 
                      *** Removing any level shift *** 
ITER      Energy       Delta-E        Grad      Rot      Max-DP    RMS-DP
  6  -1264.54967348  -0.0001636834  0.000284  0.000284  0.001478  0.000038
               *** Restarting incremental Fock matrix formation ***
  7  -1264.54971891  -0.0000454366  0.000289  0.001150  0.001759  0.000025
  8  -1264.54971133   0.0000075777  0.000549  0.000795  0.001137  0.000016
  9  -1264.54972301  -0.0000116739  0.000072  0.000194  0.000323  0.000005
 10  -1264.54972265   0.0000003623  0.000140  0.000127  0.000225  0.000003
 11  -1264.54972315  -0.0000005017  0.000005  0.000018  0.000025  0.000001
 12  -1264.54972315   0.0000000013  0.000008  0.000014  0.000016  0.000000
                  ***Gradient check signals convergence***
              ***Rediagonalizing the Fockian in SOSCF/NRSCF***

               *****************************************************
               *                     SUCCESS                       *
               *           SCF CONVERGED AFTER  13 CYCLES          *
               *****************************************************

Old exchange energy                            =    -27.341660257 Eh
New exchange energy                            =    -27.341637645 Eh
Exchange energy change after final integration =      0.000022613 Eh
Total energy after final integration           =  -1264.549700535 Eh
Final COS-X integration done in                =    16.026 sec

----------------
TOTAL SCF ENERGY
----------------

Total Energy       :        -1264.54970054 Eh          -34410.14673 eV

Components:
Nuclear Repulsion  :         1560.86865984 Eh           42473.39554 eV
Electronic Energy  :        -2825.41836038 Eh          -76883.54227 eV
One Electron Energy:        -4829.89846255 Eh         -131428.21885 eV
Two Electron Energy:         2004.48010217 Eh           54544.67658 eV
Max COSX asymmetry :            0.00000309 Eh               0.00008 eV
CPCM Dielectric    :           -0.02139503 Eh              -0.58219 eV

Virial components:
Potential Energy   :        -2523.61159836 Eh          -68670.96276 eV
Kinetic Energy     :         1259.06189783 Eh           34260.81603 eV
Virial Ratio       :            2.00435864


DFT components:
N(Alpha)           :       74.999841787251 electrons
N(Beta)            :       74.999841787251 electrons
N(Total)           :      149.999683574502 electrons
E(X)               :     -108.539296460807 Eh       
E(C)               :       -6.120161058869 Eh       
E(XC)              :     -114.659457519676 Eh       
DFET-embed. en.    :        0.000000000000 Eh       
CPCM Solvation Model Properties:
Surface-charge          :           -0.02286983
Charge-correction       :           -0.00008339 Eh              -0.00227 eV
Free-energy (cav+disp)  :  This term is not implemented in the current solvation scheme

---------------
SCF CONVERGENCE
---------------

  Last Energy change         ...   -1.2922e-09  Tolerance :   1.0000e-08
  Last MAX-Density change    ...    4.4409e-15  Tolerance :   1.0000e-07
  Last RMS-Density change    ...    5.3746e-17  Tolerance :   5.0000e-09
  Last Orbital Gradient      ...    1.4386e-06  Tolerance :   1.0000e-05
  Last Orbital Rotation      ...    3.6975e-06  Tolerance :   1.0000e-05

             **** THE GBW FILE WAS UPDATED (NfeCl_water.gbw) ****
             **** DENSITY NfeCl_water.scfp WAS UPDATED ****
             **** ENERGY FILE WAS UPDATED (NfeCl_water.en.tmp) ****
             **** THE GBW FILE WAS UPDATED (NfeCl_water.gbw) ****
             **** DENSITY NfeCl_water.scfp WAS UPDATED ****
----------------
ORBITAL ENERGIES
----------------

  NO   OCC          E(Eh)            E(eV) 
   0   2.0000    -101.529182     -2762.7495 
   1   2.0000     -19.111910      -520.0615 
   2   2.0000     -19.111021      -520.0373 
   3   2.0000     -14.361638      -390.8000 
   4   2.0000     -14.361344      -390.7920 
   5   2.0000     -10.285539      -279.8837 
   6   2.0000     -10.281608      -279.7768 
   7   2.0000     -10.241993      -278.6988 
   8   2.0000     -10.212610      -277.8992 
   9   2.0000     -10.211536      -277.8700 
  10   2.0000     -10.198721      -277.5213 
  11   2.0000     -10.195328      -277.4290 
  12   2.0000     -10.192553      -277.3535 
  13   2.0000     -10.191431      -277.3229 
  14   2.0000     -10.191307      -277.3196 
  15   2.0000     -10.186608      -277.1917 
  16   2.0000     -10.184537      -277.1354 
  17   2.0000     -10.177724      -276.9499 
  18   2.0000     -10.172747      -276.8145 
  19   2.0000      -9.461391      -257.4575 
  20   2.0000      -7.224305      -196.5833 
  21   2.0000      -7.214984      -196.3297 
  22   2.0000      -7.214655      -196.3207 
  23   2.0000      -1.034068       -28.1384 
  24   2.0000      -1.026918       -27.9439 
  25   2.0000      -0.935977       -25.4692 
  26   2.0000      -0.929006       -25.2795 
  27   2.0000      -0.886993       -24.1363 
  28   2.0000      -0.839057       -22.8319 
  29   2.0000      -0.779708       -21.2169 
  30   2.0000      -0.758653       -20.6440 
  31   2.0000      -0.750635       -20.4258 
  32   2.0000      -0.723360       -19.6836 
  33   2.0000      -0.713028       -19.4025 
  34   2.0000      -0.704179       -19.1617 
  35   2.0000      -0.670498       -18.2452 
  36   2.0000      -0.642013       -17.4701 
  37   2.0000      -0.615021       -16.7356 
  38   2.0000      -0.578124       -15.7316 
  39   2.0000      -0.552022       -15.0213 
  40   2.0000      -0.538636       -14.6570 
  41   2.0000      -0.514430       -13.9984 
  42   2.0000      -0.503524       -13.7016 
  43   2.0000      -0.487719       -13.2715 
  44   2.0000      -0.480457       -13.0739 
  45   2.0000      -0.469293       -12.7701 
  46   2.0000      -0.464467       -12.6388 
  47   2.0000      -0.461994       -12.5715 
  48   2.0000      -0.454837       -12.3767 
  49   2.0000      -0.445597       -12.1253 
  50   2.0000      -0.427689       -11.6380 
  51   2.0000      -0.419196       -11.4069 
  52   2.0000      -0.416739       -11.3401 
  53   2.0000      -0.410547       -11.1715 
  54   2.0000      -0.403848       -10.9893 
  55   2.0000      -0.398071       -10.8321 
  56   2.0000      -0.396037       -10.7767 
  57   2.0000      -0.395156       -10.7527 
  58   2.0000      -0.392960       -10.6930 
  59   2.0000      -0.385547       -10.4913 
  60   2.0000      -0.380263       -10.3475 
  61   2.0000      -0.374072       -10.1790 
  62   2.0000      -0.367239        -9.9931 
  63   2.0000      -0.359990        -9.7958 
  64   2.0000      -0.349400        -9.5077 
  65   2.0000      -0.344346        -9.3701 
  66   2.0000      -0.334406        -9.0997 
  67   2.0000      -0.325319        -8.8524 
  68   2.0000      -0.313115        -8.5203 
  69   2.0000      -0.261480        -7.1152 
  70   2.0000      -0.256823        -6.9885 
  71   2.0000      -0.254340        -6.9209 
  72   2.0000      -0.243684        -6.6310 
  73   2.0000      -0.239238        -6.5100 
  74   2.0000      -0.230778        -6.2798 
  75   0.0000      -0.009056        -0.2464 
  76   0.0000      -0.006144        -0.1672 
  77   0.0000       0.011919         0.3243 
  78   0.0000       0.026133         0.7111 
  79   0.0000       0.033211         0.9037 
  80   0.0000       0.089708         2.4411 
  81   0.0000       0.100523         2.7354 
  82   0.0000       0.118687         3.2296 
  83   0.0000       0.132103         3.5947 
  84   0.0000       0.137222         3.7340 
  85   0.0000       0.141411         3.8480 
  86   0.0000       0.146211         3.9786 
  87   0.0000       0.152229         4.1424 
  88   0.0000       0.159401         4.3375 
  89   0.0000       0.160362         4.3637 
  90   0.0000       0.164444         4.4748 
  91   0.0000       0.170479         4.6390 
  92   0.0000       0.177434         4.8282 
  93   0.0000       0.179197         4.8762 
  94   0.0000       0.187827         5.1110 
  95   0.0000       0.193108         5.2547 
  96   0.0000       0.198395         5.3986 
  97   0.0000       0.201467         5.4822 
  98   0.0000       0.204286         5.5589 
  99   0.0000       0.212925         5.7940 
 100   0.0000       0.222621         6.0578 
 101   0.0000       0.228968         6.2305 
 102   0.0000       0.232798         6.3348 
 103   0.0000       0.241557         6.5731 
 104   0.0000       0.244192         6.6448 
 105   0.0000       0.259634         7.0650 
 106   0.0000       0.270434         7.3589 
 107   0.0000       0.286140         7.7863 
 108   0.0000       0.292666         7.9638 
 109   0.0000       0.297259         8.0888 
 110   0.0000       0.330184         8.9848 
 111   0.0000       0.334129         9.0921 
 112   0.0000       0.348060         9.4712 
 113   0.0000       0.362694         9.8694 
 114   0.0000       0.379996        10.3402 
 115   0.0000       0.406076        11.0499 
 116   0.0000       0.421198        11.4614 
 117   0.0000       0.421960        11.4821 
 118   0.0000       0.426028        11.5928 
 119   0.0000       0.439810        11.9678 
 120   0.0000       0.467561        12.7230 
 121   0.0000       0.477550        12.9948 
 122   0.0000       0.501105        13.6358 
 123   0.0000       0.512604        13.9487 
 124   0.0000       0.515625        14.0309 
 125   0.0000       0.522253        14.2112 
 126   0.0000       0.524630        14.2759 
 127   0.0000       0.533893        14.5280 
 128   0.0000       0.549263        14.9462 
 129   0.0000       0.562236        15.2992 
 130   0.0000       0.567617        15.4456 
 131   0.0000       0.576365        15.6837 
 132   0.0000       0.586302        15.9541 
 133   0.0000       0.591396        16.0927 
 134   0.0000       0.593962        16.1625 
 135   0.0000       0.594368        16.1736 
 136   0.0000       0.602899        16.4057 
 137   0.0000       0.610778        16.6201 
 138   0.0000       0.616393        16.7729 
 139   0.0000       0.620339        16.8803 
 140   0.0000       0.632037        17.1986 
 141   0.0000       0.638857        17.3842 
 142   0.0000       0.648196        17.6383 
 143   0.0000       0.656095        17.8533 
 144   0.0000       0.663036        18.0421 
 145   0.0000       0.665911        18.1204 
 146   0.0000       0.674843        18.3634 
 147   0.0000       0.697961        18.9925 
 148   0.0000       0.720600        19.6085 
 149   0.0000       0.723243        19.6804 
 150   0.0000       0.728246        19.8166 
 151   0.0000       0.743142        20.2219 
 152   0.0000       0.754301        20.5256 
 153   0.0000       0.767959        20.8972 
 154   0.0000       0.769224        20.9317 
 155   0.0000       0.780426        21.2365 
 156   0.0000       0.802539        21.8382 
 157   0.0000       0.804171        21.8826 
 158   0.0000       0.818925        22.2841 
 159   0.0000       0.827129        22.5073 
 160   0.0000       0.836696        22.7677 
 161   0.0000       0.842146        22.9160 
 162   0.0000       0.847229        23.0543 
 163   0.0000       0.854233        23.2449 
 164   0.0000       0.860623        23.4187 
 165   0.0000       0.870158        23.6782 
 166   0.0000       0.873407        23.7666 
 167   0.0000       0.876790        23.8587 
 168   0.0000       0.881794        23.9948 
 169   0.0000       0.891040        24.2464 
 170   0.0000       0.897581        24.4244 
 171   0.0000       0.904084        24.6014 
 172   0.0000       0.910557        24.7775 
 173   0.0000       0.915007        24.8986 
 174   0.0000       0.918810        25.0021 
 175   0.0000       0.930683        25.3252 
 176   0.0000       0.932972        25.3875 
 177   0.0000       0.939807        25.5735 
 178   0.0000       0.948617        25.8132 
 179   0.0000       0.964960        26.2579 
 180   0.0000       0.971430        26.4340 
 181   0.0000       0.981540        26.7090 
 182   0.0000       0.991306        26.9748 
 183   0.0000       0.998855        27.1802 
 184   0.0000       1.006142        27.3785 
 185   0.0000       1.013522        27.5793 
 186   0.0000       1.019848        27.7515 
 187   0.0000       1.029735        28.0205 
 188   0.0000       1.049055        28.5462 
 189   0.0000       1.056781        28.7565 
 190   0.0000       1.069892        29.1132 
 191   0.0000       1.088496        29.6195 
 192   0.0000       1.102550        30.0019 
 193   0.0000       1.123991        30.5854 
 194   0.0000       1.143558        31.1178 
 195   0.0000       1.154050        31.4033 
 196   0.0000       1.182998        32.1910 
 197   0.0000       1.185560        32.2607 
 198   0.0000       1.204515        32.7765 
 199   0.0000       1.234347        33.5883 
 200   0.0000       1.248233        33.9661 
 201   0.0000       1.255386        34.1608 
 202   0.0000       1.270098        34.5611 
 203   0.0000       1.303811        35.4785 
 204   0.0000       1.329756        36.1845 
 205   0.0000       1.343107        36.5478 
 206   0.0000       1.351968        36.7889 
 207   0.0000       1.366112        37.1738 
 208   0.0000       1.383170        37.6380 
 209   0.0000       1.404579        38.2206 
 210   0.0000       1.410748        38.3884 
 211   0.0000       1.426647        38.8210 
 212   0.0000       1.431894        38.9638 
 213   0.0000       1.435145        39.0523 
 214   0.0000       1.438882        39.1540 
 215   0.0000       1.455371        39.6027 
 216   0.0000       1.466907        39.9166 
 217   0.0000       1.468539        39.9610 
 218   0.0000       1.497065        40.7372 
 219   0.0000       1.507095        41.0101 
 220   0.0000       1.512488        41.1569 
 221   0.0000       1.536960        41.8228 
 222   0.0000       1.557243        42.3747 
 223   0.0000       1.612547        43.8796 
 224   0.0000       1.635424        44.5021 
 225   0.0000       1.666656        45.3520 
 226   0.0000       1.716251        46.7016 
 227   0.0000       1.731495        47.1164 
 228   0.0000       1.750013        47.6203 
 229   0.0000       1.769352        48.1465 
 230   0.0000       1.776425        48.3390 
 231   0.0000       1.801671        49.0260 
 232   0.0000       1.817698        49.4621 
 233   0.0000       1.823445        49.6185 
 234   0.0000       1.826739        49.7081 
 235   0.0000       1.837438        49.9992 
 236   0.0000       1.846751        50.2527 
 237   0.0000       1.860322        50.6219 
 238   0.0000       1.869867        50.8817 
 239   0.0000       1.892990        51.5109 
 240   0.0000       1.899403        51.6854 
 241   0.0000       1.920523        52.2601 
 242   0.0000       1.937112        52.7115 
 243   0.0000       1.945650        52.9438 
 244   0.0000       1.956536        53.2401 
 245   0.0000       1.965987        53.4972 
 246   0.0000       1.970172        53.6111 
 247   0.0000       1.980653        53.8963 
 248   0.0000       1.986304        54.0501 
 249   0.0000       1.994465        54.2721 
 250   0.0000       2.021582        55.0100 
 251   0.0000       2.044213        55.6259 
 252   0.0000       2.055516        55.9334 
 253   0.0000       2.064914        56.1892 
 254   0.0000       2.076180        56.4957 
 255   0.0000       2.082776        56.6752 
 256   0.0000       2.085876        56.7596 
 257   0.0000       2.088954        56.8433 
 258   0.0000       2.105650        57.2977 
 259   0.0000       2.127309        57.8870 
 260   0.0000       2.137335        58.1598 
 261   0.0000       2.145410        58.3796 
 262   0.0000       2.155781        58.6618 
 263   0.0000       2.197474        59.7963 
 264   0.0000       2.204316        59.9825 
 265   0.0000       2.219724        60.4018 
 266   0.0000       2.230005        60.6815 
 267   0.0000       2.251050        61.2542 
 268   0.0000       2.268937        61.7409 
 269   0.0000       2.274407        61.8897 
 270   0.0000       2.288517        62.2737 
 271   0.0000       2.299865        62.5825 
 272   0.0000       2.304051        62.6964 
 273   0.0000       2.334293        63.5193 
 274   0.0000       2.348999        63.9195 
 275   0.0000       2.365558        64.3701 
 276   0.0000       2.387114        64.9567 
 277   0.0000       2.398072        65.2549 
 278   0.0000       2.415145        65.7194 
 279   0.0000       2.430128        66.1272 
 280   0.0000       2.444313        66.5131 
 281   0.0000       2.494517        67.8793 
 282   0.0000       2.522401        68.6380 
 283   0.0000       2.553656        69.4885 
 284   0.0000       2.562323        69.7244 
 285   0.0000       2.590532        70.4920 
 286   0.0000       2.600588        70.7656 
 287   0.0000       2.623144        71.3794 
 288   0.0000       2.637553        71.7715 
 289   0.0000       2.655150        72.2503 
 290   0.0000       2.661445        72.4216 
 291   0.0000       2.675732        72.8104 
 292   0.0000       2.695109        73.3376 
 293   0.0000       2.710006        73.7430 
 294   0.0000       2.732747        74.3618 
 295   0.0000       2.745538        74.7099 
 296   0.0000       2.771679        75.4212 
 297   0.0000       2.772941        75.4555 
 298   0.0000       2.792139        75.9780 
 299   0.0000       2.916950        79.3742 
 300   0.0000       2.946255        80.1717 
 301   0.0000       2.963959        80.6534 
 302   0.0000       3.004258        81.7500 
 303   0.0000       3.017704        82.1159 
 304   0.0000       3.058965        83.2387 
 305   0.0000       3.164941        86.1224 
 306   0.0000       3.184437        86.6529 
 307   0.0000       3.387600        92.1813 

                    ********************************
                    * MULLIKEN POPULATION ANALYSIS *
                    ********************************

-----------------------
MULLIKEN ATOMIC CHARGES
-----------------------
   0 C :   -0.562012
   1 H :    0.195440
   2 H :    0.200182
   3 H :    0.181602
   4 C :    0.529760
   5 O :   -0.534688
   6 N :   -0.370719
   7 C :   -0.245588
   8 H :    0.183027
   9 H :    0.205245
  10 C :   -0.169207
  11 H :    0.184504
  12 H :    0.180992
  13 C :   -0.370161
  14 H :    0.181213
  15 H :    0.170911
  16 C :    0.147143
  17 C :   -0.190838
  18 C :   -0.191461
  19 C :   -0.143649
  20 H :    0.167108
  21 C :   -0.141003
  22 H :    0.161573
  23 C :   -0.080817
  24 H :    0.174103
  25 H :    0.174655
  26 C :    0.519364
  27 N :   -0.357553
  28 O :   -0.538106
  29 C :   -0.348758
  30 H :    0.173819
  31 H :    0.174488
  32 H :    0.197017
  33 C :   -0.331170
  34 H :    0.173484
  35 H :    0.185015
  36 H :    0.173889
  37 Cl:   -0.058805
Sum of atomic charges:    0.0000000

--------------------------------
MULLIKEN REDUCED ORBITAL CHARGES
--------------------------------
  0 C s       :     3.324022  s :     3.324022
      pz      :     1.086876  p :     3.206106
      px      :     1.104020
      py      :     1.015211
      dz2     :     0.002901  d :     0.031885
      dxz     :     0.009786
      dyz     :     0.007070
      dx2y2   :     0.004373
      dxy     :     0.007755
  1 H s       :     0.804560  s :     0.804560
[...]
    107       0.029160  -0.525310  -0.005299   0.393892  -0.000183  -0.000416
    108       0.008796  -0.159712  -0.001541   0.115253  -0.000071  -0.000015
    109      -0.006450   0.116792   0.001120  -0.082630   0.000049  -0.000007
    110       0.004556  -0.082583  -0.000790   0.059177  -0.000036   0.000007
    111       0.000006  -0.000000   0.000004  -0.000001   0.000038  -0.000257
    112       0.000014   0.000000  -0.000012   0.000001   0.000030  -0.000019
    113       0.000006   0.000000  -0.000008  -0.000001   0.000019  -0.000027


-----------
IR SPECTRUM
-----------

 Mode   freq       eps      Int      T**2         TX        TY        TZ
       cm**-1   L/(mol*cm) km/mol    a.u.
----------------------------------------------------------------------------
  6:     22.94   0.000099    0.50  0.001347  ( 0.020384  0.029922  0.006003)
  7:     34.30   0.000053    0.27  0.000478  ( 0.008998 -0.019532 -0.003992)
  8:     39.45   0.000466    2.35  0.003684  (-0.057288 -0.005441 -0.019308)
  9:     55.42   0.001082    5.47  0.006090  ( 0.043808 -0.002010 -0.064554)
 10:     67.57   0.001094    5.53  0.005052  ( 0.029746 -0.053059 -0.036775)
 11:     79.17   0.000574    2.90  0.002263  (-0.032691  0.031398  0.014437)
 12:     82.72   0.000464    2.34  0.001750  (-0.010945  0.038918  0.010738)
 13:    104.85   0.001445    7.30  0.004302  (-0.007250  0.042131 -0.049741)
 14:    113.20   0.001488    7.52  0.004102  ( 0.008326  0.046985 -0.042725)
 15:    126.15   0.000952    4.81  0.002355  (-0.018769  0.044266 -0.006583)
 16:    149.68   0.000184    0.93  0.000383  ( 0.001499 -0.016667 -0.010129)
 17:    161.36   0.000406    2.05  0.000786  (-0.002944  0.027616 -0.003840)
 18:    167.21   0.000097    0.49  0.000180  ( 0.000941  0.005711  0.012114)
 19:    219.93   0.000181    0.91  0.000256  (-0.012428  0.004390  0.009092)
 20:    249.97   0.001460    7.38  0.001823  (-0.022913  0.032717  0.015084)
 21:    260.46   0.000445    2.25  0.000533  (-0.014067  0.017503  0.005361)
 22:    275.68   0.001898    9.59  0.002149  ( 0.036204 -0.028301  0.006091)
 23:    320.54   0.000714    3.61  0.000695  ( 0.005488 -0.025723  0.001709)
 24:    342.84   0.000898    4.54  0.000818  ( 0.009884  0.001431  0.026795)
 25:    368.49   0.002092   10.57  0.001772  (-0.012561  0.025253 -0.031249)
 26:    380.29   0.000753    3.80  0.000618  ( 0.005409 -0.014345  0.019559)
 27:    392.37   0.001733    8.76  0.001378  (-0.006015 -0.009723  0.035318)
 28:    421.06   0.000007    0.03  0.000005  ( 0.000834 -0.001848 -0.000983)
 29:    425.74   0.005754   29.08  0.004218  (-0.057282 -0.029293  0.008853)
 30:    436.02   0.000471    2.38  0.000337  (-0.017468  0.005504 -0.001355)
 31:    463.14   0.002723   13.76  0.001835  ( 0.040567  0.012807 -0.005010)
 32:    495.82   0.004494   22.71  0.002829  ( 0.026719 -0.041063 -0.020704)
 33:    524.69   0.005332   26.95  0.003171  ( 0.004180 -0.012630  0.054720)
 34:    579.91   0.004087   20.66  0.002200  (-0.009898 -0.038923  0.024219)
 35:    598.90   0.002363   11.94  0.001231  ( 0.015060  0.025374 -0.018988)
 36:    620.32   0.002759   13.94  0.001388  (-0.010703 -0.002303  0.035607)
 37:    645.62   0.000038    0.19  0.000018  ( 0.003734  0.001120  0.001746)
 38:    667.13   0.007367   37.23  0.003446  (-0.052918 -0.010125 -0.023303)
 39:    700.67   0.000349    1.76  0.000156  (-0.007980  0.005349 -0.007951)
 40:    728.62   0.001030    5.20  0.000441  ( 0.011645  0.012987 -0.011692)
 41:    764.57   0.003689   18.64  0.001506  ( 0.001607 -0.031574  0.022496)
 42:    784.55   0.002140   10.82  0.000851  (-0.019236  0.017902  0.012679)
 43:    816.94   0.007635   38.59  0.002917  ( 0.047393 -0.004689  0.025465)
 44:    830.53   0.005286   26.72  0.001986  ( 0.003586 -0.020028  0.039653)
 45:    847.07   0.000222    1.12  0.000082  (-0.001000 -0.001183  0.008918)
 46:    870.28   0.005144   26.00  0.001845  ( 0.004852  0.021661 -0.036766)
 47:    960.55   0.000550    2.78  0.000179  (-0.008300  0.004366 -0.009518)
 48:    967.53   0.000180    0.91  0.000058  ( 0.006518 -0.002184  0.003299)
 49:    982.14   0.000001    0.00  0.000000  ( 0.000407 -0.000187  0.000251)
 50:   1002.43   0.004926   24.89  0.001533  (-0.022523  0.009205 -0.030681)
 51:   1010.36   0.006705   33.88  0.002071  ( 0.030740  0.024062 -0.023385)
 52:   1026.96   0.010905   55.11  0.003314  (-0.057458 -0.003478 -0.000334)
 53:   1031.55   0.009996   50.51  0.003024  ( 0.036398  0.041107 -0.003038)
 54:   1032.76   0.005231   26.44  0.001581  ( 0.005949  0.011392  0.037625)
 55:   1061.45   0.002222   11.23  0.000653  (-0.001871  0.010447 -0.023255)
 56:   1088.52   0.003361   16.99  0.000964  (-0.023069 -0.019063 -0.008246)
 57:   1096.09   0.002599   13.13  0.000740  (-0.010411  0.006385 -0.024303)
 58:   1102.22   0.011933   60.31  0.003379  ( 0.057368  0.006709  0.006513)
 59:   1134.72   0.000617    3.12  0.000170  ( 0.001930  0.012867  0.000530)
 60:   1139.43   0.002608   13.18  0.000714  (-0.010758 -0.008502 -0.022937)
 61:   1171.02   0.014456   73.05  0.003852  (-0.041467  0.023876 -0.039532)
 62:   1184.37   0.000910    4.60  0.000240  ( 0.008384 -0.003442  0.012561)
 63:   1207.20   0.000047    0.24  0.000012  ( 0.002912 -0.000136  0.001901)
 64:   1218.43   0.010452   52.82  0.002677  (-0.003978 -0.019997 -0.047552)
 65:   1236.30   0.004022   20.33  0.001015  ( 0.025782  0.018357  0.003684)
 66:   1250.94   0.013779   69.63  0.003437  ( 0.036995  0.044636  0.008736)
 67:   1285.54   0.007948   40.17  0.001929  ( 0.008508  0.002051 -0.043045)
 68:   1289.73   0.033140  167.48  0.008019  (-0.020645 -0.085923 -0.014476)
 69:   1333.52   0.000276    1.40  0.000065  ( 0.003044  0.006768  0.003097)
 70:   1335.12   0.001140    5.76  0.000266  ( 0.010634  0.012377  0.000382)
 71:   1336.61   0.002467   12.47  0.000576  ( 0.017030  0.016680  0.002792)
 72:   1362.52   0.000521    2.64  0.000119  (-0.006995 -0.007297 -0.004153)
 73:   1372.44   0.000453    2.29  0.000103  (-0.006683  0.004068 -0.006473)
 74:   1406.25   0.013420   67.82  0.002978  (-0.052647 -0.005817  0.013129)
 75:   1414.66   0.007360   37.19  0.001624  (-0.026357 -0.028750 -0.010116)
 76:   1442.03   0.016022   80.97  0.003467  (-0.017719  0.023142 -0.051164)
 77:   1451.17   0.001574    7.96  0.000339  (-0.004433 -0.015100 -0.009532)
 78:   1457.49   0.016613   83.96  0.003557  (-0.003922  0.047705 -0.035579)
 79:   1475.17   0.050212  253.75  0.010622  (-0.069232 -0.072078 -0.025173)
 80:   1482.19   0.003449   17.43  0.000726  ( 0.021727 -0.015423 -0.004030)
 81:   1489.53   0.000651    3.29  0.000136  (-0.006231 -0.000385  0.009873)
 82:   1499.44   0.001685    8.52  0.000351  ( 0.005052  0.000136  0.018032)
 83:   1504.12   0.003410   17.23  0.000707  (-0.005360  0.020678  0.015848)
 84:   1510.05   0.002605   13.16  0.000538  ( 0.008345  0.021529  0.002287)
 85:   1512.86   0.003036   15.34  0.000626  (-0.005848 -0.024258  0.001877)
 86:   1517.67   0.003897   19.70  0.000801  ( 0.026267 -0.010443 -0.001544)
 87:   1530.67   0.005364   27.11  0.001094  (-0.029771 -0.002538 -0.014174)
 88:   1533.55   0.007562   38.22  0.001539  (-0.010635  0.019522  0.032321)
 89:   1535.57   0.022966  116.06  0.004667  ( 0.067517  0.005026  0.009130)
 90:   1554.72   0.017525   88.56  0.003518  (-0.004509 -0.036175  0.046782)
 91:   1630.79   0.000397    2.01  0.000076  ( 0.000162  0.008029  0.003394)
 92:   1650.35   0.000344    1.74  0.000065  ( 0.007986  0.000172  0.001075)
 93:   1701.54   0.202320  1022.44  0.037106  ( 0.155479  0.043829  0.104933)
 94:   1707.75   0.048665  245.93  0.008893  (-0.081308  0.002109  0.047721)
 95:   3036.11   0.005096   25.75  0.000524  (-0.015633 -0.016428 -0.003078)
 96:   3040.69   0.018339   92.68  0.001882  (-0.001823 -0.003983  0.043162)
 97:   3066.45   0.000597    3.02  0.000061  (-0.005780  0.005217  0.000341)
 98:   3077.49   0.003101   15.67  0.000314  (-0.009259 -0.007919 -0.012883)
 99:   3084.77   0.004519   22.84  0.000457  (-0.003393  0.009566  0.018817)
100:   3090.07   0.012601   63.68  0.001273  ( 0.020841 -0.002101  0.028875)
101:   3099.35   0.010681   53.98  0.001075  ( 0.025981 -0.019937  0.001707)
102:   3105.74   0.006424   32.47  0.000645  ( 0.019390 -0.016307  0.001900)
103:   3122.76   0.000714    3.61  0.000071  ( 0.004235 -0.007298  0.000427)
104:   3133.75   0.001853    9.36  0.000185  ( 0.000694  0.002717 -0.013291)
105:   3143.06   0.007969   40.27  0.000791  (-0.000541  0.027495  0.005912)
106:   3166.86   0.001659    8.38  0.000163  (-0.000496  0.011737 -0.005050)
107:   3171.02   0.002885   14.58  0.000284  (-0.014649 -0.007759 -0.003018)
108:   3193.00   0.000892    4.51  0.000087  (-0.005707  0.006973  0.002454)
109:   3194.34   0.001195    6.04  0.000117  ( 0.000548  0.009966  0.004135)
110:   3194.85   0.002587   13.07  0.000253  (-0.009316 -0.010868 -0.006915)
111:   3195.50   0.000484    2.45  0.000047  (-0.006731 -0.000604 -0.001274)
112:   3224.03   0.001352    6.83  0.000131  (-0.001479  0.010029  0.005302)
113:   3224.96   0.000283    1.43  0.000027  ( 0.005032  0.001357  0.000431)

* The epsilon (eps) is given for a Dirac delta lineshape.
** The dipole moment derivative (T) already includes vibrational overlap.

The first frequency considered to be a vibration is 6
The total number of vibrations considered is 108


--------------------------
THERMOCHEMISTRY AT 298.15K
--------------------------

Temperature         ... 298.15 K
Pressure            ... 1.00 atm
Total Mass          ... 282.77 AMU

Throughout the following assumptions are being made:
  (1) The electronic state is orbitally nondegenerate
  (2) There are no thermally accessible electronically excited states
  (3) Hindered rotations indicated by low frequency modes are not
      treated as such but are treated as vibrations and this may
      cause some error
  (4) All equations used are the standard statistical mechanics
      equations for an ideal gas
  (5) All vibrations are strictly harmonic

freq.      22.94  E(vib)   ...       0.56 
freq.      34.30  E(vib)   ...       0.54 
freq.      39.45  E(vib)   ...       0.54 
freq.      55.42  E(vib)   ...       0.52 
freq.      67.57  E(vib)   ...       0.50 
freq.      79.17  E(vib)   ...       0.49 
freq.      82.72  E(vib)   ...       0.48 
freq.     104.85  E(vib)   ...       0.46 
freq.     113.20  E(vib)   ...       0.45 
freq.     126.15  E(vib)   ...       0.43 
freq.     149.68  E(vib)   ...       0.40 
freq.     161.36  E(vib)   ...       0.39 
freq.     167.21  E(vib)   ...       0.39 
freq.     219.93  E(vib)   ...       0.33 
freq.     249.97  E(vib)   ...       0.31 
freq.     260.46  E(vib)   ...       0.30 
freq.     275.68  E(vib)   ...       0.28 
freq.     320.54  E(vib)   ...       0.25 
freq.     342.84  E(vib)   ...       0.23 
freq.     368.49  E(vib)   ...       0.21 
freq.     380.29  E(vib)   ...       0.21 
freq.     392.37  E(vib)   ...       0.20 
freq.     421.06  E(vib)   ...       0.18 
freq.     425.74  E(vib)   ...       0.18 
freq.     436.02  E(vib)   ...       0.17 
freq.     463.14  E(vib)   ...       0.16 
freq.     495.82  E(vib)   ...       0.14 
freq.     524.69  E(vib)   ...       0.13 
freq.     579.91  E(vib)   ...       0.11 
freq.     598.90  E(vib)   ...       0.10 
freq.     620.32  E(vib)   ...       0.09 
freq.     645.62  E(vib)   ...       0.09 
freq.     667.13  E(vib)   ...       0.08 
freq.     700.67  E(vib)   ...       0.07 
freq.     728.62  E(vib)   ...       0.06 
freq.     764.57  E(vib)   ...       0.06 
freq.     784.55  E(vib)   ...       0.05 
freq.     816.94  E(vib)   ...       0.05 
freq.     830.53  E(vib)   ...       0.04 
freq.     847.07  E(vib)   ...       0.04 
freq.     870.28  E(vib)   ...       0.04 
freq.     960.55  E(vib)   ...       0.03 
freq.     967.53  E(vib)   ...       0.03 
freq.     982.14  E(vib)   ...       0.02 
freq.    1002.43  E(vib)   ...       0.02 
freq.    1010.36  E(vib)   ...       0.02 
freq.    1026.96  E(vib)   ...       0.02 
freq.    1031.55  E(vib)   ...       0.02 
freq.    1032.76  E(vib)   ...       0.02 
freq.    1061.45  E(vib)   ...       0.02 
freq.    1088.52  E(vib)   ...       0.02 
freq.    1096.09  E(vib)   ...       0.02 
freq.    1102.22  E(vib)   ...       0.02 
freq.    1134.72  E(vib)   ...       0.01 
freq.    1139.43  E(vib)   ...       0.01 
freq.    1171.02  E(vib)   ...       0.01 
freq.    1184.37  E(vib)   ...       0.01 
freq.    1207.20  E(vib)   ...       0.01 
freq.    1218.43  E(vib)   ...       0.01 
freq.    1236.30  E(vib)   ...       0.01 
freq.    1250.94  E(vib)   ...       0.01 
freq.    1285.54  E(vib)   ...       0.01 
freq.    1289.73  E(vib)   ...       0.01 
freq.    1333.52  E(vib)   ...       0.01 
freq.    1335.12  E(vib)   ...       0.01 
freq.    1336.61  E(vib)   ...       0.01 
freq.    1362.52  E(vib)   ...       0.01 
freq.    1372.44  E(vib)   ...       0.01 
freq.    1406.25  E(vib)   ...       0.00 
freq.    1414.66  E(vib)   ...       0.00 
freq.    1442.03  E(vib)   ...       0.00 
freq.    1451.17  E(vib)   ...       0.00 
freq.    1457.49  E(vib)   ...       0.00 
freq.    1475.17  E(vib)   ...       0.00 
freq.    1482.19  E(vib)   ...       0.00 
freq.    1489.53  E(vib)   ...       0.00 
freq.    1499.44  E(vib)   ...       0.00 
freq.    1504.12  E(vib)   ...       0.00 
freq.    1510.05  E(vib)   ...       0.00 
freq.    1512.86  E(vib)   ...       0.00 
freq.    1517.67  E(vib)   ...       0.00 
freq.    1530.67  E(vib)   ...       0.00 
freq.    1533.55  E(vib)   ...       0.00 
freq.    1535.57  E(vib)   ...       0.00 
freq.    1554.72  E(vib)   ...       0.00 
freq.    1630.79  E(vib)   ...       0.00 
freq.    1650.35  E(vib)   ...       0.00 
freq.    1701.54  E(vib)   ...       0.00 
freq.    1707.75  E(vib)   ...       0.00 
freq.    3036.11  E(vib)   ...       0.00 
freq.    3040.69  E(vib)   ...       0.00 
freq.    3066.45  E(vib)   ...       0.00 
freq.    3077.49  E(vib)   ...       0.00 
freq.    3084.77  E(vib)   ...       0.00 
freq.    3090.07  E(vib)   ...       0.00 
freq.    3099.35  E(vib)   ...       0.00 
freq.    3105.74  E(vib)   ...       0.00 
freq.    3122.76  E(vib)   ...       0.00 
freq.    3133.75  E(vib)   ...       0.00 
freq.    3143.06  E(vib)   ...       0.00 
freq.    3166.86  E(vib)   ...       0.00 
freq.    3171.02  E(vib)   ...       0.00 
freq.    3193.00  E(vib)   ...       0.00 
freq.    3194.34  E(vib)   ...       0.00 
freq.    3194.85  E(vib)   ...       0.00 
freq.    3195.50  E(vib)   ...       0.00 
freq.    3224.03  E(vib)   ...       0.00 
freq.    3224.96  E(vib)   ...       0.00 

------------
INNER ENERGY
------------

The inner energy is: U= E(el) + E(ZPE) + E(vib) + E(rot) + E(trans)
    E(el)   - is the total energy from the electronic structure calculation
              = E(kin-el) + E(nuc-el) + E(el-el) + E(nuc-nuc)
    E(ZPE)  - the the zero temperature vibrational energy from the frequency calculation
    E(vib)  - the the finite temperature correction to E(ZPE) due to population
              of excited vibrational states
    E(rot)  - is the rotational thermal energy
    E(trans)- is the translational thermal energy

Summary of contributions to the inner energy U:
Electronic energy                ...  -1264.62589804 Eh
Zero point energy                ...      0.31673136 Eh     198.75 kcal/mol
Thermal vibrational correction   ...      0.01712335 Eh      10.75 kcal/mol
Thermal rotational correction    ...      0.00141627 Eh       0.89 kcal/mol
Thermal translational correction ...      0.00141627 Eh       0.89 kcal/mol
-----------------------------------------------------------------------
Total thermal energy                  -1264.28921078 Eh


Summary of corrections to the electronic energy:
(perhaps to be used in another calculation)
Total thermal correction                  0.01995589 Eh      12.52 kcal/mol
Non-thermal (ZPE) correction              0.31673136 Eh     198.75 kcal/mol
-----------------------------------------------------------------------
Total correction                          0.33668726 Eh     211.27 kcal/mol


--------
ENTHALPY
--------

The enthalpy is H = U + kB*T
                kB is Boltzmann's constant
Total free energy                 ...  -1264.28921078 Eh 
Thermal Enthalpy correction       ...      0.00094421 Eh       0.59 kcal/mol
-----------------------------------------------------------------------
Total Enthalpy                    ...  -1264.28826657 Eh


Note: Only C1 symmetry has been detected, increase convergence thresholds 
      if your molecule has a higher symmetry. Symmetry factor of 1.0 is   
      used for the rotational entropy correction. 
 

Note: Rotational entropy computed according to Herzberg 
Infrared and Raman Spectra, Chapter V,1, Van Nostrand Reinhold, 1945 
Point Group:  C1, Symmetry Number:   1  
Rotational constants in cm-1:     0.019477     0.005267     0.004534 

Vibrational entropy computed according to the QRRHO of S. Grimme
Chem.Eur.J. 2012 18 9955


-------
ENTROPY
-------

The entropy contributions are T*S = T*(S(el)+S(vib)+S(rot)+S(trans))
     S(el)   - electronic entropy
     S(vib)  - vibrational entropy
     S(rot)  - rotational entropy
     S(trans)- translational entropy
The entropies will be listed as multiplied by the temperature to get
units of energy

Electronic entropy                ...      0.00000000 Eh      0.00 kcal/mol
Vibrational entropy               ...      0.03092203 Eh     19.40 kcal/mol
Rotational entropy                ...      0.01639439 Eh     10.29 kcal/mol
Translational entropy             ...      0.02034341 Eh     12.77 kcal/mol
-----------------------------------------------------------------------
Final entropy term                ...      0.06765983 Eh     42.46 kcal/mol

In case the symmetry of your molecule has not been determined correctly
or in case you have a reason to use a different symmetry number we print 
out the resulting rotational entropy values for sn=1,12 :
 --------------------------------------------------------
|  sn= 1 | S(rot)=       0.01639439 Eh     10.29 kcal/mol|
|  sn= 2 | S(rot)=       0.01573994 Eh      9.88 kcal/mol|
|  sn= 3 | S(rot)=       0.01535710 Eh      9.64 kcal/mol|
|  sn= 4 | S(rot)=       0.01508548 Eh      9.47 kcal/mol|
|  sn= 5 | S(rot)=       0.01487479 Eh      9.33 kcal/mol|
|  sn= 6 | S(rot)=       0.01470265 Eh      9.23 kcal/mol|
|  sn= 7 | S(rot)=       0.01455710 Eh      9.13 kcal/mol|
|  sn= 8 | S(rot)=       0.01443102 Eh      9.06 kcal/mol|
|  sn= 9 | S(rot)=       0.01431982 Eh      8.99 kcal/mol|
|  sn=10 | S(rot)=       0.01422034 Eh      8.92 kcal/mol|
|  sn=11 | S(rot)=       0.01413035 Eh      8.87 kcal/mol|
|  sn=12 | S(rot)=       0.01404819 Eh      8.82 kcal/mol|
 --------------------------------------------------------


-------------------
GIBBS FREE ENERGY
-------------------

The Gibbs free energy is G = H - T*S

Total enthalpy                    ...  -1264.28826657 Eh 
Total entropy correction          ...     -0.06765983 Eh    -42.46 kcal/mol
-----------------------------------------------------------------------
Final Gibbs free energy         ...  -1264.35592641 Eh

For completeness - the Gibbs free energy minus the electronic energy
G-E(el)                           ...      0.26997163 Eh    169.41 kcal/mol


Timings for individual modules:

Sum of individual times         ...     2434.774 sec (=  40.580 min)
GTO integral calculation        ...       21.237 sec (=   0.354 min)   0.9 %
SCF iterations                  ...     1038.753 sec (=  17.313 min)  42.7 %
SCF Gradient evaluation         ...      290.958 sec (=   4.849 min)  12.0 %
Geometry relaxation             ...        1.264 sec (=   0.021 min)   0.1 %
Analytical frequency calculation...     1082.563 sec (=  18.043 min)  44.5 %
                             ****ORCA TERMINATED NORMALLY****
TOTAL RUN TIME: 0 days 0 hours 40 minutes 40 seconds 103 msec
