
                                 *****************
                                 * O   R   C   A *
                                 *****************

                                            #,                                       
                                            ###                                      
                                            ####                                     
                                            #####                                    
                                            ######                                   
                                           ########,                                 
                                     ,,################,,,,,                         
                               ,,#################################,,                 
                          ,,##########################################,,             
                       ,#########################################, ''#####,          
                    ,#############################################,,   '####,        
                  ,##################################################,,,,####,       
                ,###########''''           ''''###############################       
              ,#####''   ,,,,##########,,,,          '''####'''          '####       
            ,##' ,,,,###########################,,,                        '##       
           ' ,,###''''                  '''############,,,                           
         ,,##''                                '''############,,,,        ,,,,,,###''
      ,#''                                            '''#######################'''  
     '                                                          ''''####''''         
             ,#######,   #######,   ,#######,      ##                                
            ,#'     '#,  ##    ##  ,#'     '#,    #''#        ######   ,####,        
            ##       ##  ##   ,#'  ##            #'  '#       #        #'  '#        
            ##       ##  #######   ##           ,######,      #####,   #    #        
            '#,     ,#'  ##    ##  '#,     ,#' ,#      #,         ##   #,  ,#        
             '#######'   ##     ##  '#######'  #'      '#     #####' # '####'        



                  #######################################################
                  #                        -***-                        #
                  #          Department of theory and spectroscopy      #
                  #    Directorship and core code : Frank Neese         #
                  #        Max Planck Institute fuer Kohlenforschung    #
                  #                Kaiser Wilhelm Platz 1               #
                  #                 D-45470 Muelheim/Ruhr               #
                  #                      Germany                        #
                  #                                                     #
                  #                  All rights reserved                #
                  #                        -***-                        #
                  #######################################################


                         Program Version 5.0.4 -  RELEASE  -


 With contributions from (in alphabetic order):
   Daniel Aravena         : Magnetic Suceptibility
   Michael Atanasov       : Ab Initio Ligand Field Theory (pilot matlab implementation)
   Alexander A. Auer      : GIAO ZORA, VPT2 properties, NMR spectrum
   Ute Becker             : Parallelization
   Giovanni Bistoni       : ED, misc. LED, open-shell LED, HFLD
   Martin Brehm           : Molecular dynamics
   Dmytro Bykov           : SCF Hessian
   Vijay G. Chilkuri      : MRCI spin determinant printing, contributions to CSF-ICE
   Dipayan Datta          : RHF DLPNO-CCSD density
   Achintya Kumar Dutta   : EOM-CC, STEOM-CC
   Dmitry Ganyushin       : Spin-Orbit,Spin-Spin,Magnetic field MRCI
   Miquel Garcia          : C-PCM and meta-GGA Hessian, CC/C-PCM, Gaussian charge scheme
   Yang Guo               : DLPNO-NEVPT2, F12-NEVPT2, CIM, IAO-localization
   Andreas Hansen         : Spin unrestricted coupled pair/coupled cluster methods
   Benjamin Helmich-Paris : MC-RPA, TRAH-SCF, COSX integrals
   Lee Huntington         : MR-EOM, pCC
   Robert Izsak           : Overlap fitted RIJCOSX, COSX-SCS-MP3, EOM
   Marcus Kettner         : VPT2
   Christian Kollmar      : KDIIS, OOCD, Brueckner-CCSD(T), CCSD density, CASPT2, CASPT2-K
   Simone Kossmann        : Meta GGA functionals, TD-DFT gradient, OOMP2, MP2 Hessian
   Martin Krupicka        : Initial AUTO-CI
   Lucas Lang             : DCDCAS
   Marvin Lechner         : AUTO-CI (C++ implementation), FIC-MRCC
   Dagmar Lenk            : GEPOL surface, SMD
   Dimitrios Liakos       : Extrapolation schemes; Compound Job, initial MDCI parallelization
   Dimitrios Manganas     : Further ROCIS development; embedding schemes
   Dimitrios Pantazis     : SARC Basis sets
   Anastasios Papadopoulos: AUTO-CI, single reference methods and gradients
   Taras Petrenko         : DFT Hessian,TD-DFT gradient, ASA, ECA, R-Raman, ABS, FL, XAS/XES, NRVS
   Peter Pinski           : DLPNO-MP2, DLPNO-MP2 Gradient
   Christoph Reimann      : Effective Core Potentials
   Marius Retegan         : Local ZFS, SOC
   Christoph Riplinger    : Optimizer, TS searches, QM/MM, DLPNO-CCSD(T), (RO)-DLPNO pert. Triples
   Tobias Risthaus        : Range-separated hybrids, TD-DFT gradient, RPA, STAB
   Michael Roemelt        : Original ROCIS implementation
   Masaaki Saitow         : Open-shell DLPNO-CCSD energy and density
   Barbara Sandhoefer     : DKH picture change effects
   Avijit Sen             : IP-ROCIS
   Kantharuban Sivalingam : CASSCF convergence, NEVPT2, FIC-MRCI
   Bernardo de Souza      : ESD, SOC TD-DFT
   Georgi Stoychev        : AutoAux, RI-MP2 NMR, DLPNO-MP2 response
   Willem Van den Heuvel  : Paramagnetic NMR
   Boris Wezisla          : Elementary symmetry handling
   Frank Wennmohs         : Technical directorship


 We gratefully acknowledge several colleagues who have allowed us to
 interface, adapt or use parts of their codes:
   Stefan Grimme, W. Hujo, H. Kruse, P. Pracht,  : VdW corrections, initial TS optimization,
                  C. Bannwarth, S. Ehlert          DFT functionals, gCP, sTDA/sTD-DF
   Ed Valeev, F. Pavosevic, A. Kumar             : LibInt (2-el integral package), F12 methods
   Garnet Chan, S. Sharma, J. Yang, R. Olivares  : DMRG
   Ulf Ekstrom                                   : XCFun DFT Library
   Mihaly Kallay                                 : mrcc  (arbitrary order and MRCC methods)
   Jiri Pittner, Ondrej Demel                    : Mk-CCSD
   Frank Weinhold                                : gennbo (NPA and NBO analysis)
   Christopher J. Cramer and Donald G. Truhlar   : smd solvation model
   Lars Goerigk                                  : TD-DFT with DH, B97 family of functionals
   V. Asgeirsson, H. Jonsson                     : NEB implementation
   FAccTs GmbH                                   : IRC, NEB, NEB-TS, DLPNO-Multilevel, CI-OPT
                                                   MM, QMMM, 2- and 3-layer-ONIOM, Crystal-QMMM,
                                                   LR-CPCM, SF, NACMEs, symmetry and pop. for TD-DFT,
                                                   nearIR, NL-DFT gradient (VV10), updates on ESD,
                                                   ML-optimized integration grids
   S Lehtola, MJT Oliveira, MAL Marques          : LibXC Library
   Liviu Ungur et al                             : ANISO software


 Your calculation uses the libint2 library for the computation of 2-el integrals
 For citations please refer to: http://libint.valeyev.net

 Your ORCA version has been built with support for libXC version: 5.1.0
 For citations please refer to: https://tddft.org/programs/libxc/

 This ORCA versions uses:
   CBLAS   interface :  Fast vector & matrix operations
   LAPACKE interface :  Fast linear algebra routines
   SCALAPACK package :  Parallel linear algebra routines
   Shared memory     :  Shared parallel matrices
   BLAS/LAPACK       :  OpenBLAS 0.3.15  USE64BITINT DYNAMIC_ARCH NO_AFFINITY SkylakeX SINGLE_THREADED
        Core in use  :  SkylakeX
   Copyright (c) 2011-2014, The OpenBLAS Project




***************************************
The coordinates will be read from file: /users/fjb15167/WWenergy/structures/Nfp.xyz
***************************************


Your calculation utilizes the atom-pairwise dispersion correction
based on tight binding partial charges (D4)
Cite in your paper:
E.Caldeweyher, C.Bannwarth, S.Grimme, J.Chem.Phys., (2017), 147, 034112.
E.Caldeweyher, S.Ehlert, A.Hansen, H.Neugebauer, S.Grimme, J.Chem.Phys., (2018), in progress.
   

================================================================================

----- Orbital basis set information -----
Your calculation utilizes the basis: 6-31G(d)
   H-He, Li-Ne : W. J. Hehre, R. Ditchfield and J.A. Pople, J. Chem. Phys. 56, 2257 (1972).
                 Note: He and Ne are unpublished basis sets taken from the Gaussian program.
                 Note: Li and B from J. D. Dill and J. A. Pople, J. Chem. Phys. 62, 2921 (1975).
   Na - Ar     : M. M. Francl, W. J. Pietro, W. J. Hehre, J. S. Binkley, M. S. Gordon, 
                 D. J. DeFrees and J. A. Pople, J. Chem. Phys. 77, 3654 (1982).
   K - Zn      : V. A. Rassolov, J. A. Pople, M. A. Ratner, and T. L. Windus, J. Chem. Phys. 109, 1223 (1998).

----- AuxJ basis set information -----
Your calculation utilizes the AutoAux generation procedure.
  G. L. Stoychev, A. A. Auer, F. Neese, J. Chem. Theory Comput. 13, 554 (2017)

----- AuxC basis set information -----
Your calculation utilizes the AutoAux generation procedure.
  G. L. Stoychev, A. A. Auer, F. Neese, J. Chem. Theory Comput. 13, 554 (2017)

----- AuxJK basis set information -----
Your calculation utilizes the AutoAux generation procedure.
  G. L. Stoychev, A. A. Auer, F. Neese, J. Chem. Theory Comput. 13, 554 (2017)

================================================================================
                                        WARNINGS
                       Please study these warnings very carefully!
================================================================================


WARNING: Geometry Optimization
  ===> : Switching off AutoStart
         For restart on a previous wavefunction, please use MOREAD

INFO   : the flag for use of the SHARK integral package has been found!

================================================================================
                                       INPUT FILE
================================================================================
NAME = Nfp_gas.inp
|  1> ! OPT FREQ B3LYP 6-31G(d) D4 AUTOAUX
|  2> 
|  3> %PAL NPROCS 4 END
|  4> 
|  5> %maxcore 3375
|  6> 
|  7> *xyzfile 0 1 /users/fjb15167/WWenergy/structures/Nfp.xyz
|  8> 
|  9>                          ****END OF INPUT****
================================================================================

                       *****************************
                       * Geometry Optimization Run *
                       *****************************

Geometry optimization settings:
Update method            Update   .... BFGS
Choice of coordinates    CoordSys .... Z-matrix Internals
Initial Hessian          InHess   .... Almoef's Model

Convergence Tolerances:
Energy Change            TolE     ....  5.0000e-06 Eh
Max. Gradient            TolMAXG  ....  3.0000e-04 Eh/bohr
RMS Gradient             TolRMSG  ....  1.0000e-04 Eh/bohr
Max. Displacement        TolMAXD  ....  4.0000e-03 bohr
RMS Displacement         TolRMSD  ....  2.0000e-03 bohr
Strict Convergence                ....  False
------------------------------------------------------------------------------
                        ORCA OPTIMIZATION COORDINATE SETUP
------------------------------------------------------------------------------

The optimization will be done in new redundant internal coordinates
Making redundant internal coordinates   ...  (new redundants) done
Evaluating the initial hessian          ...  (Almloef) done
Evaluating the coordinates              ...  done
Calculating the B-matrix                .... done
Calculating the G-matrix                .... done
Diagonalizing the G-matrix              .... done
Small eigenvalue found = 2.875e-03
Small eigenvalue found = 5.228e-03
Small eigenvalue found = 1.052e-02
Small eigenvalue found = 1.267e-02
Small eigenvalue found = 1.464e-02
Small eigenvalue found = 2.125e-02
The first mode is                       ....   89
The number of degrees of freedom        ....  117

    -----------------------------------------------------------------
                    Redundant Internal Coordinates


    -----------------------------------------------------------------
         Definition                    Initial Value    Approx d2E/dq
    -----------------------------------------------------------------
      1. B(H   1,C   0)                  1.0929         0.356308   
      2. B(H   2,C   0)                  1.0943         0.354510   
      3. B(H   3,C   0)                  1.0886         0.362003   
      4. B(C   4,C   0)                  1.5155         0.393980   
      5. B(O   5,C   4)                  1.2395         0.972610   
      6. B(N   6,C   4)                  1.3721         0.597633   
      7. B(C   7,N   6)                  1.4608         0.431512   
      8. B(H   8,C   7)                  1.0956         0.352828   
      9. B(H   9,C   7)                  1.0903         0.359659   
     10. B(C  10,N   6)                  1.4635         0.427122   
     11. B(H  11,C  10)                  1.0946         0.354042   
     12. B(H  12,C  10)                  1.0950         0.353555   
     13. B(C  13,C  10)                  1.5291         0.374852   
     14. B(H  14,C  13)                  1.0916         0.358000   
     15. B(H  15,C  13)                  1.0971         0.350857   
     16. B(C  16,C   7)                  1.5259         0.379294   
     17. B(N  17,C  16)                  1.3640         0.615634   
     18. B(O  18,C  16)                  1.2422         0.963206   
     19. B(C  19,N  17)                  1.4563         0.438689   
     20. B(H  20,C  19)                  1.0971         0.350805   
     21. B(H  21,C  19)                  1.0937         0.355264   
     22. B(H  22,C  19)                  1.0878         0.363047   
     23. B(C  23,N  17)                  1.4565         0.438316   
     24. B(H  24,C  23)                  1.0968         0.351268   
     25. B(H  25,C  23)                  1.0885         0.362064   
     26. B(H  26,C  23)                  1.0933         0.355756   
     27. B(C  27,C  13)                  1.5341         0.367972   
     28. B(H  28,C  27)                  1.0972         0.350661   
     29. B(H  29,C  27)                  1.0974         0.350380   
     30. B(C  30,C  27)                  1.5055         0.408802   
     31. B(C  31,C  30)                  1.4038         0.593839   
     32. B(C  32,C  30)                  1.3987         0.605176   
     33. B(C  33,C  31)                  1.3949         0.613582   
     34. B(H  34,H  24)                  2.7401         0.000161   
     35. B(H  34,C  31)                  1.0902         0.359854   
     36. B(C  35,C  32)                  1.3974         0.608083   
     37. B(H  36,C  32)                  1.0896         0.360644   
     38. B(C  37,C  35)                  1.3961         0.610853   
     39. B(C  37,C  33)                  1.3979         0.606837   
     40. B(H  38,C  33)                  1.0879         0.362875   
     41. B(H  39,C  35)                  1.0873         0.363638   
     42. B(H  40,C  37)                  1.0878         0.362969   
     43. A(H   1,C   0,H   2)          108.0852         0.289645   
     44. A(H   2,C   0,C   4)          110.8826         0.326327   
     45. A(H   1,C   0,C   4)          112.2672         0.326599   
     46. A(H   1,C   0,H   3)          109.5316         0.290597   
     47. A(H   2,C   0,H   3)          108.8838         0.290366   
     48. A(H   3,C   0,C   4)          107.1420         0.327453   
     49. A(C   0,C   4,O   5)          121.0209         0.430982   
     50. A(C   0,C   4,N   6)          116.9438         0.395290   
     51. A(O   5,C   4,N   6)          122.0322         0.461712   
     52. A(C   7,N   6,C  10)          115.9003         0.376389   
     53. A(C   4,N   6,C  10)          124.8043         0.398374   
     54. A(C   4,N   6,C   7)          119.2539         0.399091   
     55. A(H   8,C   7,C  16)          105.4316         0.324042   
     56. A(N   6,C   7,C  16)          111.2875         0.371088   
     57. A(N   6,C   7,H   9)          107.8145         0.330057   
     58. A(H   8,C   7,H   9)          109.0308         0.289854   
     59. A(N   6,C   7,H   8)          109.5302         0.329013   
     60. A(H   9,C   7,C  16)          113.6776         0.325064   
     61. A(H  12,C  10,C  13)          108.9772         0.323525   
     62. A(H  11,C  10,C  13)          111.1197         0.323598   
     63. A(N   6,C  10,C  13)          113.1015         0.369686   
     64. A(H  11,C  10,H  12)          107.0604         0.289233   
     65. A(N   6,C  10,H  11)          109.8007         0.328645   
     66. A(N   6,C  10,H  12)          106.4954         0.328570   
     67. A(H  14,C  13,H  15)          106.6864         0.289390   
     68. A(H  15,C  13,C  27)          109.8992         0.322139   
     69. A(C  10,C  13,H  15)          110.5138         0.323119   
     70. A(C  10,C  13,H  14)          108.8137         0.324189   
     71. A(H  14,C  13,C  27)          108.2757         0.323205   
     72. A(C  10,C  13,C  27)          112.4527         0.362626   
     73. A(N  17,C  16,O  18)          122.4283         0.463400   
     74. A(C   7,C  16,O  18)          119.3897         0.427310   
     75. A(C   7,C  16,N  17)          118.1714         0.394714   
     76. A(C  16,N  17,C  19)          124.7115         0.402348   
     77. A(C  19,N  17,C  23)          115.5896         0.379158   
     78. A(C  16,N  17,C  23)          117.5912         0.402288   
     79. A(H  21,C  19,H  22)          108.7532         0.290594   
     80. A(H  20,C  19,H  22)          108.4628         0.290019   
     81. A(N  17,C  19,H  22)          111.8409         0.331473   
     82. A(H  20,C  19,H  21)          108.3478         0.289035   
     83. A(N  17,C  19,H  21)          108.9333         0.330286   
     84. A(N  17,C  19,H  20)          110.4256         0.329598   
     85. A(H  25,C  23,H  26)          110.0741         0.290534   
     86. A(H  24,C  23,H  26)          109.0488         0.289158   
     87. A(N  17,C  23,H  26)          108.7174         0.330316   
     88. A(H  24,C  23,H  25)          108.9400         0.289955   
     89. A(N  17,C  23,H  25)          108.7626         0.331277   
     90. A(N  17,C  23,H  24)          111.2906         0.329623   
     91. A(H  29,C  27,C  30)          109.1645         0.327685   
     92. A(H  28,C  27,C  30)          110.4745         0.327728   
     93. A(C  13,C  27,C  30)          110.6722         0.368049   
     94. A(H  28,C  27,H  29)          107.0838         0.288391   
     95. A(C  13,C  27,H  29)          108.6937         0.322067   
     96. A(C  13,C  27,H  28)          110.6553         0.322110   
     97. A(C  31,C  30,C  32)          118.8613         0.428849   
     98. A(C  27,C  30,C  32)          121.9821         0.401309   
     99. A(C  27,C  30,C  31)          119.0820         0.399975   
    100. A(C  33,C  31,H  34)          120.3175         0.352247   
    101. A(C  30,C  31,H  34)          119.1006         0.350306   
    102. A(C  30,C  31,C  33)          120.5806         0.429912   
    103. A(C  35,C  32,H  36)          119.7833         0.351842   
    104. A(C  30,C  32,H  36)          119.5214         0.351557   
    105. A(C  30,C  32,C  35)          120.6915         0.430677   
    106. A(C  37,C  33,H  38)          120.0448         0.352087   
    107. A(C  31,C  33,H  38)          119.8516         0.352746   
    108. A(C  31,C  33,C  37)          120.1028         0.431586   
    109. A(C  37,C  35,H  39)          120.0779         0.352605   
    110. A(C  32,C  35,H  39)          119.8795         0.352334   
    111. A(C  32,C  35,C  37)          120.0426         0.431400   
    112. A(C  35,C  37,H  40)          120.0935         0.352495   
    113. A(C  33,C  37,H  40)          120.1862         0.352102   
    114. A(C  33,C  37,C  35)          119.7187         0.431241   
    115. D(N   6,C   4,C   0,H   1)     52.7816         0.011536   
    116. D(O   5,C   4,C   0,H   1)   -127.8410         0.011536   
    117. D(O   5,C   4,C   0,H   2)    111.1451         0.011536   
    118. D(N   6,C   4,C   0,H   2)    -68.2323         0.011536   
    119. D(O   5,C   4,C   0,H   3)     -7.5523         0.011536   
    120. D(N   6,C   4,C   0,H   3)    173.0703         0.011536   
    121. D(C   7,N   6,C   4,C   0)    175.2400         0.028763   
    122. D(C   7,N   6,C   4,O   5)     -4.1306         0.028763   
    123. D(C  10,N   6,C   4,C   0)     -2.3151         0.028763   
    124. D(C  10,N   6,C   4,O   5)    178.3143         0.028763   
    125. D(H   9,C   7,N   6,C  10)    178.0436         0.015875   
    126. D(H   9,C   7,N   6,C   4)      0.2752         0.015875   
    127. D(H   8,C   7,N   6,C  10)     59.5284         0.015875   
    128. D(C  16,C   7,N   6,C   4)    125.5788         0.015875   
    129. D(C  16,C   7,N   6,C  10)    -56.6528         0.015875   
    130. D(H   8,C   7,N   6,C   4)   -118.2400         0.015875   
    131. D(C  13,C  10,N   6,C   7)     91.8810         0.015554   
    132. D(C  13,C  10,N   6,C   4)    -90.4903         0.015554   
    133. D(H  12,C  10,N   6,C   7)    -27.7911         0.015554   
    134. D(H  12,C  10,N   6,C   4)    149.8376         0.015554   
    135. D(H  11,C  10,N   6,C   7)   -143.3740         0.015554   
    136. D(H  11,C  10,N   6,C   4)     34.2547         0.015554   
    137. D(H  15,C  13,C  10,H  12)   -168.5671         0.011216   
    138. D(C  27,C  13,C  10,H  11)     72.3886         0.011216   
    139. D(H  15,C  13,C  10,H  11)    -50.8303         0.011216   
    140. D(H  15,C  13,C  10,N   6)     73.1957         0.011216   
    141. D(H  14,C  13,C  10,H  12)     74.6025         0.011216   
    142. D(C  27,C  13,C  10,N   6)   -163.5855         0.011216   
    143. D(H  14,C  13,C  10,H  11)   -167.6607         0.011216   
    144. D(C  27,C  13,C  10,H  12)    -45.3482         0.011216   
    145. D(H  14,C  13,C  10,N   6)    -43.6348         0.011216   
    146. D(O  18,C  16,C   7,H   9)   -139.6925         0.010738   
    147. D(O  18,C  16,C   7,H   8)    -20.3250         0.010738   
    148. D(O  18,C  16,C   7,N   6)     98.3444         0.010738   
    149. D(N  17,C  16,C   7,H   9)     41.4603         0.010738   
    150. D(N  17,C  16,C   7,H   8)    160.8278         0.010738   
    151. D(N  17,C  16,C   7,N   6)    -80.5028         0.010738   
    152. D(C  23,N  17,C  16,O  18)     -3.2413         0.030656   
    153. D(C  23,N  17,C  16,C   7)    175.5687         0.030656   
    154. D(C  19,N  17,C  16,O  18)   -165.9628         0.030656   
    155. D(C  19,N  17,C  16,C   7)     12.8472         0.030656   
    156. D(H  22,C  19,N  17,C  16)    -20.7003         0.016410   
    157. D(H  21,C  19,N  17,C  23)     56.0278         0.016410   
    158. D(H  21,C  19,N  17,C  16)   -140.9420         0.016410   
    159. D(H  20,C  19,N  17,C  23)    -62.8447         0.016410   
    160. D(H  22,C  19,N  17,C  23)    176.2694         0.016410   
    161. D(H  20,C  19,N  17,C  16)    100.1855         0.016410   
    162. D(H  26,C  23,N  17,C  19)    -45.6811         0.016382   
    163. D(H  26,C  23,N  17,C  16)    150.0254         0.016382   
    164. D(H  25,C  23,N  17,C  19)   -165.5382         0.016382   
    165. D(H  25,C  23,N  17,C  16)     30.1683         0.016382   
    166. D(H  24,C  23,N  17,C  19)     74.4432         0.016382   
    167. D(H  24,C  23,N  17,C  16)    -89.8503         0.016382   
    168. D(C  30,C  27,C  13,H  15)    -70.8284         0.010832   
    169. D(C  30,C  27,C  13,H  14)     45.3476         0.010832   
    170. D(C  30,C  27,C  13,C  10)    165.6095         0.010832   
    171. D(H  29,C  27,C  13,H  15)    169.2985         0.010832   
    172. D(H  29,C  27,C  13,H  14)    -74.5255         0.010832   
    173. D(H  29,C  27,C  13,C  10)     45.7364         0.010832   
    174. D(H  28,C  27,C  13,H  15)     51.9766         0.010832   
    175. D(H  28,C  27,C  13,H  14)    168.1526         0.010832   
    176. D(H  28,C  27,C  13,C  10)    -71.5854         0.010832   
    177. D(C  31,C  30,C  27,C  13)    -74.7789         0.012380   
    178. D(C  32,C  30,C  27,H  29)   -138.3647         0.012380   
    179. D(C  32,C  30,C  27,H  28)    -20.8651         0.012380   
    180. D(C  32,C  30,C  27,C  13)    102.0450         0.012380   
    181. D(C  31,C  30,C  27,H  29)     44.8114         0.012380   
    182. D(C  31,C  30,C  27,H  28)    162.3110         0.012380   
    183. D(H  34,C  31,C  30,C  32)   -179.9138         0.024284   
    184. D(H  34,C  31,C  30,C  27)     -2.9898         0.024284   
    185. D(C  33,C  31,C  30,C  32)      0.5044         0.024284   
    186. D(C  33,C  31,C  30,C  27)    177.4283         0.024284   
    187. D(H  36,C  32,C  30,C  31)   -179.8016         0.025271   
    188. D(H  36,C  32,C  30,C  27)      3.3677         0.025271   
    189. D(C  35,C  32,C  30,C  31)     -0.5208         0.025271   
    190. D(C  35,C  32,C  30,C  27)   -177.3514         0.025271   
    191. D(H  38,C  33,C  31,H  34)     -0.3039         0.026019   
    192. D(H  38,C  33,C  31,C  30)    179.2728         0.026019   
    193. D(C  37,C  33,C  31,H  34)   -179.9554         0.026019   
    194. D(C  37,C  33,C  31,C  30)     -0.3786         0.026019   
    195. D(H  39,C  35,C  32,H  36)     -0.3198         0.025528   
    196. D(H  39,C  35,C  32,C  30)   -179.5988         0.025528   
    197. D(C  37,C  35,C  32,H  36)    179.6906         0.025528   
    198. D(C  37,C  35,C  32,C  30)      0.4116         0.025528   
    199. D(H  40,C  37,C  35,H  39)      0.1992         0.025775   
    200. D(H  40,C  37,C  35,C  32)   -179.8113         0.025775   
    201. D(C  33,C  37,C  35,H  39)    179.7349         0.025775   
    202. D(C  33,C  37,C  35,C  32)     -0.2755         0.025775   
    203. D(H  40,C  37,C  33,H  38)      0.1445         0.025418   
    204. D(H  40,C  37,C  33,C  31)    179.7953         0.025418   
    205. D(C  35,C  37,C  33,H  38)   -179.3908         0.025418   
    206. D(C  35,C  37,C  33,C  31)      0.2599         0.025418   
    -----------------------------------------------------------------

Number of atoms                         .... 41
Number of degrees of freedom            .... 206

         *************************************************************
         *                GEOMETRY OPTIMIZATION CYCLE   1            *
         *************************************************************
---------------------------------
CARTESIAN COORDINATES (ANGSTROEM)
---------------------------------
  C      2.880000   -2.686000   -0.892000
  H      1.841000   -2.823000   -1.202000
  H      3.083000   -3.378000   -0.069000
  H      3.542000   -2.923000   -1.723000
  C      3.173000   -1.257000   -0.481000
  O      4.126000   -0.634000   -0.971000
  N      2.346000   -0.699000    0.461000
  C      2.644000    0.637000    0.971000
  H      2.832000    0.584000    2.049000
  H      3.545000    0.992000    0.470000
  C      1.185000   -1.365000    1.053000
  H      1.383000   -2.437000    1.152000
  H      1.079000   -0.963000    2.066000
  C     -0.110000   -1.113000    0.280000
  H     -0.160000   -0.056000    0.012000
  H     -0.112000   -1.677000   -0.661000
  C      1.447000    1.570000    0.813000
  N      1.230000    2.138000   -0.408000
  O      0.697000    1.769000    1.783000
  C      1.885000    1.727000   -1.642000
  H      1.220000    1.085000   -2.233000
  H      2.119000    2.617000   -2.233000
  H      2.807000    1.183000   -1.449000
  C      0.030000    2.947000   -0.572000
  H     -0.818000    2.338000   -0.908000
  H     -0.219000    3.402000    0.385000
  H      0.229000    3.723000   -1.316000
  C     -1.359000   -1.461000    1.100000
  H     -1.458000   -2.548000    1.212000
  H     -1.246000   -1.042000    2.108000
  C     -2.593000   -0.883000    0.460000
  C     -2.834000    0.496000    0.565000
  C     -3.474000   -1.667000   -0.292000
  C     -3.939000    1.073000   -0.061000
  H     -2.149000    1.111000    1.149000
  C     -4.582000   -1.092000   -0.920000
  H     -3.299000   -2.739000   -0.378000
  C     -4.815000    0.280000   -0.808000
  H     -4.121000    2.141000    0.038000
  H     -5.262000   -1.715000   -1.496000
  H     -5.679000    0.728000   -1.294000

----------------------------
CARTESIAN COORDINATES (A.U.)
----------------------------
  NO LB      ZA    FRAG     MASS         X           Y           Z
   0 C     6.0000    0    12.011    5.442411   -5.075804   -1.685636
   1 H     1.0000    0     1.008    3.478986   -5.334697   -2.271451
   2 H     1.0000    0     1.008    5.826026   -6.383495   -0.130391
   3 H     1.0000    0     1.008    6.693410   -5.523669   -3.255998
   4 C     6.0000    0    12.011    5.996101   -2.375386   -0.908958
   5 O     8.0000    0    15.999    7.797010   -1.198086   -1.834924
   6 N     7.0000    0    14.007    4.433298   -1.320919    0.871164
   7 C     6.0000    0    12.011    4.996436    1.203756    1.834924
   8 H     1.0000    0     1.008    5.351704    1.103600    3.872049
   9 H     1.0000    0     1.008    6.699079    1.874608    0.888171
  10 C     6.0000    0    12.011    2.239325   -2.579476    1.989882
  11 H     1.0000    0     1.008    2.613491   -4.605263    2.176965
  12 H     1.0000    0     1.008    2.039014   -1.819806    3.904174
  13 C     6.0000    0    12.011   -0.207870   -2.103265    0.529123
  14 H     1.0000    0     1.008   -0.302356   -0.105825    0.022677
  15 H     1.0000    0     1.008   -0.211649   -3.169071   -1.249109
  16 C     6.0000    0    12.011    2.734434    2.966870    1.536347
  17 N     7.0000    0    14.007    2.324363    4.040234   -0.771008
  18 O     8.0000    0    15.999    1.317139    3.342926    3.369382
  19 C     6.0000    0    12.011    3.562134    3.263557   -3.102930
  20 H     1.0000    0     1.008    2.305466    2.050353   -4.219758
  21 H     1.0000    0     1.008    4.004330    4.945413   -4.219758
  22 H     1.0000    0     1.008    5.304461    2.235546   -2.738213
  23 C     6.0000    0    12.011    0.056692    5.569023   -1.080923
  24 H     1.0000    0     1.008   -1.545796    4.418180   -1.715871
  25 H     1.0000    0     1.008   -0.413850    6.428848    0.727545
  26 H     1.0000    0     1.008    0.432747    7.035450   -2.486880
  27 C     6.0000    0    12.011   -2.568138   -2.760890    2.078699
  28 H     1.0000    0     1.008   -2.755221   -4.815022    2.290348
  29 H     1.0000    0     1.008   -2.354599   -1.969095    3.983543
  30 C     6.0000    0    12.011   -4.900060   -1.668628    0.869274
  31 C     6.0000    0    12.011   -5.355484    0.937304    1.067695
  32 C     6.0000    0    12.011   -6.564909   -3.150173   -0.551800
  33 C     6.0000    0    12.011   -7.443631    2.027676   -0.115273
  34 H     1.0000    0     1.008   -4.061021    2.099486    2.171295
  35 C     6.0000    0    12.011   -8.658725   -2.063581   -1.738548
  36 H     1.0000    0     1.008   -6.234207   -5.175960   -0.714316
  37 C     6.0000    0    12.011   -9.099031    0.529123   -1.526899
  38 H     1.0000    0     1.008   -7.787561    4.045904    0.071810
  39 H     1.0000    0     1.008   -9.943739   -3.240880   -2.827030
  40 H     1.0000    0     1.008  -10.731755    1.375721   -2.445306

--------------------------------
INTERNAL COORDINATES (ANGSTROEM)
--------------------------------
 C      0   0   0     0.000000000000     0.00000000     0.00000000
 H      1   0   0     1.092881512333     0.00000000     0.00000000
 H      1   2   0     1.094258653153   108.08521166     0.00000000
 H      1   2   3     1.088565110593   109.53158262   118.49642396
 C      1   2   3     1.515523341952   112.26715846   237.39034462
 O      5   1   2     1.239531363056   121.02089056   232.15898185
 N      5   1   2     1.372099486189   116.94382541    52.78161388
 C      7   5   1     1.460753230358   119.25390073   175.23997517
 H      8   7   5     1.095553284875   109.53015465   241.75999047
 H      8   7   5     1.090333435239   107.81453232     0.27520697
 C      7   5   1     1.463537153611   124.80425596   357.68491201
 H     11   7   5     1.094618198277   109.80072121    34.25472847
 H     11   7   5     1.094992694040   106.49543829   149.83762991
 C     11   7   5     1.529070959766   113.10151801   269.50969844
 H     14  11   7     1.091591956731   108.81368491   316.36521448
 H     14  11   7     1.097078392823   110.51379756    73.19566555
 C      8   7   5     1.525864345216   111.28750865   125.57876149
 N     17   8   7     1.364021260831   118.17144450   279.49716252
 O     17   8   7     1.242175913468   119.38966009    98.34435100
 C     18  17   8     1.456263025693   124.71154744    12.84717318
 H     20  18  17     1.097118954353   110.42562231   100.18553891
 H     20  18  17     1.093680483505   108.93327909   219.05800149
 H     20  18  17     1.087781687656   111.84089339   339.29968891
 C     18  17   8     1.456494764838   117.59122936   175.56868851
 H     24  18  17     1.096759317262   111.29063361   270.14968229
 H     24  18  17     1.088519636938   108.76257298    30.16834564
 H     24  18  17     1.093303708948   108.71742588   150.02543134
 C     14  11   7     1.534113750672   112.45274159   196.41452278
 H     28  14  11     1.097230149057   110.65529858   288.41455273
 H     28  14  11     1.097448859856   108.69365228    45.73640475
 C     28  14  11     1.505470026271   110.67215215   165.60949910
 C     31  28  14     1.403832967272   119.08203609   285.22109037
 C     31  28  14     1.398685454275   121.98210181   102.04497288
 C     32  31  28     1.394930105776   120.58056588   177.42834026
 H     32  31  28     1.090186222624   119.10056521   357.01021723
 C     33  31  28     1.397380764144   120.69147146   182.64855671
 H     33  31  28     1.089589372195   119.52138584     3.36772382
 C     36  33  31     1.396143617254   120.04259802     0.41164501
 H     34  32  31     1.087910382339   119.85155876   179.27283681
 H     36  33  31     1.087338493754   119.87946291   180.40123708
 H     38  36  33     1.087840061774   120.09350490   180.18873247

---------------------------
INTERNAL COORDINATES (A.U.)
---------------------------
 C      0   0   0     0.000000000000     0.00000000     0.00000000
 H      1   0   0     2.065246755136     0.00000000     0.00000000
 H      1   2   0     2.067849174133   108.08521166     0.00000000
 H      1   2   3     2.057089937962   109.53158262   118.49642396
 C      1   2   3     2.863924065854   112.26715846   237.39034462
 O      5   1   2     2.342374810582   121.02089056   232.15898185
 N      5   1   2     2.592892257391   116.94382541    52.78161388
 C      7   5   1     2.760423554617   119.25390073   175.23997517
 H      8   7   5     2.070295673531   109.53015465   241.75999047
 H      8   7   5     2.060431587259   107.81453232     0.27520697
 C      7   5   1     2.765684407144   124.80425596   357.68491201
 H     11   7   5     2.068528615951   109.80072121    34.25472847
 H     11   7   5     2.069236310379   106.49543829   149.83762991
 C     11   7   5     2.889525353290   113.10151801   269.50969844
 H     14  11   7     2.062809848213   108.81368491   316.36521448
 H     14  11   7     2.073177709879   110.51379756    73.19566555
 C      8   7   5     2.883465729972   111.28750865   125.57876149
 N     17   8   7     2.577626623817   118.17144450   279.49716252
 O     17   8   7     2.347372286608   119.38966009    98.34435100
 C     18  17   8     2.751938297515   124.71154744    12.84717318
 H     20  18  17     2.073254360061   110.42562231   100.18553891
 H     20  18  17     2.066756591839   108.93327909   219.05800149
 H     20  18  17     2.055609483165   111.84089339   339.29968891
 C     18  17   8     2.752376221034   117.59122936   175.56868851
 H     24  18  17     2.072574744451   111.29063361   270.14968229
 H     24  18  17     2.057004005209   108.76257298    30.16834564
 H     24  18  17     2.066044591113   108.71742588   150.02543134
 C     14  11   7     2.899054847052   112.45274159   196.41452278
 H     28  14  11     2.073464487600   110.65529858   288.41455273
 H     28  14  11     2.073877791113   108.69365228    45.73640475
 C     28  14  11     2.844926052479   110.67215215   165.60949910
 C     31  28  14     2.652859845914   119.08203609   285.22109037
 C     31  28  14     2.643132456079   121.98210181   102.04497288
 C     32  31  28     2.636035875878   120.58056588   177.42834026
 H     32  31  28     2.060153395734   119.10056521   357.01021723
 C     33  31  28     2.640666949042   120.69147146   182.64855671
 H     33  31  28     2.059025511879   119.52138584     3.36772382
 C     36  33  31     2.638329080233   120.04259802     0.41164501
 H     34  32  31     2.055852680869   119.85155876   179.27283681
 H     36  33  31     2.054771968066   119.87946291   180.40123708
 H     38  36  33     2.055719794260   120.09350490   180.18873247

---------------------
BASIS SET INFORMATION
---------------------
There are 4 groups of distinct atoms

 Group   1 Type C   : 10s4p1d contracted to 3s2p1d pattern {631/31/1}
 Group   2 Type H   : 4s contracted to 2s pattern {31}
 Group   3 Type O   : 10s4p1d contracted to 3s2p1d pattern {631/31/1}
 Group   4 Type N   : 10s4p1d contracted to 3s2p1d pattern {631/31/1}

Atom   0C    basis set group =>   1
Atom   1H    basis set group =>   2
Atom   2H    basis set group =>   2
Atom   3H    basis set group =>   2
Atom   4C    basis set group =>   1
Atom   5O    basis set group =>   3
Atom   6N    basis set group =>   4
Atom   7C    basis set group =>   1
Atom   8H    basis set group =>   2
Atom   9H    basis set group =>   2
Atom  10C    basis set group =>   1
Atom  11H    basis set group =>   2
Atom  12H    basis set group =>   2
Atom  13C    basis set group =>   1
Atom  14H    basis set group =>   2
Atom  15H    basis set group =>   2
Atom  16C    basis set group =>   1
Atom  17N    basis set group =>   4
Atom  18O    basis set group =>   3
Atom  19C    basis set group =>   1
Atom  20H    basis set group =>   2
Atom  21H    basis set group =>   2
Atom  22H    basis set group =>   2
Atom  23C    basis set group =>   1
Atom  24H    basis set group =>   2
Atom  25H    basis set group =>   2
Atom  26H    basis set group =>   2
Atom  27C    basis set group =>   1
Atom  28H    basis set group =>   2
Atom  29H    basis set group =>   2
Atom  30C    basis set group =>   1
Atom  31C    basis set group =>   1
Atom  32C    basis set group =>   1
Atom  33C    basis set group =>   1
Atom  34H    basis set group =>   2
Atom  35C    basis set group =>   1
Atom  36H    basis set group =>   2
Atom  37C    basis set group =>   1
Atom  38H    basis set group =>   2
Atom  39H    basis set group =>   2
Atom  40H    basis set group =>   2
---------------------------------
AUXILIARY/J BASIS SET INFORMATION
---------------------------------
There are 4 groups of distinct atoms

 Group   1 Type C   : 13s11p10d2f contracted to 13s11p10d2f pattern {1111111111111/11111111111/1111111111/11}
 Group   2 Type H   : 9s2p contracted to 9s2p pattern {111111111/11}
 Group   3 Type O   : 14s11p10d2f contracted to 14s11p10d2f pattern {11111111111111/11111111111/1111111111/11}
 Group   4 Type N   : 14s11p10d2f contracted to 14s11p10d2f pattern {11111111111111/11111111111/1111111111/11}

Atom   0C    basis set group =>   1
Atom   1H    basis set group =>   2
Atom   2H    basis set group =>   2
Atom   3H    basis set group =>   2
Atom   4C    basis set group =>   1
Atom   5O    basis set group =>   3
Atom   6N    basis set group =>   4
Atom   7C    basis set group =>   1
Atom   8H    basis set group =>   2
Atom   9H    basis set group =>   2
Atom  10C    basis set group =>   1
Atom  11H    basis set group =>   2
Atom  12H    basis set group =>   2
Atom  13C    basis set group =>   1
Atom  14H    basis set group =>   2
Atom  15H    basis set group =>   2
Atom  16C    basis set group =>   1
Atom  17N    basis set group =>   4
Atom  18O    basis set group =>   3
Atom  19C    basis set group =>   1
Atom  20H    basis set group =>   2
Atom  21H    basis set group =>   2
Atom  22H    basis set group =>   2
Atom  23C    basis set group =>   1
Atom  24H    basis set group =>   2
Atom  25H    basis set group =>   2
Atom  26H    basis set group =>   2
Atom  27C    basis set group =>   1
Atom  28H    basis set group =>   2
Atom  29H    basis set group =>   2
Atom  30C    basis set group =>   1
Atom  31C    basis set group =>   1
Atom  32C    basis set group =>   1
Atom  33C    basis set group =>   1
Atom  34H    basis set group =>   2
Atom  35C    basis set group =>   1
Atom  36H    basis set group =>   2
Atom  37C    basis set group =>   1
Atom  38H    basis set group =>   2
Atom  39H    basis set group =>   2
Atom  40H    basis set group =>   2
---------------------------------
AUXILIARY/C BASIS SET INFORMATION
---------------------------------
There are 4 groups of distinct atoms

 Group   1 Type C   : 13s11p10d2f contracted to 13s11p10d2f pattern {1111111111111/11111111111/1111111111/11}
 Group   2 Type H   : 9s2p contracted to 9s2p pattern {111111111/11}
 Group   3 Type O   : 14s11p10d2f contracted to 14s11p10d2f pattern {11111111111111/11111111111/1111111111/11}
 Group   4 Type N   : 14s11p10d2f contracted to 14s11p10d2f pattern {11111111111111/11111111111/1111111111/11}

Atom   0C    basis set group =>   1
Atom   1H    basis set group =>   2
Atom   2H    basis set group =>   2
Atom   3H    basis set group =>   2
Atom   4C    basis set group =>   1
Atom   5O    basis set group =>   3
Atom   6N    basis set group =>   4
Atom   7C    basis set group =>   1
Atom   8H    basis set group =>   2
Atom   9H    basis set group =>   2
Atom  10C    basis set group =>   1
Atom  11H    basis set group =>   2
Atom  12H    basis set group =>   2
Atom  13C    basis set group =>   1
Atom  14H    basis set group =>   2
Atom  15H    basis set group =>   2
Atom  16C    basis set group =>   1
Atom  17N    basis set group =>   4
Atom  18O    basis set group =>   3
Atom  19C    basis set group =>   1
Atom  20H    basis set group =>   2
Atom  21H    basis set group =>   2
Atom  22H    basis set group =>   2
Atom  23C    basis set group =>   1
Atom  24H    basis set group =>   2
Atom  25H    basis set group =>   2
Atom  26H    basis set group =>   2
Atom  27C    basis set group =>   1
Atom  28H    basis set group =>   2
Atom  29H    basis set group =>   2
Atom  30C    basis set group =>   1
Atom  31C    basis set group =>   1
Atom  32C    basis set group =>   1
Atom  33C    basis set group =>   1
Atom  34H    basis set group =>   2
Atom  35C    basis set group =>   1
Atom  36H    basis set group =>   2
Atom  37C    basis set group =>   1
Atom  38H    basis set group =>   2
Atom  39H    basis set group =>   2
Atom  40H    basis set group =>   2
----------------------------------
AUXILIARY/JK BASIS SET INFORMATION
----------------------------------
There are 4 groups of distinct atoms

 Group   1 Type C   : 13s11p10d2f contracted to 13s11p10d2f pattern {1111111111111/11111111111/1111111111/11}
 Group   2 Type H   : 9s2p contracted to 9s2p pattern {111111111/11}
 Group   3 Type O   : 14s11p10d2f contracted to 14s11p10d2f pattern {11111111111111/11111111111/1111111111/11}
 Group   4 Type N   : 14s11p10d2f contracted to 14s11p10d2f pattern {11111111111111/11111111111/1111111111/11}

Atom   0C    basis set group =>   1
Atom   1H    basis set group =>   2
Atom   2H    basis set group =>   2
Atom   3H    basis set group =>   2
Atom   4C    basis set group =>   1
Atom   5O    basis set group =>   3
Atom   6N    basis set group =>   4
Atom   7C    basis set group =>   1
Atom   8H    basis set group =>   2
Atom   9H    basis set group =>   2
Atom  10C    basis set group =>   1
Atom  11H    basis set group =>   2
Atom  12H    basis set group =>   2
Atom  13C    basis set group =>   1
Atom  14H    basis set group =>   2
Atom  15H    basis set group =>   2
Atom  16C    basis set group =>   1
Atom  17N    basis set group =>   4
Atom  18O    basis set group =>   3
Atom  19C    basis set group =>   1
Atom  20H    basis set group =>   2
Atom  21H    basis set group =>   2
Atom  22H    basis set group =>   2
Atom  23C    basis set group =>   1
Atom  24H    basis set group =>   2
Atom  25H    basis set group =>   2
Atom  26H    basis set group =>   2
Atom  27C    basis set group =>   1
Atom  28H    basis set group =>   2
Atom  29H    basis set group =>   2
Atom  30C    basis set group =>   1
Atom  31C    basis set group =>   1
Atom  32C    basis set group =>   1
Atom  33C    basis set group =>   1
Atom  34H    basis set group =>   2
Atom  35C    basis set group =>   1
Atom  36H    basis set group =>   2
Atom  37C    basis set group =>   1
Atom  38H    basis set group =>   2
Atom  39H    basis set group =>   2
Atom  40H    basis set group =>   2


           ************************************************************
           *        Program running with 4 parallel MPI-processes     *
           *              working on a common directory               *
           ************************************************************
------------------------------------------------------------------------------
                           ORCA GTO INTEGRAL CALCULATION
                           -- RI-GTO INTEGRALS CHOSEN --
------------------------------------------------------------------------------
------------------------------------------------------------------------------
                   ___                                                        
                  /   \      - P O W E R E D   B Y -                         
                 /     \                                                     
                 |  |  |   _    _      __       _____    __    __             
                 |  |  |  | |  | |    /  \     |  _  \  |  |  /  |          
                  \  \/   | |  | |   /    \    | | | |  |  | /  /          
                 / \  \   | |__| |  /  /\  \   | |_| |  |  |/  /          
                |  |  |   |  __  | /  /__\  \  |    /   |      \           
                |  |  |   | |  | | |   __   |  |    \   |  |\   \          
                \     /   | |  | | |  |  |  |  | |\  \  |  | \   \       
                 \___/    |_|  |_| |__|  |__|  |_| \__\ |__|  \__/        
                                                                              
                      - O R C A' S   B I G   F R I E N D -                    
                                      &                                       
                       - I N T E G R A L  F E E D E R -                       
                                                                              
 v1 FN, 2020, v2 2021                                                         
------------------------------------------------------------------------------


Reading SHARK input file Nfp_gas.SHARKINP.tmp ... ok
----------------------
SHARK INTEGRAL PACKAGE
----------------------

Number of atoms                             ...     41
Number of basis functions                   ...    310
Number of shells                            ...    158
Maximum angular momentum                    ...      2
Integral batch strategy                     ... SHARK/LIBINT Hybrid
RI-J (if used) integral strategy            ... SPLIT-RIJ (Revised 2003 algorithm where possible)
Printlevel                                  ...      1
Contraction scheme used                     ... SEGMENTED contraction
Coulomb Range Separation                    ... NOT USED
Exchange Range Separation                   ... NOT USED
Finite Nucleus Model                        ... NOT USED
Auxiliary Coulomb fitting basis             ... AVAILABLE
   # of basis functions in Aux-J            ...   2424
   # of shells in Aux-J                     ...    930
   Maximum angular momentum in Aux-J        ...      3
Auxiliary J/K fitting basis                 ... AVAILABLE
   # of basis functions in Aux-JK           ...   2424
   # of shells in Aux-JK                    ...    930
   Maximum angular momentum in Aux-JK       ...      3
Auxiliary Correlation fitting basis         ... AVAILABLE
   # of basis functions in Aux-C            ...   2424
   # of shells in Aux-C                     ...    930
   Maximum angular momentum in Aux-C        ...      3
Auxiliary 'external' fitting basis          ... NOT available
Integral threshold                          ...     2.500000e-11
Primitive cut-off                           ...     2.500000e-12
Primitive pair pre-selection threshold      ...     2.500000e-12

Calculating pre-screening integrals         ... done (  0.1 sec) Dimension = 158
Organizing shell pair data                  ... done (  0.8 sec)
Shell pair information
Total number of shell pairs                 ...     12561
Shell pairs after pre-screening             ...      9842
Total number of primitive shell pairs       ...     70216
Primitive shell pairs kept                  ...     30690
          la=0 lb=0:   3892 shell pairs
          la=1 lb=0:   3228 shell pairs
          la=1 lb=1:    674 shell pairs
          la=2 lb=0:   1342 shell pairs
          la=2 lb=1:    584 shell pairs
          la=2 lb=2:    122 shell pairs

Calculating one electron integrals          ... done (  0.0 sec)
Calculating RI/J V-Matrix + Cholesky decomp.... done (  0.4 sec)
Calculating RI/JK V-Matrix + Cholesky decomp... done (  0.4 sec)
Calculating RI/C V-Matrix + Cholesky decomp.... done (  0.4 sec)
Calculating Nuclear repulsion               ... done (  0.0 sec) ENN=   1484.343940768778 Eh

SHARK setup successfully completed in   2.6 seconds

Maximum memory used throughout the entire GTOINT-calculation: 49.3 MB


           ************************************************************
           *        Program running with 4 parallel MPI-processes     *
           *              working on a common directory               *
           ************************************************************
-------------------------------------------------------------------------------
                                 ORCA SCF
-------------------------------------------------------------------------------

------------
SCF SETTINGS
------------
Hamiltonian:
 Density Functional     Method          .... DFT(GTOs)
 Exchange Functional    Exchange        .... B88
   X-Alpha parameter    XAlpha          ....  0.666667
   Becke's b parameter  XBeta           ....  0.004200
 Correlation Functional Correlation     .... LYP
 LDA part of GGA corr.  LDAOpt          .... VWN-5
 Gradients option       PostSCFGGA      .... off
 Hybrid DFT is turned on
   Fraction HF Exchange ScalHFX         ....  0.200000
   Scaling of DF-GGA-X  ScalDFX         ....  0.720000
   Scaling of DF-GGA-C  ScalDFC         ....  0.810000
   Scaling of DF-LDA-C  ScalLDAC        ....  1.000000
   Perturbative correction              ....  0.000000
   Density functional embedding theory  .... OFF
   NL short-range parameter             ....  4.800000
 RI-approximation to the Coulomb term is turned on
   Number of AuxJ basis functions       .... 2424
   RIJ-COSX (HFX calculated with COS-X)).... on


General Settings:
 Integral files         IntName         .... Nfp_gas
 Hartree-Fock type      HFTyp           .... RHF
 Total Charge           Charge          ....    0
 Multiplicity           Mult            ....    1
 Number of Electrons    NEL             ....  142
 Basis Dimension        Dim             ....  310
 Nuclear Repulsion      ENuc            ....   1484.3439407688 Eh

Convergence Acceleration:
 DIIS                   CNVDIIS         .... on
   Start iteration      DIISMaxIt       ....    12
   Startup error        DIISStart       ....  0.200000
   # of expansion vecs  DIISMaxEq       ....     5
   Bias factor          DIISBfac        ....   1.050
   Max. coefficient     DIISMaxC        ....  10.000
 Trust-Rad. Augm. Hess. CNVTRAH         .... auto
   Auto Start mean grad. ratio tolernc. ....  1.125000
   Auto Start start iteration           ....    20
   Auto Start num. interpolation iter.  ....    10
   Max. Number of Micro iterations      ....    16
   Max. Number of Macro iterations      .... Maxiter - #DIIS iter
   Number of Davidson start vectors     ....     2
   Converg. threshold I  (grad. norm)   ....   1.000e-05
   Converg. threshold II (energy diff.) ....   1.000e-08
   Grad. Scal. Fac. for Micro threshold ....   0.100
   Minimum threshold for Micro iter.    ....   0.010
   NR start threshold (gradient norm)   ....   0.001
   Initial trust radius                 ....   0.400
   Minimum AH scaling param. (alpha)    ....   1.000
   Maximum AH scaling param. (alpha)    .... 1000.000
   Orbital update algorithm             .... Taylor
   White noise on init. David. guess    .... on
   Maximum white noise                  ....   0.010
   Quad. conv. algorithm                .... NR
 SOSCF                  CNVSOSCF        .... on
   Start iteration      SOSCFMaxIt      ....   150
   Startup grad/error   SOSCFStart      ....  0.003300
 Level Shifting         CNVShift        .... on
   Level shift para.    LevelShift      ....    0.2500
   Turn off err/grad.   ShiftErr        ....    0.0010
 Zerner damping         CNVZerner       .... off
 Static damping         CNVDamp         .... on
   Fraction old density DampFac         ....    0.7000
   Max. Damping (<1)    DampMax         ....    0.9800
   Min. Damping (>=0)   DampMin         ....    0.0000
   Turn off err/grad.   DampErr         ....    0.1000
 Fernandez-Rico         CNVRico         .... off

SCF Procedure:
 Maximum # iterations   MaxIter         ....   125
 SCF integral mode      SCFMode         .... Direct
   Integral package                     .... SHARK and LIBINT hybrid scheme
 Reset frequency        DirectResetFreq ....    20
 Integral Threshold     Thresh          ....  2.500e-11 Eh
 Primitive CutOff       TCut            ....  2.500e-12 Eh

Convergence Tolerance:
 Convergence Check Mode ConvCheckMode   .... Total+1el-Energy
 Convergence forced     ConvForced      .... 0
 Energy Change          TolE            ....  1.000e-08 Eh
 1-El. energy change                    ....  1.000e-05 Eh
 Orbital Gradient       TolG            ....  1.000e-05
 Orbital Rotation angle TolX            ....  1.000e-05
 DIIS Error             TolErr          ....  5.000e-07


Diagonalization of the overlap matrix:
Smallest eigenvalue                        ... 4.776e-04
Time for diagonalization                   ...    0.016 sec
Threshold for overlap eigenvalues          ... 1.000e-08
Number of eigenvalues below threshold      ... 0
Time for construction of square roots      ...    0.037 sec
Total time needed                          ...    0.054 sec

Time for model grid setup =    0.431 sec

------------------------------
INITIAL GUESS: MODEL POTENTIAL
------------------------------
Loading Hartree-Fock densities                     ... done
Calculating cut-offs                               ... done
Initializing the effective Hamiltonian             ... done
Setting up the integral package (SHARK)            ... done
Starting the Coulomb interaction                   ... done (   0.3 sec)
Reading the grid                                   ... done
Mapping shells                                     ... done
Starting the XC term evaluation                    ... done (   0.2 sec)
  promolecular density results
     # of electrons  =    141.985489876
     EX              =   -113.225750626
     EC              =     -4.768849756
     EX+EC           =   -117.994600382
Transforming the Hamiltonian                       ... done (   0.0 sec)
Diagonalizing the Hamiltonian                      ... done (   0.0 sec)
Back transforming the eigenvectors                 ... done (   0.0 sec)
Now organizing SCF variables                       ... done
                      ------------------
                      INITIAL GUESS DONE (   1.0 sec)
                      ------------------
-------------------
DFT GRID GENERATION
-------------------

General Integration Accuracy     IntAcc      ... 4.388
Radial Grid Type                 RadialGrid  ... OptM3 with GC (2021)
Angular Grid (max. ang.)         AngularGrid ... 4 (Lebedev-302)
Angular grid pruning method      GridPruning ... 4 (adaptive)
Weight generation scheme         WeightScheme... Becke
Basis function cutoff            BFCut       ... 1.0000e-11
Integration weight cutoff        WCut        ... 1.0000e-14
Angular grids for H and He will be reduced by one unit
Partially contracted basis set               ... off
Rotationally invariant grid construction     ... off

Total number of grid points                  ...   182996
Total number of batches                      ...     2880
Average number of points per batch           ...       63
Average number of grid points per atom       ...     4463
Time for grid setup =    1.782 sec

--------------------
COSX GRID GENERATION
--------------------

GRIDX 1
-------
General Integration Accuracy     IntAcc      ... 3.816
Radial Grid Type                 RadialGrid  ... OptM3 with GC (2021)
Angular Grid (max. ang.)         AngularGrid ... 1 (Lebedev-50)
Angular grid pruning method      GridPruning ... 4 (adaptive)
Weight generation scheme         WeightScheme... Becke
Basis function cutoff            BFCut       ... 1.0000e-11
Integration weight cutoff        WCut        ... 1.0000e-14
Angular grids for H and He will be reduced by one unit
Partially contracted basis set               ... on
Rotationally invariant grid construction     ... off

Total number of grid points                  ...    23264
Total number of batches                      ...      384
Average number of points per batch           ...       60
Average number of grid points per atom       ...      567
UseSFitting                                  ... on

GRIDX 2
-------
General Integration Accuracy     IntAcc      ... 4.020
Radial Grid Type                 RadialGrid  ... OptM3 with GC (2021)
Angular Grid (max. ang.)         AngularGrid ... 2 (Lebedev-110)
Angular grid pruning method      GridPruning ... 4 (adaptive)
Weight generation scheme         WeightScheme... Becke
Basis function cutoff            BFCut       ... 1.0000e-11
Integration weight cutoff        WCut        ... 1.0000e-14
Angular grids for H and He will be reduced by one unit
Partially contracted basis set               ... on
Rotationally invariant grid construction     ... off

Total number of grid points                  ...    49302
Total number of batches                      ...      788
Average number of points per batch           ...       62
Average number of grid points per atom       ...     1202
UseSFitting                                  ... on

GRIDX 3
-------
General Integration Accuracy     IntAcc      ... 4.338
Radial Grid Type                 RadialGrid  ... OptM3 with GC (2021)
Angular Grid (max. ang.)         AngularGrid ... 3 (Lebedev-194)
Angular grid pruning method      GridPruning ... 4 (adaptive)
Weight generation scheme         WeightScheme... Becke
Basis function cutoff            BFCut       ... 1.0000e-11
Integration weight cutoff        WCut        ... 1.0000e-14
Angular grids for H and He will be reduced by one unit
Partially contracted basis set               ... on
Rotationally invariant grid construction     ... off

Total number of grid points                  ...   107267
Total number of batches                      ...     1700
Average number of points per batch           ...       63
Average number of grid points per atom       ...     2616
UseSFitting                                  ... on

Time for X-Grid setup             =    2.288 sec

--------------
SCF ITERATIONS
--------------
ITER       Energy         Delta-E        Max-DP      RMS-DP      [F,P]     Damp
               ***  Starting incremental Fock matrix formation  ***
  0   -843.7420122500   0.000000000000 0.09960290  0.00191869  0.2745144 0.7000
  1   -843.9927724190  -0.250760169011 0.05553491  0.00130181  0.1050302 0.7000
                               ***Turning on DIIS***
  2   -844.0911066356  -0.098334216611 0.06566810  0.00204480  0.0386091 0.0000
  3   -844.2472367398  -0.156130104153 0.03771393  0.00091712  0.0498784 0.0000
  4   -844.2798768006  -0.032640060856 0.01073353  0.00030282  0.0133550 0.0000
  5   -844.2823733241  -0.002496523493 0.00413330  0.00009271  0.0064362 0.0000
                      *** Initiating the SOSCF procedure ***
                           *** Shutting down DIIS ***
                      *** Re-Reading the Fockian *** 
                      *** Removing any level shift *** 
ITER      Energy       Delta-E        Grad      Rot      Max-DP    RMS-DP
  6   -844.28255314  -0.0001798182  0.000248  0.000248  0.001503  0.000039
               *** Restarting incremental Fock matrix formation ***
  7   -844.28263312  -0.0000799824  0.000247  0.000780  0.001920  0.000024
  8   -844.28262547   0.0000076544  0.000403  0.000573  0.001236  0.000016
  9   -844.28263751  -0.0000120421  0.000057  0.000166  0.000406  0.000006
 10   -844.28263697   0.0000005448  0.000123  0.000112  0.000290  0.000004
 11   -844.28263767  -0.0000007049  0.000009  0.000036  0.000025  0.000001
 12   -844.28263767   0.0000000011  0.000018  0.000028  0.000020  0.000000
 13   -844.28263767  -0.0000000018  0.000003  0.000006  0.000007  0.000000
                  ***Gradient check signals convergence***
              ***Rediagonalizing the Fockian in SOSCF/NRSCF***

               *****************************************************
               *                     SUCCESS                       *
               *           SCF CONVERGED AFTER  14 CYCLES          *
               *****************************************************

Old exchange energy                            =    -23.081275814 Eh
New exchange energy                            =    -23.081284148 Eh
Exchange energy change after final integration =     -0.000008334 Eh
Total energy after final integration           =   -844.282646001 Eh
Final COS-X integration done in                =    16.597 sec

----------------
TOTAL SCF ENERGY
----------------

Total Energy       :         -844.28264600 Eh          -22974.09878 eV

Components:
Nuclear Repulsion  :         1484.34394077 Eh           40391.05207 eV
Electronic Energy  :        -2328.62658677 Eh          -63365.15085 eV
One Electron Energy:        -4094.69135888 Eh         -111422.21647 eV
Two Electron Energy:         1766.06477211 Eh           48057.06562 eV
Max COSX asymmetry :            0.00000309 Eh               0.00008 eV

Virial components:
Potential Energy   :        -1683.63517208 Eh          -45814.04217 eV
Kinetic Energy     :          839.35252607 Eh           22839.94339 eV
Virial Ratio       :            2.00587372


DFT components:
N(Alpha)           :       71.000069278316 electrons
N(Beta)            :       71.000069278316 electrons
N(Total)           :      142.000138556631 electrons
E(X)               :      -91.618377301584 Eh       
E(C)               :       -5.620141623152 Eh       
E(XC)              :      -97.238518924736 Eh       
DFET-embed. en.    :        0.000000000000 Eh       

---------------
SCF CONVERGENCE
---------------

  Last Energy change         ...    6.4209e-09  Tolerance :   1.0000e-08
  Last MAX-Density change    ...    4.4409e-15  Tolerance :   1.0000e-07
  Last RMS-Density change    ...    4.4637e-17  Tolerance :   5.0000e-09
  Last Orbital Gradient      ...    2.3480e-06  Tolerance :   1.0000e-05
  Last Orbital Rotation      ...    3.0686e-06  Tolerance :   1.0000e-05

             **** THE GBW FILE WAS UPDATED (Nfp_gas.gbw) ****
             **** DENSITY Nfp_gas.scfp WAS UPDATED ****
             **** ENERGY FILE WAS UPDATED (Nfp_gas.en.tmp) ****
             **** THE GBW FILE WAS UPDATED (Nfp_gas.gbw) ****
             **** DENSITY Nfp_gas.scfp WAS UPDATED ****
----------------
ORBITAL ENERGIES
----------------

  NO   OCC          E(Eh)            E(eV) 
   0   2.0000     -19.105988      -519.9004 
   1   2.0000     -19.104711      -519.8656 
   2   2.0000     -14.362442      -390.8219 
   3   2.0000     -14.360352      -390.7650 
   4   2.0000     -10.283194      -279.8199 
   5   2.0000     -10.277185      -279.6564 
   6   2.0000     -10.218025      -278.0466 
   7   2.0000     -10.213264      -277.9170 
   8   2.0000     -10.205560      -277.7074 
   9   2.0000     -10.201298      -277.5914 
  10   2.0000     -10.184482      -277.1338 
  11   2.0000     -10.182789      -277.0878 
  12   2.0000     -10.179968      -277.0110 
  13   2.0000     -10.179655      -277.0025 
  14   2.0000     -10.178473      -276.9703 
  15   2.0000     -10.178045      -276.9587 
  16   2.0000     -10.176772      -276.9240 
  17   2.0000     -10.176714      -276.9225 
  18   2.0000     -10.173460      -276.8339 
  19   2.0000      -1.029283       -28.0082 
  20   2.0000      -1.021161       -27.7872 
  21   2.0000      -0.935648       -25.4603 
  22   2.0000      -0.929188       -25.2845 
  23   2.0000      -0.849891       -23.1267 
  24   2.0000      -0.798154       -21.7189 
  25   2.0000      -0.764529       -20.8039 
  26   2.0000      -0.745513       -20.2864 
  27   2.0000      -0.736437       -20.0395 
  28   2.0000      -0.724241       -19.7076 
  29   2.0000      -0.711667       -19.3654 
  30   2.0000      -0.683596       -18.6016 
  31   2.0000      -0.671786       -18.2802 
  32   2.0000      -0.617338       -16.7986 
  33   2.0000      -0.598352       -16.2820 
  34   2.0000      -0.572558       -15.5801 
  35   2.0000      -0.555938       -15.1278 
  36   2.0000      -0.540974       -14.7206 
  37   2.0000      -0.515203       -14.0194 
  38   2.0000      -0.503509       -13.7012 
  39   2.0000      -0.490270       -13.3409 
  40   2.0000      -0.483289       -13.1510 
  41   2.0000      -0.470079       -12.7915 
  42   2.0000      -0.462214       -12.5775 
  43   2.0000      -0.458564       -12.4782 
  44   2.0000      -0.453286       -12.3345 
  45   2.0000      -0.447786       -12.1849 
  46   2.0000      -0.432781       -11.7766 
  47   2.0000      -0.424550       -11.5526 
  48   2.0000      -0.412812       -11.2332 
  49   2.0000      -0.410534       -11.1712 
  50   2.0000      -0.405698       -11.0396 
  51   2.0000      -0.402405       -10.9500 
  52   2.0000      -0.401187       -10.9169 
  53   2.0000      -0.400137       -10.8883 
  54   2.0000      -0.392589       -10.6829 
  55   2.0000      -0.382484       -10.4079 
  56   2.0000      -0.377706       -10.2779 
  57   2.0000      -0.374284       -10.1848 
  58   2.0000      -0.369120       -10.0443 
  59   2.0000      -0.361408        -9.8344 
  60   2.0000      -0.348117        -9.4727 
  61   2.0000      -0.343543        -9.3483 
  62   2.0000      -0.338786        -9.2188 
  63   2.0000      -0.329217        -8.9585 
  64   2.0000      -0.328228        -8.9315 
  65   2.0000      -0.256772        -6.9871 
  66   2.0000      -0.248085        -6.7507 
  67   2.0000      -0.244210        -6.6453 
  68   2.0000      -0.240889        -6.5549 
  69   2.0000      -0.235668        -6.4128 
  70   2.0000      -0.229317        -6.2400 
  71   0.0000       0.002694         0.0733 
  72   0.0000       0.006533         0.1778 
  73   0.0000       0.014097         0.3836 
  74   0.0000       0.027537         0.7493 
  75   0.0000       0.077154         2.0995 
  76   0.0000       0.089200         2.4273 
  77   0.0000       0.097044         2.6407 
  78   0.0000       0.111266         3.0277 
  79   0.0000       0.120271         3.2727 
  80   0.0000       0.126223         3.4347 
  81   0.0000       0.136324         3.7096 
  82   0.0000       0.138635         3.7724 
  83   0.0000       0.147640         4.0175 
  84   0.0000       0.148183         4.0323 
  85   0.0000       0.153131         4.1669 
  86   0.0000       0.160273         4.3613 
  87   0.0000       0.165383         4.5003 
  88   0.0000       0.168504         4.5852 
  89   0.0000       0.171563         4.6685 
  90   0.0000       0.177924         4.8416 
  91   0.0000       0.180867         4.9216 
  92   0.0000       0.183649         4.9973 
  93   0.0000       0.187957         5.1146 
  94   0.0000       0.191408         5.2085 
  95   0.0000       0.195130         5.3098 
  96   0.0000       0.199156         5.4193 
  97   0.0000       0.217964         5.9311 
  98   0.0000       0.221535         6.0283 
  99   0.0000       0.226659         6.1677 
 100   0.0000       0.229468         6.2441 
 101   0.0000       0.240465         6.5434 
 102   0.0000       0.249098         6.7783 
 103   0.0000       0.259542         7.0625 
 104   0.0000       0.270917         7.3720 
 105   0.0000       0.280072         7.6211 
 106   0.0000       0.290860         7.9147 
 107   0.0000       0.312769         8.5109 
 108   0.0000       0.329536         8.9671 
 109   0.0000       0.337813         9.1924 
 110   0.0000       0.345086         9.3903 
 111   0.0000       0.354326         9.6417 
 112   0.0000       0.369144        10.0449 
 113   0.0000       0.379792        10.3347 
 114   0.0000       0.420758        11.4494 
 115   0.0000       0.466176        12.6853 
 116   0.0000       0.472536        12.8583 
 117   0.0000       0.491875        13.3846 
 118   0.0000       0.506662        13.7870 
 119   0.0000       0.512557        13.9474 
 120   0.0000       0.518025        14.0962 
 121   0.0000       0.523764        14.2524 
 122   0.0000       0.536028        14.5860 
 123   0.0000       0.540051        14.6955 
 124   0.0000       0.545712        14.8496 
 125   0.0000       0.559337        15.2203 
 126   0.0000       0.565957        15.4005 
 127   0.0000       0.573835        15.6149 
 128   0.0000       0.574660        15.6373 
 129   0.0000       0.594963        16.1898 
 130   0.0000       0.597035        16.2462 
 131   0.0000       0.601014        16.3544 
 132   0.0000       0.606156        16.4943 
 133   0.0000       0.611752        16.6466 
 134   0.0000       0.615687        16.7537 
 135   0.0000       0.620634        16.8883 
 136   0.0000       0.626136        17.0380 
 137   0.0000       0.636632        17.3236 
 138   0.0000       0.639850        17.4112 
 139   0.0000       0.644097        17.5268 
 140   0.0000       0.656043        17.8518 
 141   0.0000       0.666106        18.1257 
 142   0.0000       0.668222        18.1832 
 143   0.0000       0.679464        18.4892 
 144   0.0000       0.687056        18.6957 
 145   0.0000       0.698043        18.9947 
 146   0.0000       0.716412        19.4946 
 147   0.0000       0.724491        19.7144 
 148   0.0000       0.735823        20.0228 
 149   0.0000       0.749494        20.3948 
 150   0.0000       0.765150        20.8208 
 151   0.0000       0.775664        21.1069 
 152   0.0000       0.785537        21.3755 
 153   0.0000       0.800927        21.7943 
 154   0.0000       0.807218        21.9655 
 155   0.0000       0.819391        22.2968 
 156   0.0000       0.827512        22.5177 
 157   0.0000       0.829348        22.5677 
 158   0.0000       0.839538        22.8450 
 159   0.0000       0.841872        22.9085 
 160   0.0000       0.847527        23.0624 
 161   0.0000       0.852258        23.1911 
 162   0.0000       0.860010        23.4020 
 163   0.0000       0.866417        23.5764 
 164   0.0000       0.871444        23.7132 
 165   0.0000       0.880542        23.9608 
 166   0.0000       0.889689        24.2097 
 167   0.0000       0.899581        24.4789 
 168   0.0000       0.909709        24.7544 
 169   0.0000       0.915563        24.9137 
 170   0.0000       0.925383        25.1809 
 171   0.0000       0.933194        25.3935 
 172   0.0000       0.935208        25.4483 
 173   0.0000       0.940359        25.5885 
 174   0.0000       0.947248        25.7759 
 175   0.0000       0.950486        25.8640 
 176   0.0000       0.954843        25.9826 
 177   0.0000       0.968141        26.3445 
 178   0.0000       0.986844        26.8534 
 179   0.0000       0.992155        26.9979 
 180   0.0000       0.998770        27.1779 
 181   0.0000       1.012839        27.5607 
 182   0.0000       1.019370        27.7385 
 183   0.0000       1.021253        27.7897 
 184   0.0000       1.036752        28.2115 
 185   0.0000       1.041503        28.3408 
 186   0.0000       1.049441        28.5567 
 187   0.0000       1.074615        29.2418 
 188   0.0000       1.095817        29.8187 
 189   0.0000       1.113534        30.3008 
 190   0.0000       1.127558        30.6824 
 191   0.0000       1.135688        30.9036 
 192   0.0000       1.145645        31.1746 
 193   0.0000       1.160800        31.5870 
 194   0.0000       1.182138        32.1676 
 195   0.0000       1.197757        32.5926 
 196   0.0000       1.233397        33.5624 
 197   0.0000       1.236421        33.6447 
 198   0.0000       1.269032        34.5321 
 199   0.0000       1.271018        34.5861 
 200   0.0000       1.282787        34.9064 
 201   0.0000       1.296538        35.2806 
 202   0.0000       1.333967        36.2991 
 203   0.0000       1.356727        36.9184 
 204   0.0000       1.375530        37.4301 
 205   0.0000       1.380357        37.5614 
 206   0.0000       1.409006        38.3410 
 207   0.0000       1.421601        38.6837 
 208   0.0000       1.431293        38.9475 
 209   0.0000       1.441242        39.2182 
 210   0.0000       1.442140        39.2426 
 211   0.0000       1.455750        39.6130 
 212   0.0000       1.473350        40.0919 
 213   0.0000       1.482298        40.3354 
 214   0.0000       1.487872        40.4871 
 215   0.0000       1.495365        40.6910 
 216   0.0000       1.507221        41.0136 
 217   0.0000       1.520999        41.3885 
 218   0.0000       1.522997        41.4429 
 219   0.0000       1.561574        42.4926 
 220   0.0000       1.572451        42.7886 
 221   0.0000       1.633861        44.4596 
 222   0.0000       1.658522        45.1307 
 223   0.0000       1.712358        46.5956 
 224   0.0000       1.716536        46.7093 
 225   0.0000       1.745222        47.4899 
 226   0.0000       1.760201        47.8975 
 227   0.0000       1.779567        48.4245 
 228   0.0000       1.801056        49.0092 
 229   0.0000       1.810491        49.2660 
 230   0.0000       1.812341        49.3163 
 231   0.0000       1.827537        49.7298 
 232   0.0000       1.832869        49.8749 
 233   0.0000       1.848142        50.2905 
 234   0.0000       1.860884        50.6372 
 235   0.0000       1.871297        50.9206 
 236   0.0000       1.879006        51.1303 
 237   0.0000       1.897410        51.6312 
 238   0.0000       1.904960        51.8366 
 239   0.0000       1.922366        52.3102 
 240   0.0000       1.934466        52.6395 
 241   0.0000       1.942834        52.8672 
 242   0.0000       1.952993        53.1437 
 243   0.0000       1.954457        53.1835 
 244   0.0000       1.967328        53.5337 
 245   0.0000       1.973226        53.6942 
 246   0.0000       1.983291        53.9681 
 247   0.0000       1.989583        54.1393 
 248   0.0000       2.001941        54.4756 
 249   0.0000       2.023778        55.0698 
 250   0.0000       2.032036        55.2945 
 251   0.0000       2.055227        55.9256 
 252   0.0000       2.063499        56.1507 
 253   0.0000       2.067375        56.2561 
 254   0.0000       2.073782        56.4305 
 255   0.0000       2.089003        56.8447 
 256   0.0000       2.093742        56.9736 
 257   0.0000       2.100252        57.1508 
 258   0.0000       2.114244        57.5315 
 259   0.0000       2.140564        58.2477 
 260   0.0000       2.148241        58.4566 
 261   0.0000       2.160554        58.7917 
 262   0.0000       2.178678        59.2848 
 263   0.0000       2.192703        59.6665 
 264   0.0000       2.201214        59.8981 
 265   0.0000       2.229312        60.6627 
 266   0.0000       2.237587        60.8878 
 267   0.0000       2.258872        61.4670 
 268   0.0000       2.266434        61.6728 
 269   0.0000       2.279050        62.0161 
 270   0.0000       2.288528        62.2740 
 271   0.0000       2.310503        62.8720 
 272   0.0000       2.315304        63.0026 
 273   0.0000       2.333764        63.5050 
 274   0.0000       2.352198        64.0066 
 275   0.0000       2.364385        64.3382 
 276   0.0000       2.373159        64.5769 
 277   0.0000       2.398452        65.2652 
 278   0.0000       2.406416        65.4819 
 279   0.0000       2.415273        65.7229 
 280   0.0000       2.423786        65.9546 
 281   0.0000       2.461254        66.9741 
 282   0.0000       2.500076        68.0305 
 283   0.0000       2.534179        68.9585 
 284   0.0000       2.552271        69.4508 
 285   0.0000       2.565681        69.8157 
 286   0.0000       2.587563        70.4112 
 287   0.0000       2.604409        70.8696 
 288   0.0000       2.613568        71.1188 
 289   0.0000       2.624917        71.4276 
 290   0.0000       2.645491        71.9875 
 291   0.0000       2.666121        72.5489 
 292   0.0000       2.678980        72.8987 
 293   0.0000       2.698082        73.4186 
 294   0.0000       2.714619        73.8685 
 295   0.0000       2.730794        74.3087 
 296   0.0000       2.746781        74.7437 
 297   0.0000       2.750931        74.8566 
 298   0.0000       2.753752        74.9334 
 299   0.0000       2.771296        75.4108 
 300   0.0000       2.793660        76.0194 
 301   0.0000       2.930816        79.7516 
 302   0.0000       2.934597        79.8544 
 303   0.0000       2.960220        80.5517 
 304   0.0000       3.007460        81.8372 
 305   0.0000       3.016034        82.0705 
 306   0.0000       3.062353        83.3309 
 307   0.0000       3.163728        86.0894 
 308   0.0000       3.183492        86.6272 
 309   0.0000       3.418363        93.0184 

                    ********************************
                    * MULLIKEN POPULATION ANALYSIS *
                    ********************************

-----------------------
MULLIKEN ATOMIC CHARGES
-----------------------
   0 C :   -0.550887
   1 H :    0.169320
   2 H :    0.175756
   3 H :    0.189018
   4 C :    0.524730
   5 O :   -0.485251
   6 N :   -0.376458
   7 C :   -0.244838
   8 H :    0.173758
   9 H :    0.203240
  10 C :   -0.160254
  11 H :    0.152066
  12 H :    0.173386
  13 C :   -0.271011
  14 H :    0.174891
  15 H :    0.137423
  16 C :    0.515690
  17 N :   -0.362013
  18 O :   -0.497268
  19 C :   -0.346970
  20 H :    0.153954
  21 H :    0.156747
  22 H :    0.213958
  23 C :   -0.322815
  24 H :    0.163680
  25 H :    0.194382
  26 H :    0.149344
  27 C :   -0.349634
  28 H :    0.136893
  29 H :    0.159067
  30 C :    0.160024
  31 C :   -0.190435
  32 C :   -0.180489
  33 C :   -0.134160
  34 H :    0.155765
[...]
 10:     58.41   0.000324    1.64  0.001733  ( 0.027929  0.029495  0.009125)
 11:     78.21   0.000211    1.06  0.000841  (-0.000770  0.026663  0.011366)
 12:     93.99   0.000074    0.37  0.000246  (-0.007751  0.013280  0.003147)
 13:    117.25   0.000732    3.70  0.001949  ( 0.025787 -0.012464  0.033588)
 14:    124.01   0.001624    8.21  0.004087  (-0.028638  0.056409 -0.009237)
 15:    139.35   0.000264    1.33  0.000590  ( 0.010185 -0.021344  0.005570)
 16:    156.94   0.000242    1.22  0.000482  ( 0.001015 -0.019819 -0.009371)
 17:    165.48   0.000293    1.48  0.000553  ( 0.013753  0.015997  0.010409)
 18:    184.14   0.000217    1.10  0.000367  (-0.012990 -0.012107  0.007219)
 19:    209.37   0.000035    0.18  0.000052  ( 0.001246  0.006393  0.003053)
 20:    222.82   0.000425    2.15  0.000595  (-0.015477 -0.018500 -0.003592)
 21:    266.60   0.000278    1.40  0.000325  (-0.006322 -0.007499 -0.015130)
 22:    279.54   0.001690    8.54  0.001887  ( 0.011262  0.041887 -0.002314)
 23:    294.03   0.000175    0.88  0.000186  ( 0.011341 -0.007499  0.000859)
 24:    338.15   0.000072    0.36  0.000066  (-0.000126  0.005572  0.005912)
 25:    353.41   0.001029    5.20  0.000908  ( 0.003159 -0.010222  0.028174)
 26:    382.91   0.001274    6.44  0.001038  (-0.019282  0.015662 -0.020527)
 27:    419.30   0.000028    0.14  0.000021  ( 0.004515 -0.000159  0.000779)
 28:    423.00   0.000855    4.32  0.000631  ( 0.016600 -0.018122  0.005209)
 29:    434.51   0.000122    0.62  0.000088  (-0.009341  0.000715 -0.000171)
 30:    468.57   0.001773    8.96  0.001181  ( 0.031745  0.010290 -0.008213)
 31:    481.63   0.002899   14.65  0.001878  (-0.014572 -0.035796 -0.019617)
 32:    521.72   0.002198   11.11  0.001315  (-0.031020  0.003553  0.018435)
 33:    581.43   0.001803    9.11  0.000968  ( 0.020052 -0.020018  0.012848)
 34:    587.92   0.000164    0.83  0.000087  ( 0.005738  0.004275 -0.005991)
 35:    598.15   0.002192   11.08  0.001144  ( 0.031454 -0.012059  0.002962)
 36:    632.10   0.002116   10.69  0.001044  ( 0.002709  0.000990  0.032189)
 37:    636.38   0.000254    1.28  0.000125  (-0.004799 -0.002522 -0.009756)
 38:    697.23   0.000678    3.43  0.000304  (-0.011025 -0.011001  0.007814)
 39:    719.23   0.005347   27.02  0.002320  (-0.031809 -0.004884  0.035836)
 40:    743.66   0.001264    6.39  0.000530  ( 0.004057 -0.021526  0.007108)
 41:    766.64   0.001643    8.30  0.000669  (-0.012419 -0.005071  0.022111)
 42:    772.19   0.003369   17.03  0.001362  ( 0.023950 -0.001991 -0.028002)
 43:    818.35   0.002695   13.62  0.001028  (-0.002292 -0.022189  0.023024)
 44:    844.76   0.000886    4.48  0.000327  ( 0.001362  0.016817 -0.006518)
 45:    866.73   0.000182    0.92  0.000065  ( 0.005587  0.004247  0.004027)
 46:    875.51   0.000933    4.71  0.000333  ( 0.011315 -0.006955 -0.012494)
 47:    928.91   0.000794    4.01  0.000267  ( 0.011377  0.004680 -0.010740)
 48:    957.86   0.000093    0.47  0.000030  (-0.000885 -0.004816  0.002523)
 49:    975.96   0.000265    1.34  0.000085  ( 0.007899  0.000890 -0.004636)
 50:    999.56   0.001224    6.19  0.000382  ( 0.011081  0.005139 -0.015265)
 51:   1002.64   0.001359    6.87  0.000423  (-0.006730 -0.004530  0.018902)
 52:   1013.09   0.004439   22.43  0.001367  ( 0.031782 -0.017139  0.007960)
 53:   1017.82   0.000089    0.45  0.000027  (-0.004459  0.002660 -0.000550)
 54:   1044.48   0.000682    3.45  0.000204  (-0.011312  0.007788 -0.003889)
 55:   1051.37   0.002553   12.90  0.000758  (-0.014070  0.008596 -0.022042)
 56:   1056.28   0.002811   14.20  0.000830  ( 0.020476 -0.014595 -0.014074)
 57:   1060.45   0.000447    2.26  0.000132  (-0.005356 -0.001445 -0.010042)
 58:   1064.30   0.000848    4.29  0.000249  (-0.008633  0.004803 -0.012293)
 59:   1091.90   0.002344   11.85  0.000670  ( 0.005195 -0.003944 -0.025048)
 60:   1094.86   0.001205    6.09  0.000344  (-0.017832  0.003817 -0.003310)
 61:   1130.53   0.002146   10.85  0.000593  ( 0.001820  0.023550 -0.005880)
 62:   1141.65   0.000370    1.87  0.000101  (-0.004968  0.008660  0.001217)
 63:   1165.82   0.005907   29.85  0.001581  ( 0.006149  0.023741 -0.031300)
 64:   1189.40   0.001168    5.90  0.000307  (-0.002123 -0.014598  0.009429)
 65:   1191.71   0.000060    0.30  0.000016  ( 0.001367  0.002998 -0.002208)
 66:   1214.23   0.002759   13.95  0.000709  ( 0.002414 -0.003286 -0.026317)
 67:   1216.73   0.001840    9.30  0.000472  ( 0.000141 -0.006405 -0.020758)
 68:   1237.39   0.000004    0.02  0.000001  ( 0.000783 -0.000687 -0.000145)
 69:   1247.02   0.005396   27.27  0.001350  (-0.033935  0.010933  0.008904)
 70:   1289.44   0.005733   28.97  0.001388  ( 0.002317  0.020115  0.031266)
 71:   1294.68   0.021747  109.90  0.005242  (-0.044873  0.052599  0.021480)
 72:   1301.12   0.000510    2.58  0.000122  ( 0.002135  0.004206  0.009999)
 73:   1317.28   0.000469    2.37  0.000111  ( 0.008088  0.006299 -0.002457)
 74:   1348.67   0.001889    9.55  0.000437  (-0.005561  0.017393  0.010180)
 75:   1366.18   0.000205    1.04  0.000047  ( 0.005612 -0.000032 -0.003926)
 76:   1373.48   0.000190    0.96  0.000043  ( 0.003058 -0.004558 -0.003608)
 77:   1375.78   0.000098    0.49  0.000022  ( 0.001144  0.004562 -0.000146)
 78:   1394.15   0.001695    8.56  0.000379  ( 0.015424  0.003560 -0.011346)
 79:   1414.60   0.002620   13.24  0.000578  ( 0.018719  0.013522  0.006690)
 80:   1426.16   0.006580   33.25  0.001440  ( 0.031901 -0.010546 -0.017635)
 81:   1449.88   0.011686   59.05  0.002515  (-0.018217  0.030624 -0.035291)
 82:   1463.16   0.010466   52.89  0.002232  (-0.022495  0.038968 -0.014408)
 83:   1476.88   0.023168  117.08  0.004895  (-0.048503  0.032451  0.038596)
 84:   1496.23   0.003944   19.93  0.000823  ( 0.026152  0.005494 -0.010419)
 85:   1500.55   0.000863    4.36  0.000179  (-0.008165  0.002371 -0.010349)
 86:   1503.64   0.001334    6.74  0.000277  (-0.005729 -0.013984 -0.006968)
 87:   1514.01   0.001718    8.68  0.000354  (-0.002290  0.005937  0.017712)
 88:   1516.70   0.001962    9.91  0.000404  ( 0.003020 -0.019110 -0.005415)
 89:   1518.35   0.000963    4.87  0.000198  ( 0.011688  0.003076  0.007197)
 90:   1525.49   0.000877    4.43  0.000179  (-0.008484  0.009638  0.003824)
 91:   1529.23   0.001335    6.75  0.000272  ( 0.005033 -0.012576 -0.009432)
 92:   1535.28   0.002067   10.45  0.000420  (-0.004172 -0.015070 -0.013254)
 93:   1541.04   0.006161   31.14  0.001248  ( 0.022961  0.020572 -0.017241)
 94:   1543.72   0.002425   12.25  0.000490  (-0.003326 -0.014954 -0.015982)
 95:   1548.75   0.003345   16.91  0.000674  ( 0.023964 -0.004727  0.008802)
 96:   1568.67   0.007869   39.77  0.001565  ( 0.020536 -0.022558  0.025196)
 97:   1645.68   0.000252    1.27  0.000048  (-0.001135  0.004140  0.005418)
 98:   1667.40   0.001554    7.86  0.000291  ( 0.016708 -0.001778  0.002932)
 99:   1739.62   0.046720  236.10  0.008381  ( 0.034504  0.009072 -0.084310)
100:   1747.05   0.071924  363.47  0.012847  ( 0.090610  0.028674 -0.061765)
101:   3022.56   0.006245   31.56  0.000645  (-0.005025 -0.000957  0.024871)
102:   3033.93   0.009574   48.38  0.000985  (-0.020531  0.007818 -0.022408)
103:   3039.13   0.003981   20.12  0.000409  (-0.003666  0.012966 -0.015075)
104:   3052.00   0.003481   17.59  0.000356  ( 0.005047 -0.001247 -0.018135)
105:   3060.54   0.000657    3.32  0.000067  (-0.003075 -0.007160 -0.002496)
106:   3072.88   0.006361   32.14  0.000646  ( 0.003826  0.020315 -0.014785)
107:   3076.48   0.007869   39.77  0.000798  ( 0.013022  0.023804 -0.007875)
108:   3080.18   0.000661    3.34  0.000067  ( 0.000553 -0.008098  0.001032)
109:   3081.12   0.007688   38.85  0.000779  ( 0.007951  0.011367  0.024212)
110:   3095.98   0.007337   37.08  0.000740  ( 0.009458  0.024848 -0.005716)
111:   3114.97   0.002094   10.58  0.000210  ( 0.005379 -0.011742 -0.006555)
112:   3123.81   0.002171   10.97  0.000217  ( 0.010270 -0.002607  0.010228)
113:   3139.51   0.005366   27.12  0.000533  ( 0.003316 -0.022849  0.000486)
114:   3169.52   0.000264    1.33  0.000026  ( 0.001068 -0.004810  0.001304)
115:   3171.86   0.001857    9.39  0.000183  ( 0.006220 -0.011573  0.003179)
116:   3176.58   0.001505    7.61  0.000148  ( 0.009785 -0.001108 -0.007136)
117:   3176.91   0.000001    0.00  0.000000  (-0.000197  0.000180  0.000088)
118:   3185.91   0.001208    6.10  0.000118  ( 0.006665 -0.008311 -0.002189)
119:   3187.00   0.000914    4.62  0.000090  (-0.004225  0.007125 -0.004573)
120:   3187.68   0.001548    7.83  0.000152  ( 0.002040 -0.011763  0.003008)
121:   3194.61   0.007027   35.51  0.000686  ( 0.006936  0.023834  0.008382)
122:   3206.98   0.005151   26.03  0.000501  ( 0.019752 -0.005457  0.009019)

* The epsilon (eps) is given for a Dirac delta lineshape.
** The dipole moment derivative (T) already includes vibrational overlap.

The first frequency considered to be a vibration is 6
The total number of vibrations considered is 117


--------------------------
THERMOCHEMISTRY AT 298.15K
--------------------------

Temperature         ... 298.15 K
Pressure            ... 1.00 atm
Total Mass          ... 262.35 AMU

Throughout the following assumptions are being made:
  (1) The electronic state is orbitally nondegenerate
  (2) There are no thermally accessible electronically excited states
  (3) Hindered rotations indicated by low frequency modes are not
      treated as such but are treated as vibrations and this may
      cause some error
  (4) All equations used are the standard statistical mechanics
      equations for an ideal gas
  (5) All vibrations are strictly harmonic

freq.      24.19  E(vib)   ...       0.56 
freq.      30.03  E(vib)   ...       0.55 
freq.      33.55  E(vib)   ...       0.55 
freq.      53.44  E(vib)   ...       0.52 
freq.      58.41  E(vib)   ...       0.51 
freq.      78.21  E(vib)   ...       0.49 
freq.      93.99  E(vib)   ...       0.47 
freq.     117.25  E(vib)   ...       0.44 
freq.     124.01  E(vib)   ...       0.43 
freq.     139.35  E(vib)   ...       0.42 
freq.     156.94  E(vib)   ...       0.40 
freq.     165.48  E(vib)   ...       0.39 
freq.     184.14  E(vib)   ...       0.37 
freq.     209.37  E(vib)   ...       0.34 
freq.     222.82  E(vib)   ...       0.33 
freq.     266.60  E(vib)   ...       0.29 
freq.     279.54  E(vib)   ...       0.28 
freq.     294.03  E(vib)   ...       0.27 
freq.     338.15  E(vib)   ...       0.24 
freq.     353.41  E(vib)   ...       0.22 
freq.     382.91  E(vib)   ...       0.20 
freq.     419.30  E(vib)   ...       0.18 
freq.     423.00  E(vib)   ...       0.18 
freq.     434.51  E(vib)   ...       0.17 
freq.     468.57  E(vib)   ...       0.16 
freq.     481.63  E(vib)   ...       0.15 
freq.     521.72  E(vib)   ...       0.13 
freq.     581.43  E(vib)   ...       0.11 
freq.     587.92  E(vib)   ...       0.10 
freq.     598.15  E(vib)   ...       0.10 
freq.     632.10  E(vib)   ...       0.09 
freq.     636.38  E(vib)   ...       0.09 
freq.     697.23  E(vib)   ...       0.07 
freq.     719.23  E(vib)   ...       0.07 
freq.     743.66  E(vib)   ...       0.06 
freq.     766.64  E(vib)   ...       0.06 
freq.     772.19  E(vib)   ...       0.05 
freq.     818.35  E(vib)   ...       0.05 
freq.     844.76  E(vib)   ...       0.04 
freq.     866.73  E(vib)   ...       0.04 
freq.     875.51  E(vib)   ...       0.04 
freq.     928.91  E(vib)   ...       0.03 
freq.     957.86  E(vib)   ...       0.03 
freq.     975.96  E(vib)   ...       0.03 
freq.     999.56  E(vib)   ...       0.02 
freq.    1002.64  E(vib)   ...       0.02 
freq.    1013.09  E(vib)   ...       0.02 
freq.    1017.82  E(vib)   ...       0.02 
freq.    1044.48  E(vib)   ...       0.02 
freq.    1051.37  E(vib)   ...       0.02 
freq.    1056.28  E(vib)   ...       0.02 
freq.    1060.45  E(vib)   ...       0.02 
freq.    1064.30  E(vib)   ...       0.02 
freq.    1091.90  E(vib)   ...       0.02 
freq.    1094.86  E(vib)   ...       0.02 
freq.    1130.53  E(vib)   ...       0.01 
freq.    1141.65  E(vib)   ...       0.01 
freq.    1165.82  E(vib)   ...       0.01 
freq.    1189.40  E(vib)   ...       0.01 
freq.    1191.71  E(vib)   ...       0.01 
freq.    1214.23  E(vib)   ...       0.01 
freq.    1216.73  E(vib)   ...       0.01 
freq.    1237.39  E(vib)   ...       0.01 
freq.    1247.02  E(vib)   ...       0.01 
freq.    1289.44  E(vib)   ...       0.01 
freq.    1294.68  E(vib)   ...       0.01 
freq.    1301.12  E(vib)   ...       0.01 
freq.    1317.28  E(vib)   ...       0.01 
freq.    1348.67  E(vib)   ...       0.01 
freq.    1366.18  E(vib)   ...       0.01 
freq.    1373.48  E(vib)   ...       0.01 
freq.    1375.78  E(vib)   ...       0.01 
freq.    1394.15  E(vib)   ...       0.00 
freq.    1414.60  E(vib)   ...       0.00 
freq.    1426.16  E(vib)   ...       0.00 
freq.    1449.88  E(vib)   ...       0.00 
freq.    1463.16  E(vib)   ...       0.00 
freq.    1476.88  E(vib)   ...       0.00 
freq.    1496.23  E(vib)   ...       0.00 
freq.    1500.55  E(vib)   ...       0.00 
freq.    1503.64  E(vib)   ...       0.00 
freq.    1514.01  E(vib)   ...       0.00 
freq.    1516.70  E(vib)   ...       0.00 
freq.    1518.35  E(vib)   ...       0.00 
freq.    1525.49  E(vib)   ...       0.00 
freq.    1529.23  E(vib)   ...       0.00 
freq.    1535.28  E(vib)   ...       0.00 
freq.    1541.04  E(vib)   ...       0.00 
freq.    1543.72  E(vib)   ...       0.00 
freq.    1548.75  E(vib)   ...       0.00 
freq.    1568.67  E(vib)   ...       0.00 
freq.    1645.68  E(vib)   ...       0.00 
freq.    1667.40  E(vib)   ...       0.00 
freq.    1739.62  E(vib)   ...       0.00 
freq.    1747.05  E(vib)   ...       0.00 
freq.    3022.56  E(vib)   ...       0.00 
freq.    3033.93  E(vib)   ...       0.00 
freq.    3039.13  E(vib)   ...       0.00 
freq.    3052.00  E(vib)   ...       0.00 
freq.    3060.54  E(vib)   ...       0.00 
freq.    3072.88  E(vib)   ...       0.00 
freq.    3076.48  E(vib)   ...       0.00 
freq.    3080.18  E(vib)   ...       0.00 
freq.    3081.12  E(vib)   ...       0.00 
freq.    3095.98  E(vib)   ...       0.00 
freq.    3114.97  E(vib)   ...       0.00 
freq.    3123.81  E(vib)   ...       0.00 
freq.    3139.51  E(vib)   ...       0.00 
freq.    3169.52  E(vib)   ...       0.00 
freq.    3171.86  E(vib)   ...       0.00 
freq.    3176.58  E(vib)   ...       0.00 
freq.    3176.91  E(vib)   ...       0.00 
freq.    3185.91  E(vib)   ...       0.00 
freq.    3187.00  E(vib)   ...       0.00 
freq.    3187.68  E(vib)   ...       0.00 
freq.    3194.61  E(vib)   ...       0.00 
freq.    3206.98  E(vib)   ...       0.00 

------------
INNER ENERGY
------------

The inner energy is: U= E(el) + E(ZPE) + E(vib) + E(rot) + E(trans)
    E(el)   - is the total energy from the electronic structure calculation
              = E(kin-el) + E(nuc-el) + E(el-el) + E(nuc-nuc)
    E(ZPE)  - the the zero temperature vibrational energy from the frequency calculation
    E(vib)  - the the finite temperature correction to E(ZPE) due to population
              of excited vibrational states
    E(rot)  - is the rotational thermal energy
    E(trans)- is the translational thermal energy

Summary of contributions to the inner energy U:
Electronic energy                ...   -844.36068828 Eh
Zero point energy                ...      0.35578560 Eh     223.26 kcal/mol
Thermal vibrational correction   ...      0.01706212 Eh      10.71 kcal/mol
Thermal rotational correction    ...      0.00141627 Eh       0.89 kcal/mol
Thermal translational correction ...      0.00141627 Eh       0.89 kcal/mol
-----------------------------------------------------------------------
Total thermal energy                   -843.98500801 Eh


Summary of corrections to the electronic energy:
(perhaps to be used in another calculation)
Total thermal correction                  0.01989467 Eh      12.48 kcal/mol
Non-thermal (ZPE) correction              0.35578560 Eh     223.26 kcal/mol
-----------------------------------------------------------------------
Total correction                          0.37568027 Eh     235.74 kcal/mol


--------
ENTHALPY
--------

The enthalpy is H = U + kB*T
                kB is Boltzmann's constant
Total free energy                 ...   -843.98500801 Eh 
Thermal Enthalpy correction       ...      0.00094421 Eh       0.59 kcal/mol
-----------------------------------------------------------------------
Total Enthalpy                    ...   -843.98406380 Eh


Note: Only C1 symmetry has been detected, increase convergence thresholds 
      if your molecule has a higher symmetry. Symmetry factor of 1.0 is   
      used for the rotational entropy correction. 
 

Note: Rotational entropy computed according to Herzberg 
Infrared and Raman Spectra, Chapter V,1, Van Nostrand Reinhold, 1945 
Point Group:  C1, Symmetry Number:   1  
Rotational constants in cm-1:     0.018895     0.007651     0.006432 

Vibrational entropy computed according to the QRRHO of S. Grimme
Chem.Eur.J. 2012 18 9955


-------
ENTROPY
-------

The entropy contributions are T*S = T*(S(el)+S(vib)+S(rot)+S(trans))
     S(el)   - electronic entropy
     S(vib)  - vibrational entropy
     S(rot)  - rotational entropy
     S(trans)- translational entropy
The entropies will be listed as multiplied by the temperature to get
units of energy

Electronic entropy                ...      0.00000000 Eh      0.00 kcal/mol
Vibrational entropy               ...      0.03079743 Eh     19.33 kcal/mol
Rotational entropy                ...      0.01606730 Eh     10.08 kcal/mol
Translational entropy             ...      0.02023727 Eh     12.70 kcal/mol
-----------------------------------------------------------------------
Final entropy term                ...      0.06710200 Eh     42.11 kcal/mol

In case the symmetry of your molecule has not been determined correctly
or in case you have a reason to use a different symmetry number we print 
out the resulting rotational entropy values for sn=1,12 :
 --------------------------------------------------------
|  sn= 1 | S(rot)=       0.01606730 Eh     10.08 kcal/mol|
|  sn= 2 | S(rot)=       0.01541284 Eh      9.67 kcal/mol|
|  sn= 3 | S(rot)=       0.01503001 Eh      9.43 kcal/mol|
|  sn= 4 | S(rot)=       0.01475838 Eh      9.26 kcal/mol|
|  sn= 5 | S(rot)=       0.01454770 Eh      9.13 kcal/mol|
|  sn= 6 | S(rot)=       0.01437555 Eh      9.02 kcal/mol|
|  sn= 7 | S(rot)=       0.01423000 Eh      8.93 kcal/mol|
|  sn= 8 | S(rot)=       0.01410393 Eh      8.85 kcal/mol|
|  sn= 9 | S(rot)=       0.01399272 Eh      8.78 kcal/mol|
|  sn=10 | S(rot)=       0.01389324 Eh      8.72 kcal/mol|
|  sn=11 | S(rot)=       0.01380325 Eh      8.66 kcal/mol|
|  sn=12 | S(rot)=       0.01372109 Eh      8.61 kcal/mol|
 --------------------------------------------------------


-------------------
GIBBS FREE ENERGY
-------------------

The Gibbs free energy is G = H - T*S

Total enthalpy                    ...   -843.98406380 Eh 
Total entropy correction          ...     -0.06710200 Eh    -42.11 kcal/mol
-----------------------------------------------------------------------
Final Gibbs free energy         ...   -844.05116579 Eh

For completeness - the Gibbs free energy minus the electronic energy
G-E(el)                           ...      0.30952249 Eh    194.23 kcal/mol


Timings for individual modules:

Sum of individual times         ...     2652.889 sec (=  44.215 min)
GTO integral calculation        ...       26.990 sec (=   0.450 min)   1.0 %
SCF iterations                  ...     1215.589 sec (=  20.260 min)  45.8 %
SCF Gradient evaluation         ...      389.092 sec (=   6.485 min)  14.7 %
Geometry relaxation             ...        1.927 sec (=   0.032 min)   0.1 %
Analytical frequency calculation...     1019.291 sec (=  16.988 min)  38.4 %
                             ****ORCA TERMINATED NORMALLY****
TOTAL RUN TIME: 0 days 0 hours 44 minutes 19 seconds 864 msec
