
                                 *****************
                                 * O   R   C   A *
                                 *****************

                                            #,                                       
                                            ###                                      
                                            ####                                     
                                            #####                                    
                                            ######                                   
                                           ########,                                 
                                     ,,################,,,,,                         
                               ,,#################################,,                 
                          ,,##########################################,,             
                       ,#########################################, ''#####,          
                    ,#############################################,,   '####,        
                  ,##################################################,,,,####,       
                ,###########''''           ''''###############################       
              ,#####''   ,,,,##########,,,,          '''####'''          '####       
            ,##' ,,,,###########################,,,                        '##       
           ' ,,###''''                  '''############,,,                           
         ,,##''                                '''############,,,,        ,,,,,,###''
      ,#''                                            '''#######################'''  
     '                                                          ''''####''''         
             ,#######,   #######,   ,#######,      ##                                
            ,#'     '#,  ##    ##  ,#'     '#,    #''#        ######   ,####,        
            ##       ##  ##   ,#'  ##            #'  '#       #        #'  '#        
            ##       ##  #######   ##           ,######,      #####,   #    #        
            '#,     ,#'  ##    ##  '#,     ,#' ,#      #,         ##   #,  ,#        
             '#######'   ##     ##  '#######'  #'      '#     #####' # '####'        



                  #######################################################
                  #                        -***-                        #
                  #          Department of theory and spectroscopy      #
                  #    Directorship and core code : Frank Neese         #
                  #        Max Planck Institute fuer Kohlenforschung    #
                  #                Kaiser Wilhelm Platz 1               #
                  #                 D-45470 Muelheim/Ruhr               #
                  #                      Germany                        #
                  #                                                     #
                  #                  All rights reserved                #
                  #                        -***-                        #
                  #######################################################


                         Program Version 5.0.4 -  RELEASE  -


 With contributions from (in alphabetic order):
   Daniel Aravena         : Magnetic Suceptibility
   Michael Atanasov       : Ab Initio Ligand Field Theory (pilot matlab implementation)
   Alexander A. Auer      : GIAO ZORA, VPT2 properties, NMR spectrum
   Ute Becker             : Parallelization
   Giovanni Bistoni       : ED, misc. LED, open-shell LED, HFLD
   Martin Brehm           : Molecular dynamics
   Dmytro Bykov           : SCF Hessian
   Vijay G. Chilkuri      : MRCI spin determinant printing, contributions to CSF-ICE
   Dipayan Datta          : RHF DLPNO-CCSD density
   Achintya Kumar Dutta   : EOM-CC, STEOM-CC
   Dmitry Ganyushin       : Spin-Orbit,Spin-Spin,Magnetic field MRCI
   Miquel Garcia          : C-PCM and meta-GGA Hessian, CC/C-PCM, Gaussian charge scheme
   Yang Guo               : DLPNO-NEVPT2, F12-NEVPT2, CIM, IAO-localization
   Andreas Hansen         : Spin unrestricted coupled pair/coupled cluster methods
   Benjamin Helmich-Paris : MC-RPA, TRAH-SCF, COSX integrals
   Lee Huntington         : MR-EOM, pCC
   Robert Izsak           : Overlap fitted RIJCOSX, COSX-SCS-MP3, EOM
   Marcus Kettner         : VPT2
   Christian Kollmar      : KDIIS, OOCD, Brueckner-CCSD(T), CCSD density, CASPT2, CASPT2-K
   Simone Kossmann        : Meta GGA functionals, TD-DFT gradient, OOMP2, MP2 Hessian
   Martin Krupicka        : Initial AUTO-CI
   Lucas Lang             : DCDCAS
   Marvin Lechner         : AUTO-CI (C++ implementation), FIC-MRCC
   Dagmar Lenk            : GEPOL surface, SMD
   Dimitrios Liakos       : Extrapolation schemes; Compound Job, initial MDCI parallelization
   Dimitrios Manganas     : Further ROCIS development; embedding schemes
   Dimitrios Pantazis     : SARC Basis sets
   Anastasios Papadopoulos: AUTO-CI, single reference methods and gradients
   Taras Petrenko         : DFT Hessian,TD-DFT gradient, ASA, ECA, R-Raman, ABS, FL, XAS/XES, NRVS
   Peter Pinski           : DLPNO-MP2, DLPNO-MP2 Gradient
   Christoph Reimann      : Effective Core Potentials
   Marius Retegan         : Local ZFS, SOC
   Christoph Riplinger    : Optimizer, TS searches, QM/MM, DLPNO-CCSD(T), (RO)-DLPNO pert. Triples
   Tobias Risthaus        : Range-separated hybrids, TD-DFT gradient, RPA, STAB
   Michael Roemelt        : Original ROCIS implementation
   Masaaki Saitow         : Open-shell DLPNO-CCSD energy and density
   Barbara Sandhoefer     : DKH picture change effects
   Avijit Sen             : IP-ROCIS
   Kantharuban Sivalingam : CASSCF convergence, NEVPT2, FIC-MRCI
   Bernardo de Souza      : ESD, SOC TD-DFT
   Georgi Stoychev        : AutoAux, RI-MP2 NMR, DLPNO-MP2 response
   Willem Van den Heuvel  : Paramagnetic NMR
   Boris Wezisla          : Elementary symmetry handling
   Frank Wennmohs         : Technical directorship


 We gratefully acknowledge several colleagues who have allowed us to
 interface, adapt or use parts of their codes:
   Stefan Grimme, W. Hujo, H. Kruse, P. Pracht,  : VdW corrections, initial TS optimization,
                  C. Bannwarth, S. Ehlert          DFT functionals, gCP, sTDA/sTD-DF
   Ed Valeev, F. Pavosevic, A. Kumar             : LibInt (2-el integral package), F12 methods
   Garnet Chan, S. Sharma, J. Yang, R. Olivares  : DMRG
   Ulf Ekstrom                                   : XCFun DFT Library
   Mihaly Kallay                                 : mrcc  (arbitrary order and MRCC methods)
   Jiri Pittner, Ondrej Demel                    : Mk-CCSD
   Frank Weinhold                                : gennbo (NPA and NBO analysis)
   Christopher J. Cramer and Donald G. Truhlar   : smd solvation model
   Lars Goerigk                                  : TD-DFT with DH, B97 family of functionals
   V. Asgeirsson, H. Jonsson                     : NEB implementation
   FAccTs GmbH                                   : IRC, NEB, NEB-TS, DLPNO-Multilevel, CI-OPT
                                                   MM, QMMM, 2- and 3-layer-ONIOM, Crystal-QMMM,
                                                   LR-CPCM, SF, NACMEs, symmetry and pop. for TD-DFT,
                                                   nearIR, NL-DFT gradient (VV10), updates on ESD,
                                                   ML-optimized integration grids
   S Lehtola, MJT Oliveira, MAL Marques          : LibXC Library
   Liviu Ungur et al                             : ANISO software


 Your calculation uses the libint2 library for the computation of 2-el integrals
 For citations please refer to: http://libint.valeyev.net

 Your ORCA version has been built with support for libXC version: 5.1.0
 For citations please refer to: https://tddft.org/programs/libxc/

 This ORCA versions uses:
   CBLAS   interface :  Fast vector & matrix operations
   LAPACKE interface :  Fast linear algebra routines
   SCALAPACK package :  Parallel linear algebra routines
   Shared memory     :  Shared parallel matrices
   BLAS/LAPACK       :  OpenBLAS 0.3.15  USE64BITINT DYNAMIC_ARCH NO_AFFINITY SkylakeX SINGLE_THREADED
        Core in use  :  SkylakeX
   Copyright (c) 2011-2014, The OpenBLAS Project




***************************************
The coordinates will be read from file: /users/fjb15167/WWenergy/structures/Nd.xyz
***************************************


Your calculation utilizes the atom-pairwise dispersion correction
based on tight binding partial charges (D4)
Cite in your paper:
E.Caldeweyher, C.Bannwarth, S.Grimme, J.Chem.Phys., (2017), 147, 034112.
E.Caldeweyher, S.Ehlert, A.Hansen, H.Neugebauer, S.Grimme, J.Chem.Phys., (2018), in progress.
   

================================================================================

----- Orbital basis set information -----
Your calculation utilizes the basis: 6-31+G(d)
   H-He, Li-Ne : W. J. Hehre, R. Ditchfield and J.A. Pople, J. Chem. Phys. 56, 2257 (1972).
                 Note: He and Ne are unpublished basis sets taken from the Gaussian program.
                 Note: Li and B from J. D. Dill and J. A. Pople, J. Chem. Phys. 62, 2921 (1975).
   Na - Ar     : M. M. Francl, W. J. Pietro, W. J. Hehre, J. S. Binkley, M. S. Gordon, 
                 D. J. DeFrees and J. A. Pople, J. Chem. Phys. 77, 3654 (1982).
   K - Zn      : V. A. Rassolov, J. A. Pople, M. A. Ratner, and T. L. Windus, J. Chem. Phys. 109, 1223 (1998).
   Additional Pol./Diff. from the 6-311G equivalent.

----- AuxJ basis set information -----
Your calculation utilizes the AutoAux generation procedure.
  G. L. Stoychev, A. A. Auer, F. Neese, J. Chem. Theory Comput. 13, 554 (2017)

----- AuxC basis set information -----
Your calculation utilizes the AutoAux generation procedure.
  G. L. Stoychev, A. A. Auer, F. Neese, J. Chem. Theory Comput. 13, 554 (2017)

----- AuxJK basis set information -----
Your calculation utilizes the AutoAux generation procedure.
  G. L. Stoychev, A. A. Auer, F. Neese, J. Chem. Theory Comput. 13, 554 (2017)

================================================================================
                                        WARNINGS
                       Please study these warnings very carefully!
================================================================================


WARNING: Geometry Optimization
  ===> : Switching off AutoStart
         For restart on a previous wavefunction, please use MOREAD

INFO   : the flag for use of the SHARK integral package has been found!

================================================================================
                                       INPUT FILE
================================================================================
NAME = Nd_water.inp
|  1> ! OPT FREQ B3LYP 6-31+G(d) D4 AUTOAUX CPCM(water)
|  2> 
|  3> %PAL NPROCS 4 END
|  4> 
|  5> %maxcore 3375
|  6> 
|  7> *xyzfile -1 1 /users/fjb15167/WWenergy/structures/Nd.xyz
|  8> 
|  9>                          ****END OF INPUT****
================================================================================

                       *****************************
                       * Geometry Optimization Run *
                       *****************************

Geometry optimization settings:
Update method            Update   .... BFGS
Choice of coordinates    CoordSys .... Z-matrix Internals
Initial Hessian          InHess   .... Almoef's Model

Convergence Tolerances:
Energy Change            TolE     ....  5.0000e-06 Eh
Max. Gradient            TolMAXG  ....  3.0000e-04 Eh/bohr
RMS Gradient             TolRMSG  ....  1.0000e-04 Eh/bohr
Max. Displacement        TolMAXD  ....  4.0000e-03 bohr
RMS Displacement         TolRMSD  ....  2.0000e-03 bohr
Strict Convergence                ....  False
------------------------------------------------------------------------------
                        ORCA OPTIMIZATION COORDINATE SETUP
------------------------------------------------------------------------------

The optimization will be done in new redundant internal coordinates
Making redundant internal coordinates   ...  (new redundants) done
Evaluating the initial hessian          ...  (Almloef) done
Evaluating the coordinates              ...  done
Calculating the B-matrix                .... done
Calculating the G-matrix                .... done
Diagonalizing the G-matrix              .... done
Small eigenvalue found = 8.650e-03
Small eigenvalue found = 1.381e-02
Small eigenvalue found = 1.970e-02
Small eigenvalue found = 2.568e-02
The first mode is                       ....   46
The number of degrees of freedom        ....   75

    -----------------------------------------------------------------
                    Redundant Internal Coordinates


    -----------------------------------------------------------------
         Definition                    Initial Value    Approx d2E/dq
    -----------------------------------------------------------------
      1. B(H   1,C   0)                  1.0955         0.352920   
      2. B(H   2,C   0)                  1.0914         0.358260   
      3. B(H   3,C   0)                  1.0937         0.355276   
      4. B(C   4,C   0)                  1.5351         0.366621   
      5. B(O   5,C   4)                  1.2246         1.027418   
      6. B(N   6,C   4)                  1.3673         0.608191   
      7. B(C   7,N   6)                  1.4408         0.464264   
      8. B(H   8,C   7)                  1.0958         0.352560   
      9. B(H   9,C   7)                  1.0976         0.350237   
     10. B(C  10,N   6)                  1.4615         0.430290   
     11. B(H  11,C  10)                  1.0921         0.357343   
     12. B(C  12,C   7)                  1.5239         0.381979   
     13. B(N  13,C  12)                  1.3836         0.572924   
     14. B(O  14,C  12)                  1.2376         0.979388   
     15. B(C  15,N  13)                  1.4550         0.440709   
     16. B(H  16,C  15)                  1.0949         0.353692   
     17. B(H  17,C  15)                  1.1008         0.346068   
     18. B(H  18,C  15)                  1.0890         0.361411   
     19. B(C  19,N  13)                  1.4568         0.437812   
     20. B(H  20,C  19)                  1.0942         0.354570   
     21. B(H  21,C  19)                  1.0898         0.360428   
     22. B(H  22,C  19)                  1.1002         0.346841   
     23. B(C  23,C  10)                  1.5627         0.331289   
     24. B(O  24,C  23)                  1.2675         0.877556   
     25. B(H  25,C  10)                  1.0962         0.352035   
     26. B(O  26,C  23)                  1.2658         0.883239   
     27. A(H   1,C   0,C   4)          111.8798         0.322255   
     28. A(H   2,C   0,C   4)          106.6196         0.323049   
     29. A(H   3,C   0,C   4)          110.8846         0.322606   
     30. A(H   1,C   0,H   2)          109.0818         0.289689   
     31. A(H   2,C   0,H   3)          109.8838         0.289991   
     32. A(H   1,C   0,H   3)          108.4634         0.289309   
     33. A(C   0,C   4,O   5)          121.0118         0.429657   
     34. A(O   5,C   4,N   6)          124.1665         0.467864   
     35. A(C   0,C   4,N   6)          114.8201         0.391537   
     36. A(C   7,N   6,C  10)          115.1484         0.381676   
     37. A(C   4,N   6,C  10)          124.7929         0.400122   
     38. A(C   4,N   6,C   7)          116.5620         0.405520   
     39. A(N   6,C   7,C  12)          112.5570         0.376256   
     40. A(H   8,C   7,H   9)          108.0014         0.288616   
     41. A(N   6,C   7,H   9)          107.5462         0.332614   
     42. A(N   6,C   7,H   8)          107.7235         0.332978   
     43. A(H   9,C   7,C  12)          111.1511         0.324025   
     44. A(H   8,C   7,C  12)          109.6921         0.324377   
     45. A(N   6,C  10,H  25)          107.5498         0.328737   
     46. A(H  11,C  10,C  23)          109.3096         0.317609   
     47. A(N   6,C  10,C  23)          114.7473         0.362404   
     48. A(C  23,C  10,H  25)          109.0389         0.316836   
     49. A(N   6,C  10,H  11)          109.9156         0.329550   
     50. A(H  11,C  10,H  25)          105.8930         0.289458   
     51. A(N  13,C  12,O  14)          121.6302         0.458748   
     52. A(C   7,C  12,O  14)          122.9509         0.429130   
     53. A(C   7,C  12,N  13)          115.4053         0.390260   
     54. A(C  15,N  13,C  19)          115.4733         0.379384   
     55. A(C  12,N  13,C  19)          121.9158         0.397150   
     56. A(C  12,N  13,C  15)          117.4767         0.397611   
     57. A(H  17,C  15,H  18)          108.7336         0.289196   
     58. A(H  16,C  15,H  18)          109.9391         0.290186   
     59. A(N  13,C  15,H  18)          108.7454         0.331477   
     60. A(H  16,C  15,H  17)          108.8934         0.288221   
     61. A(N  13,C  15,H  17)          111.5079         0.329108   
     62. A(N  13,C  15,H  16)          109.0107         0.330295   
     63. A(H  21,C  19,H  22)          108.8262         0.289174   
     64. A(H  20,C  19,H  22)          108.5955         0.288433   
     65. A(N  13,C  19,H  22)          112.1206         0.328871   
     66. A(H  20,C  19,H  21)          108.1053         0.290175   
     67. A(N  13,C  19,H  21)          110.8164         0.330966   
     68. A(N  13,C  19,H  20)          108.2713         0.330070   
     69. A(O  24,C  23,O  26)          130.3931         0.486797   
     70. A(C  10,C  23,O  26)          113.0344         0.410731   
     71. A(C  10,C  23,O  24)          116.5705         0.410262   
     72. D(N   6,C   4,C   0,H   1)    -63.3691         0.010079   
     73. D(O   5,C   4,C   0,H   1)    116.1998         0.010079   
     74. D(N   6,C   4,C   0,H   2)    177.4531         0.010079   
     75. D(O   5,C   4,C   0,H   2)     -2.9780         0.010079   
     76. D(N   6,C   4,C   0,H   3)     57.8632         0.010079   
     77. D(O   5,C   4,C   0,H   3)   -122.5679         0.010079   
     78. D(C   7,N   6,C   4,C   0)   -166.4312         0.029865   
     79. D(C   7,N   6,C   4,O   5)     14.0153         0.029865   
     80. D(C  10,N   6,C   4,O   5)    171.8219         0.029865   
     81. D(C  10,N   6,C   4,C   0)     -8.6246         0.029865   
     82. D(H   9,C   7,N   6,C  10)    -39.0421         0.018406   
     83. D(H   9,C   7,N   6,C   4)    120.9173         0.018406   
     84. D(C  12,C   7,N   6,C  10)     83.7179         0.018406   
     85. D(C  12,C   7,N   6,C   4)   -116.3227         0.018406   
     86. D(H   8,C   7,N   6,C   4)      4.7291         0.018406   
     87. D(H   8,C   7,N   6,C  10)   -155.2303         0.018406   
     88. D(H  25,C  10,N   6,C   7)    -47.7500         0.015785   
     89. D(H  25,C  10,N   6,C   4)    154.1659         0.015785   
     90. D(C  23,C  10,N   6,C   7)     73.7508         0.015785   
     91. D(H  11,C  10,N   6,C   7)   -162.5883         0.015785   
     92. D(H  11,C  10,N   6,C   4)     39.3276         0.015785   
     93. D(C  23,C  10,N   6,C   4)    -84.3333         0.015785   
     94. D(O  14,C  12,C   7,H   9)    123.0351         0.010881   
     95. D(O  14,C  12,C   7,H   8)   -117.5970         0.010881   
     96. D(O  14,C  12,C   7,N   6)      2.3223         0.010881   
     97. D(N  13,C  12,C   7,H   9)    -58.2847         0.010881   
     98. D(N  13,C  12,C   7,H   8)     61.0831         0.010881   
     99. D(N  13,C  12,C   7,N   6)   -178.9976         0.010881   
    100. D(C  19,N  13,C  12,C   7)     16.2643         0.026286   
    101. D(C  15,N  13,C  12,O  14)    -11.5264         0.026286   
    102. D(C  15,N  13,C  12,C   7)    169.7744         0.026286   
    103. D(C  19,N  13,C  12,O  14)   -165.0364         0.026286   
    104. D(H  18,C  15,N  13,C  19)   -172.9828         0.016562   
    105. D(H  18,C  15,N  13,C  12)     31.8126         0.016562   
    106. D(H  17,C  15,N  13,C  19)     67.1311         0.016562   
    107. D(H  17,C  15,N  13,C  12)    -88.0734         0.016562   
    108. D(H  16,C  15,N  13,C  19)    -53.1268         0.016562   
    109. D(H  16,C  15,N  13,C  12)    151.6687         0.016562   
    110. D(H  22,C  19,N  13,C  15)    -75.2456         0.016344   
    111. D(H  22,C  19,N  13,C  12)     78.7565         0.016344   
    112. D(H  21,C  19,N  13,C  15)    162.9377         0.016344   
    113. D(H  21,C  19,N  13,C  12)    -43.0603         0.016344   
    114. D(H  20,C  19,N  13,C  15)     44.5365         0.016344   
    115. D(H  20,C  19,N  13,C  12)   -161.4615         0.016344   
    116. D(O  26,C  23,C  10,H  25)    -59.1035         0.008386   
    117. D(O  26,C  23,C  10,H  11)     56.2289         0.008386   
    118. D(O  26,C  23,C  10,N   6)   -179.7879         0.008386   
    119. D(O  24,C  23,C  10,H  25)    120.4444         0.008386   
    120. D(O  24,C  23,C  10,H  11)   -124.2232         0.008386   
    121. D(O  24,C  23,C  10,N   6)     -0.2400         0.008386   
    -----------------------------------------------------------------

Number of atoms                         .... 27
Number of degrees of freedom            .... 121

         *************************************************************
         *                GEOMETRY OPTIMIZATION CYCLE   1            *
         *************************************************************
---------------------------------
CARTESIAN COORDINATES (ANGSTROEM)
---------------------------------
  C      1.710000    2.899000    0.090000
  H      1.591000    3.195000    1.138000
  H      1.855000    3.793000   -0.519000
  H      2.586000    2.249000    0.011000
  C      0.457000    2.197000   -0.452000
  O     -0.199000    2.690000   -1.361000
  N      0.150000    1.015000    0.163000
  C     -0.821000    0.179000   -0.496000
  H     -1.072000    0.650000   -1.453000
  H     -0.339000   -0.784000   -0.708000
  C      1.008000    0.329000    1.127000
  H      1.483000    1.058000    1.787000
  C     -2.087000   -0.010000    0.331000
  N     -3.052000   -0.822000   -0.238000
  O     -2.264000    0.539000    1.426000
  C     -4.174000   -1.219000    0.599000
  H     -5.049000   -1.392000   -0.036000
  H     -3.953000   -2.140000    1.160000
  H     -4.382000   -0.419000    1.308000
  C     -2.749000   -1.718000   -1.346000
  H     -3.690000   -1.993000   -1.832000
  H     -2.119000   -1.222000   -2.084000
  H     -2.246000   -2.637000   -1.010000
  C      2.105000   -0.585000    0.492000
  O      2.134000   -0.640000   -0.774000
  H      0.362000   -0.281000    1.769000
  O      2.826000   -1.166000    1.355000

----------------------------
CARTESIAN COORDINATES (A.U.)
----------------------------
  NO LB      ZA    FRAG     MASS         X           Y           Z
   0 C     6.0000    0    12.011    3.231432    5.478316    0.170075
   1 H     1.0000    0     1.008    3.006554    6.037675    2.150508
   2 H     1.0000    0     1.008    3.505442    7.167731   -0.980768
   3 H     1.0000    0     1.008    4.886832    4.249994    0.020787
   4 C     6.0000    0    12.011    0.863605    4.151728   -0.854156
   5 O     8.0000    0    15.999   -0.376056    5.083363   -2.571917
   6 N     7.0000    0    14.007    0.283459    1.918072    0.308025
   7 C     6.0000    0    12.011   -1.551465    0.338261   -0.937304
   8 H     1.0000    0     1.008   -2.025786    1.228322   -2.745772
   9 H     1.0000    0     1.008   -0.640617   -1.481545   -1.337926
  10 C     6.0000    0    12.011    1.904844    0.621720    2.129721
  11 H     1.0000    0     1.008    2.802464    1.999330    3.376941
  12 C     6.0000    0    12.011   -3.943858   -0.018897    0.625499
  13 N     7.0000    0    14.007   -5.767444   -1.553355   -0.449755
  14 O     8.0000    0    15.999   -4.278340    1.018562    2.694749
  15 C     6.0000    0    12.011   -7.887717   -2.303576    1.131946
  16 H     1.0000    0     1.008   -9.541227   -2.630499   -0.068030
  17 H     1.0000    0     1.008   -7.470087   -4.044014    2.192082
  18 H     1.0000    0     1.008   -8.280780   -0.791795    2.471762
  19 C     6.0000    0    12.011   -5.194857   -3.246549   -2.543571
  20 H     1.0000    0     1.008   -6.973089   -3.766224   -3.461978
  21 H     1.0000    0     1.008   -4.004330   -2.309245   -3.938189
  22 H     1.0000    0     1.008   -4.244325   -4.983208   -1.908623
  23 C     6.0000    0    12.011    3.977874   -1.105490    0.929745
  24 O     8.0000    0    15.999    4.032676   -1.209425   -1.462648
  25 H     1.0000    0     1.008    0.684081   -0.531013    3.342926
  26 O     8.0000    0    15.999    5.340366   -2.203421    2.560579

--------------------------------
INTERNAL COORDINATES (ANGSTROEM)
--------------------------------
 C      0   0   0     0.000000000000     0.00000000     0.00000000
 H      1   0   0     1.095482085659     0.00000000     0.00000000
 H      1   2   0     1.091394520785   109.08175670     0.00000000
 H      1   2   3     1.093671340029   108.46339948   119.66432947
 C      1   2   3     1.535114653699   111.87984024   242.28609443
 O      5   1   2     1.224608508871   121.01182227   116.19977182
 N      5   1   2     1.367332439460   114.82014886   296.63086080
 C      7   5   1     1.440839338719   116.56198332   193.56879744
 H      8   7   5     1.095760466525   107.72347135     4.72909582
 H      8   7   5     1.097559565582   107.54619095   120.91727837
 C      7   5   1     1.461525230709   124.79292022   351.37537697
 H     11   7   5     1.092092486926   109.91562052    39.32760984
 C      8   7   5     1.523944224701   112.55696502   243.67729116
 N     13   8   7     1.383593148292   115.40533090   181.00242993
 O     13   8   7     1.237640901069   122.95092094     2.32227587
 C     14  13   8     1.455012714721   117.47670147   169.77435665
 H     16  14  13     1.094887665471   109.01070260   151.66869025
 H     16  14  13     1.100819240384   111.50787374   271.92655163
 H     16  14  13     1.089011019228   108.74542422    31.81263976
 C     14  13   8     1.456807811621   121.91584551    16.26431922
 H     20  14  13     1.094212959163   108.27133697   198.53845949
 H     20  14  13     1.089752265425   110.81639050   316.93974935
 H     20  14  13     1.100211797792   112.12059762    78.75645872
 C     11   7   5     1.562699587253   114.74730977   275.66671521
 O     24  11   7     1.267525936618   116.57052294   359.75999024
 H     11   7   5     1.096166045816   107.54976646   154.16590830
 O     24  11   7     1.265768936260   113.03440954   180.21211308

---------------------------
INTERNAL COORDINATES (A.U.)
---------------------------
 C      0   0   0     0.000000000000     0.00000000     0.00000000
 H      1   0   0     2.070161126513     0.00000000     0.00000000
 H      1   2   0     2.062436748346   109.08175670     0.00000000
 H      1   2   3     2.066739313173   108.46339948   119.66432947
 C      1   2   3     2.900946279660   111.87984024   242.28609443
 O      5   1   2     2.314174703036   121.01182227   116.19977182
 N      5   1   2     2.583883844606   114.82014886   296.63086080
 C      7   5   1     2.722791753159   116.56198332   193.56879744
 H      8   7   5     2.070687190111   107.72347135     4.72909582
 H      8   7   5     2.074086994615   107.54619095   120.91727837
 C      7   5   1     2.761882423857   124.79292022   351.37537697
 H     11   7   5     2.063755713203   109.91562052    39.32760984
 C      8   7   5     2.879837228056   112.55696502   243.67729116
 N     13   8   7     2.614612131041   115.40533090   181.00242993
 O     13   8   7     2.338802355161   122.95092094     2.32227587
 C     14  13   8     2.749575552196   117.47670147   169.77435665
 H     16  14  13     2.069037835148   109.01070260   151.66869025
 H     16  14  13     2.080246887277   111.50787374   271.92655163
 H     16  14  13     2.057932583163   108.74542422    31.81263976
 C     14  13   8     2.752967793721   121.91584551    16.26431922
 H     20  14  13     2.067762825005   108.27133697   198.53845949
 H     20  14  13     2.059333335474   110.81639050   316.93974935
 H     20  14  13     2.079098987135   112.12059762    78.75645872
 C     11   7   5     2.953074249500   114.74730977   275.66671521
 O     24  11   7     2.395276887851   116.57052294   359.75999024
 H     11   7   5     2.071453623896   107.54976646   154.16590830
 O     24  11   7     2.391956638356   113.03440954   180.21211308

---------------------
BASIS SET INFORMATION
---------------------
There are 4 groups of distinct atoms

 Group   1 Type C   : 11s5p1d contracted to 4s3p1d pattern {6311/311/1}
 Group   2 Type H   : 4s contracted to 2s pattern {31}
 Group   3 Type O   : 11s5p1d contracted to 4s3p1d pattern {6311/311/1}
 Group   4 Type N   : 11s5p1d contracted to 4s3p1d pattern {6311/311/1}

Atom   0C    basis set group =>   1
Atom   1H    basis set group =>   2
Atom   2H    basis set group =>   2
Atom   3H    basis set group =>   2
Atom   4C    basis set group =>   1
Atom   5O    basis set group =>   3
Atom   6N    basis set group =>   4
Atom   7C    basis set group =>   1
Atom   8H    basis set group =>   2
Atom   9H    basis set group =>   2
Atom  10C    basis set group =>   1
Atom  11H    basis set group =>   2
Atom  12C    basis set group =>   1
Atom  13N    basis set group =>   4
Atom  14O    basis set group =>   3
Atom  15C    basis set group =>   1
Atom  16H    basis set group =>   2
Atom  17H    basis set group =>   2
Atom  18H    basis set group =>   2
Atom  19C    basis set group =>   1
Atom  20H    basis set group =>   2
Atom  21H    basis set group =>   2
Atom  22H    basis set group =>   2
Atom  23C    basis set group =>   1
Atom  24O    basis set group =>   3
Atom  25H    basis set group =>   2
Atom  26O    basis set group =>   3
---------------------------------
AUXILIARY/J BASIS SET INFORMATION
---------------------------------
There are 4 groups of distinct atoms

 Group   1 Type C   : 16s13p12d2f contracted to 16s13p12d2f pattern {1111111111111111/1111111111111/111111111111/11}
 Group   2 Type H   : 9s2p contracted to 9s2p pattern {111111111/11}
 Group   3 Type O   : 16s13p12d3f contracted to 16s13p12d3f pattern {1111111111111111/1111111111111/111111111111/111}
 Group   4 Type N   : 16s13p12d3f contracted to 16s13p12d3f pattern {1111111111111111/1111111111111/111111111111/111}

Atom   0C    basis set group =>   1
Atom   1H    basis set group =>   2
Atom   2H    basis set group =>   2
Atom   3H    basis set group =>   2
Atom   4C    basis set group =>   1
Atom   5O    basis set group =>   3
Atom   6N    basis set group =>   4
Atom   7C    basis set group =>   1
Atom   8H    basis set group =>   2
Atom   9H    basis set group =>   2
Atom  10C    basis set group =>   1
Atom  11H    basis set group =>   2
Atom  12C    basis set group =>   1
Atom  13N    basis set group =>   4
Atom  14O    basis set group =>   3
Atom  15C    basis set group =>   1
Atom  16H    basis set group =>   2
Atom  17H    basis set group =>   2
Atom  18H    basis set group =>   2
Atom  19C    basis set group =>   1
Atom  20H    basis set group =>   2
Atom  21H    basis set group =>   2
Atom  22H    basis set group =>   2
Atom  23C    basis set group =>   1
Atom  24O    basis set group =>   3
Atom  25H    basis set group =>   2
Atom  26O    basis set group =>   3
---------------------------------
AUXILIARY/C BASIS SET INFORMATION
---------------------------------
There are 4 groups of distinct atoms

 Group   1 Type C   : 16s13p12d2f contracted to 16s13p12d2f pattern {1111111111111111/1111111111111/111111111111/11}
 Group   2 Type H   : 9s2p contracted to 9s2p pattern {111111111/11}
 Group   3 Type O   : 16s13p12d3f contracted to 16s13p12d3f pattern {1111111111111111/1111111111111/111111111111/111}
 Group   4 Type N   : 16s13p12d3f contracted to 16s13p12d3f pattern {1111111111111111/1111111111111/111111111111/111}

Atom   0C    basis set group =>   1
Atom   1H    basis set group =>   2
Atom   2H    basis set group =>   2
Atom   3H    basis set group =>   2
Atom   4C    basis set group =>   1
Atom   5O    basis set group =>   3
Atom   6N    basis set group =>   4
Atom   7C    basis set group =>   1
Atom   8H    basis set group =>   2
Atom   9H    basis set group =>   2
Atom  10C    basis set group =>   1
Atom  11H    basis set group =>   2
Atom  12C    basis set group =>   1
Atom  13N    basis set group =>   4
Atom  14O    basis set group =>   3
Atom  15C    basis set group =>   1
Atom  16H    basis set group =>   2
Atom  17H    basis set group =>   2
Atom  18H    basis set group =>   2
Atom  19C    basis set group =>   1
Atom  20H    basis set group =>   2
Atom  21H    basis set group =>   2
Atom  22H    basis set group =>   2
Atom  23C    basis set group =>   1
Atom  24O    basis set group =>   3
Atom  25H    basis set group =>   2
Atom  26O    basis set group =>   3
----------------------------------
AUXILIARY/JK BASIS SET INFORMATION
----------------------------------
There are 4 groups of distinct atoms

 Group   1 Type C   : 16s13p12d2f contracted to 16s13p12d2f pattern {1111111111111111/1111111111111/111111111111/11}
 Group   2 Type H   : 9s2p contracted to 9s2p pattern {111111111/11}
 Group   3 Type O   : 16s13p12d3f contracted to 16s13p12d3f pattern {1111111111111111/1111111111111/111111111111/111}
 Group   4 Type N   : 16s13p12d3f contracted to 16s13p12d3f pattern {1111111111111111/1111111111111/111111111111/111}

Atom   0C    basis set group =>   1
Atom   1H    basis set group =>   2
Atom   2H    basis set group =>   2
Atom   3H    basis set group =>   2
Atom   4C    basis set group =>   1
Atom   5O    basis set group =>   3
Atom   6N    basis set group =>   4
Atom   7C    basis set group =>   1
Atom   8H    basis set group =>   2
Atom   9H    basis set group =>   2
Atom  10C    basis set group =>   1
Atom  11H    basis set group =>   2
Atom  12C    basis set group =>   1
Atom  13N    basis set group =>   4
Atom  14O    basis set group =>   3
Atom  15C    basis set group =>   1
Atom  16H    basis set group =>   2
Atom  17H    basis set group =>   2
Atom  18H    basis set group =>   2
Atom  19C    basis set group =>   1
Atom  20H    basis set group =>   2
Atom  21H    basis set group =>   2
Atom  22H    basis set group =>   2
Atom  23C    basis set group =>   1
Atom  24O    basis set group =>   3
Atom  25H    basis set group =>   2
Atom  26O    basis set group =>   3


           ************************************************************
           *        Program running with 4 parallel MPI-processes     *
           *              working on a common directory               *
           ************************************************************
------------------------------------------------------------------------------
                           ORCA GTO INTEGRAL CALCULATION
                           -- RI-GTO INTEGRALS CHOSEN --
------------------------------------------------------------------------------
------------------------------------------------------------------------------
                   ___                                                        
                  /   \      - P O W E R E D   B Y -                         
                 /     \                                                     
                 |  |  |   _    _      __       _____    __    __             
                 |  |  |  | |  | |    /  \     |  _  \  |  |  /  |          
                  \  \/   | |  | |   /    \    | | | |  |  | /  /          
                 / \  \   | |__| |  /  /\  \   | |_| |  |  |/  /          
                |  |  |   |  __  | /  /__\  \  |    /   |      \           
                |  |  |   | |  | | |   __   |  |    \   |  |\   \          
                \     /   | |  | | |  |  |  |  | |\  \  |  | \   \       
                 \___/    |_|  |_| |__|  |__|  |_| \__\ |__|  \__/        
                                                                              
                      - O R C A' S   B I G   F R I E N D -                    
                                      &                                       
                       - I N T E G R A L  F E E D E R -                       
                                                                              
 v1 FN, 2020, v2 2021                                                         
------------------------------------------------------------------------------


Reading SHARK input file Nd_water.SHARKINP.tmp ... ok
----------------------
SHARK INTEGRAL PACKAGE
----------------------

Number of atoms                             ...     27
Number of basis functions                   ...    278
Number of shells                            ...    138
Maximum angular momentum                    ...      2
Integral batch strategy                     ... SHARK/LIBINT Hybrid
RI-J (if used) integral strategy            ... SPLIT-RIJ (Revised 2003 algorithm where possible)
Printlevel                                  ...      1
Contraction scheme used                     ... SEGMENTED contraction
Coulomb Range Separation                    ... NOT USED
Exchange Range Separation                   ... NOT USED
Finite Nucleus Model                        ... NOT USED
Auxiliary Coulomb fitting basis             ... AVAILABLE
   # of basis functions in Aux-J            ...   2043
   # of shells in Aux-J                     ...    751
   Maximum angular momentum in Aux-J        ...      3
Auxiliary J/K fitting basis                 ... AVAILABLE
   # of basis functions in Aux-JK           ...   2043
   # of shells in Aux-JK                    ...    751
   Maximum angular momentum in Aux-JK       ...      3
Auxiliary Correlation fitting basis         ... AVAILABLE
   # of basis functions in Aux-C            ...   2043
   # of shells in Aux-C                     ...    751
   Maximum angular momentum in Aux-C        ...      3
Auxiliary 'external' fitting basis          ... NOT available
Integral threshold                          ...     2.500000e-11
Primitive cut-off                           ...     2.500000e-12
Primitive pair pre-selection threshold      ...     2.500000e-12

Calculating pre-screening integrals         ... done (  0.0 sec) Dimension = 138
Organizing shell pair data                  ... done (  0.1 sec)
Shell pair information
Total number of shell pairs                 ...      9591
Shell pairs after pre-screening             ...      8611
Total number of primitive shell pairs       ...     42528
Primitive shell pairs kept                  ...     24858
          la=0 lb=0:   2939 shell pairs
          la=1 lb=0:   3225 shell pairs
          la=1 lb=1:    881 shell pairs
          la=2 lb=0:    938 shell pairs
          la=2 lb=1:    546 shell pairs
          la=2 lb=2:     82 shell pairs

Calculating one electron integrals          ... done (  0.0 sec)
Calculating RI/J V-Matrix + Cholesky decomp.... done (  0.3 sec)
Calculating RI/JK V-Matrix + Cholesky decomp... done (  0.3 sec)
Calculating RI/C V-Matrix + Cholesky decomp.... done (  0.3 sec)
Calculating Nuclear repulsion               ... done (  0.0 sec) ENN=    939.826910035808 Eh

SHARK setup successfully completed in   1.2 seconds

Maximum memory used throughout the entire GTOINT-calculation: 37.3 MB


           ************************************************************
           *        Program running with 4 parallel MPI-processes     *
           *              working on a common directory               *
           ************************************************************
-------------------------------------------------------------------------------
                                 ORCA SCF
-------------------------------------------------------------------------------

------------
SCF SETTINGS
------------
Hamiltonian:
 Density Functional     Method          .... DFT(GTOs)
 Exchange Functional    Exchange        .... B88
   X-Alpha parameter    XAlpha          ....  0.666667
   Becke's b parameter  XBeta           ....  0.004200
 Correlation Functional Correlation     .... LYP
 LDA part of GGA corr.  LDAOpt          .... VWN-5
 Gradients option       PostSCFGGA      .... off
 Hybrid DFT is turned on
   Fraction HF Exchange ScalHFX         ....  0.200000
   Scaling of DF-GGA-X  ScalDFX         ....  0.720000
   Scaling of DF-GGA-C  ScalDFC         ....  0.810000
   Scaling of DF-LDA-C  ScalLDAC        ....  1.000000
   Perturbative correction              ....  0.000000
   Density functional embedding theory  .... OFF
   NL short-range parameter             ....  4.800000
 RI-approximation to the Coulomb term is turned on
   Number of AuxJ basis functions       .... 2043
   RIJ-COSX (HFX calculated with COS-X)).... on


General Settings:
 Integral files         IntName         .... Nd_water
 Hartree-Fock type      HFTyp           .... RHF
 Total Charge           Charge          ....   -1
 Multiplicity           Mult            ....    1
 Number of Electrons    NEL             ....  108
 Basis Dimension        Dim             ....  278
 Nuclear Repulsion      ENuc            ....    939.8269100358 Eh

Convergence Acceleration:
 DIIS                   CNVDIIS         .... on
   Start iteration      DIISMaxIt       ....    12
   Startup error        DIISStart       ....  0.200000
   # of expansion vecs  DIISMaxEq       ....     5
   Bias factor          DIISBfac        ....   1.050
   Max. coefficient     DIISMaxC        ....  10.000
 Trust-Rad. Augm. Hess. CNVTRAH         .... auto
   Auto Start mean grad. ratio tolernc. ....  1.125000
   Auto Start start iteration           ....    20
   Auto Start num. interpolation iter.  ....    10
   Max. Number of Micro iterations      ....    16
   Max. Number of Macro iterations      .... Maxiter - #DIIS iter
   Number of Davidson start vectors     ....     2
   Converg. threshold I  (grad. norm)   ....   1.000e-05
   Converg. threshold II (energy diff.) ....   1.000e-08
   Grad. Scal. Fac. for Micro threshold ....   0.100
   Minimum threshold for Micro iter.    ....   0.010
   NR start threshold (gradient norm)   ....   0.001
   Initial trust radius                 ....   0.400
   Minimum AH scaling param. (alpha)    ....   1.000
   Maximum AH scaling param. (alpha)    .... 1000.000
   Orbital update algorithm             .... Taylor
   White noise on init. David. guess    .... on
   Maximum white noise                  ....   0.010
   Quad. conv. algorithm                .... NR
 SOSCF                  CNVSOSCF        .... on
   Start iteration      SOSCFMaxIt      ....   150
   Startup grad/error   SOSCFStart      ....  0.003300
 Level Shifting         CNVShift        .... on
   Level shift para.    LevelShift      ....    0.2500
   Turn off err/grad.   ShiftErr        ....    0.0010
 Zerner damping         CNVZerner       .... off
 Static damping         CNVDamp         .... on
   Fraction old density DampFac         ....    0.7000
   Max. Damping (<1)    DampMax         ....    0.9800
   Min. Damping (>=0)   DampMin         ....    0.0000
   Turn off err/grad.   DampErr         ....    0.1000
 Fernandez-Rico         CNVRico         .... off

SCF Procedure:
 Maximum # iterations   MaxIter         ....   125
 SCF integral mode      SCFMode         .... Direct
   Integral package                     .... SHARK and LIBINT hybrid scheme
 Reset frequency        DirectResetFreq ....    20
 Integral Threshold     Thresh          ....  2.500e-11 Eh
 Primitive CutOff       TCut            ....  2.500e-12 Eh

Convergence Tolerance:
 Convergence Check Mode ConvCheckMode   .... Total+1el-Energy
 Convergence forced     ConvForced      .... 0
 Energy Change          TolE            ....  1.000e-08 Eh
 1-El. energy change                    ....  1.000e-05 Eh
 Orbital Gradient       TolG            ....  1.000e-05
 Orbital Rotation angle TolX            ....  1.000e-05
 DIIS Error             TolErr          ....  5.000e-07


Diagonalization of the overlap matrix:
Smallest eigenvalue                        ... 1.041e-05
Time for diagonalization                   ...    0.013 sec
Threshold for overlap eigenvalues          ... 1.000e-08
Number of eigenvalues below threshold      ... 0
Time for construction of square roots      ...    0.006 sec
Total time needed                          ...    0.019 sec

Time for model grid setup =    0.233 sec

------------------------------
INITIAL GUESS: MODEL POTENTIAL
------------------------------
Loading Hartree-Fock densities                     ... done
Calculating cut-offs                               ... done
Initializing the effective Hamiltonian             ... done
Setting up the integral package (SHARK)            ... done
Starting the Coulomb interaction                   ... done (   0.2 sec)
Reading the grid                                   ... done
Mapping shells                                     ... done
Starting the XC term evaluation                    ... done (   0.2 sec)
  promolecular density results
     # of electrons  =    106.991721915
     EX              =    -90.886329998
     EC              =     -3.676791818
     EX+EC           =    -94.563121816
Transforming the Hamiltonian                       ... done (   0.0 sec)
Diagonalizing the Hamiltonian                      ... done (   0.0 sec)
Back transforming the eigenvectors                 ... done (   0.0 sec)
Now organizing SCF variables                       ... done
                      ------------------
                      INITIAL GUESS DONE (   0.7 sec)
                      ------------------
-------------------
DFT GRID GENERATION
-------------------

General Integration Accuracy     IntAcc      ... 4.388
Radial Grid Type                 RadialGrid  ... OptM3 with GC (2021)
Angular Grid (max. ang.)         AngularGrid ... 4 (Lebedev-302)
Angular grid pruning method      GridPruning ... 4 (adaptive)
Weight generation scheme         WeightScheme... Becke
Basis function cutoff            BFCut       ... 1.0000e-11
Integration weight cutoff        WCut        ... 1.0000e-14
Angular grids for H and He will be reduced by one unit
Partially contracted basis set               ... off
Rotationally invariant grid construction     ... off

Total number of grid points                  ...   129432
Total number of batches                      ...     2038
Average number of points per batch           ...       63
Average number of grid points per atom       ...     4794
Time for grid setup =    1.039 sec

--------------------
COSX GRID GENERATION
--------------------

GRIDX 1
-------
General Integration Accuracy     IntAcc      ... 3.816
Radial Grid Type                 RadialGrid  ... OptM3 with GC (2021)
Angular Grid (max. ang.)         AngularGrid ... 1 (Lebedev-50)
Angular grid pruning method      GridPruning ... 4 (adaptive)
Weight generation scheme         WeightScheme... Becke
Basis function cutoff            BFCut       ... 1.0000e-11
Integration weight cutoff        WCut        ... 1.0000e-14
Angular grids for H and He will be reduced by one unit
Partially contracted basis set               ... on
Rotationally invariant grid construction     ... off

Total number of grid points                  ...    16481
Total number of batches                      ...      271
Average number of points per batch           ...       60
Average number of grid points per atom       ...      610
UseSFitting                                  ... on

GRIDX 2
-------
General Integration Accuracy     IntAcc      ... 4.020
Radial Grid Type                 RadialGrid  ... OptM3 with GC (2021)
Angular Grid (max. ang.)         AngularGrid ... 2 (Lebedev-110)
Angular grid pruning method      GridPruning ... 4 (adaptive)
Weight generation scheme         WeightScheme... Becke
Basis function cutoff            BFCut       ... 1.0000e-11
Integration weight cutoff        WCut        ... 1.0000e-14
Angular grids for H and He will be reduced by one unit
Partially contracted basis set               ... on
Rotationally invariant grid construction     ... off

Total number of grid points                  ...    38636
Total number of batches                      ...      617
Average number of points per batch           ...       62
Average number of grid points per atom       ...     1431
UseSFitting                                  ... on

GRIDX 3
-------
General Integration Accuracy     IntAcc      ... 4.338
Radial Grid Type                 RadialGrid  ... OptM3 with GC (2021)
Angular Grid (max. ang.)         AngularGrid ... 3 (Lebedev-194)
Angular grid pruning method      GridPruning ... 4 (adaptive)
Weight generation scheme         WeightScheme... Becke
Basis function cutoff            BFCut       ... 1.0000e-11
Integration weight cutoff        WCut        ... 1.0000e-14
Angular grids for H and He will be reduced by one unit
Partially contracted basis set               ... on
Rotationally invariant grid construction     ... off

Total number of grid points                  ...    83257
Total number of batches                      ...     1311
Average number of points per batch           ...       63
Average number of grid points per atom       ...     3084
UseSFitting                                  ... on

Time for X-Grid setup             =    4.017 sec


--------------------
CPCM SOLVATION MODEL
--------------------
CPCM parameters:
  Epsilon                                         ...      80.4000
  Refrac                                          ...       1.3300
  Rsolv                                           ...       1.3000
  Surface type                                    ... GAUSSIAN VDW
  Epsilon function type                           ...         CPCM
Radii:
 Radius for C  used is    3.8550 Bohr (=   2.0400 Ang.)
 Radius for H  used is    2.4944 Bohr (=   1.3200 Ang.)
 Radius for O  used is    3.4469 Bohr (=   1.8240 Ang.)
 Radius for N  used is    3.5149 Bohr (=   1.8600 Ang.)
Calculating surface                               ...        done! (  0.0s)
GEPOL surface points                              ...         1454
GEPOL Volume                                      ...    1628.5607
GEPOL Surface-area                                ...     888.0477
Calculating surface distance matrix               ...        done! (  0.0s)
Performing Cholesky decomposition & store         ...        done! (  0.1s)
Overall time for CPCM initialization              ...                 0.1s
--------------
SCF ITERATIONS
--------------
ITER       Energy         Delta-E        Max-DP      RMS-DP      [F,P]     Damp
               ***  Starting incremental Fock matrix formation  ***
  0   -722.3839307877   0.000000000000 0.09305822  0.00276028  0.2898877 0.7000
  1   -722.6365842242  -0.252653436535 0.14907114  0.00210488  0.1179852 0.7000
                               ***Turning on DIIS***
  2   -722.7236705869  -0.087086362659 0.46554292  0.00459264  0.0361300 0.0000
  3   -722.8721976817  -0.148527094851 0.13409703  0.00144710  0.0654279 0.0000
  4   -722.9016827350  -0.029485053244 0.06818930  0.00069556  0.0137863 0.0000
  5   -722.9040363911  -0.002353656132 0.05598141  0.00046785  0.0034556 0.0000
                      *** Initiating the SOSCF procedure ***
                           *** Shutting down DIIS ***
                      *** Re-Reading the Fockian *** 
                      *** Removing any level shift *** 
ITER      Energy       Delta-E        Grad      Rot      Max-DP    RMS-DP
  6   -722.90412216  -0.0000857676  0.000277  0.000277  0.028618  0.000235
               *** Restarting incremental Fock matrix formation ***
  7   -722.90411096   0.0000112012  0.000135  0.000493  0.025830  0.000207
  8   -722.90411114  -0.0000001832  0.000165  0.000284  0.007152  0.000061
  9   -722.90411357  -0.0000024288  0.000040  0.000123  0.005577  0.000047
 10   -722.90411351   0.0000000577  0.000039  0.000035  0.002652  0.000015
 11   -722.90411375  -0.0000002408  0.000013  0.000039  0.001795  0.000016
 12   -722.90411376  -0.0000000068  0.000018  0.000016  0.004074  0.000021
 13   -722.90411377  -0.0000000084  0.000003  0.000007  0.007440  0.000041
 14   -722.90411376   0.0000000122  0.000005  0.000005  0.000744  0.000006
                  ***Gradient check signals convergence***
              ***Rediagonalizing the Fockian in SOSCF/NRSCF***

               *****************************************************
               *                     SUCCESS                       *
               *           SCF CONVERGED AFTER  15 CYCLES          *
               *****************************************************

Old exchange energy                            =    -18.479663485 Eh
New exchange energy                            =    -18.479663006 Eh
Exchange energy change after final integration =      0.000000479 Eh
Total energy after final integration           =   -722.904113288 Eh
Final COS-X integration done in                =    13.247 sec

----------------
TOTAL SCF ENERGY
----------------

Total Energy       :         -722.90411329 Eh          -19671.22099 eV

Components:
Nuclear Repulsion  :          939.82691004 Eh           25573.99038 eV
Electronic Energy  :        -1662.73102332 Eh          -45245.21137 eV
One Electron Energy:        -2867.43518606 Eh          -78026.87822 eV
Two Electron Energy:         1204.70416274 Eh           32781.66686 eV
Max COSX asymmetry :            0.00000519 Eh               0.00014 eV
CPCM Dielectric    :           -0.11790481 Eh              -3.20835 eV

Virial components:
Potential Energy   :        -1441.22685612 Eh          -39217.77655 eV
Kinetic Energy     :          718.32274283 Eh           19546.55556 eV
Virial Ratio       :            2.00637787


DFT components:
N(Alpha)           :       54.000121776759 electrons
N(Beta)            :       54.000121776759 electrons
N(Total)           :      108.000243553518 electrons
E(X)               :      -73.493243689834 Eh       
E(C)               :       -4.361697149049 Eh       
E(XC)              :      -77.854940838883 Eh       
DFET-embed. en.    :        0.000000000000 Eh       
CPCM Solvation Model Properties:
Surface-charge          :            0.96193732
Charge-correction       :           -0.00494248 Eh              -0.13449 eV
Free-energy (cav+disp)  :  This term is not implemented in the current solvation scheme

---------------
SCF CONVERGENCE
---------------

  Last Energy change         ...   -1.0774e-08  Tolerance :   1.0000e-08
  Last MAX-Density change    ...    4.4409e-15  Tolerance :   1.0000e-07
  Last RMS-Density change    ...    4.7065e-17  Tolerance :   5.0000e-09
  Last Orbital Gradient      ...    3.7298e-07  Tolerance :   1.0000e-05
  Last Orbital Rotation      ...    9.3516e-07  Tolerance :   1.0000e-05

             **** THE GBW FILE WAS UPDATED (Nd_water.gbw) ****
             **** DENSITY Nd_water.scfp WAS UPDATED ****
             **** ENERGY FILE WAS UPDATED (Nd_water.en.tmp) ****
             **** THE GBW FILE WAS UPDATED (Nd_water.gbw) ****
             **** DENSITY Nd_water.scfp WAS UPDATED ****
----------------
ORBITAL ENERGIES
----------------

  NO   OCC          E(Eh)            E(eV) 
   0   2.0000     -19.126611      -520.4616 
   1   2.0000     -19.123995      -520.3904 
   2   2.0000     -19.097047      -519.6571 
   3   2.0000     -19.096441      -519.6406 
   4   2.0000     -14.363614      -390.8538 
   5   2.0000     -14.359142      -390.7321 
   6   2.0000     -10.290352      -280.0147 
   7   2.0000     -10.287732      -279.9434 
   8   2.0000     -10.273630      -279.5597 
   9   2.0000     -10.212500      -277.8963 
  10   2.0000     -10.204769      -277.6859 
  11   2.0000     -10.204640      -277.6824 
  12   2.0000     -10.198457      -277.5141 
  13   2.0000     -10.172636      -276.8115 
  14   2.0000      -1.048065       -28.5193 
  15   2.0000      -1.039803       -28.2945 
  16   2.0000      -1.021095       -27.7854 
  17   2.0000      -0.943096       -25.6629 
  18   2.0000      -0.934220       -25.4214 
  19   2.0000      -0.932857       -25.3843 
  20   2.0000      -0.762690       -20.7539 
  21   2.0000      -0.726591       -19.7716 
  22   2.0000      -0.715979       -19.4828 
  23   2.0000      -0.701475       -19.0881 
  24   2.0000      -0.665622       -18.1125 
  25   2.0000      -0.563434       -15.3318 
  26   2.0000      -0.540165       -14.6986 
  27   2.0000      -0.515544       -14.0287 
  28   2.0000      -0.496780       -13.5181 
  29   2.0000      -0.495556       -13.4848 
  30   2.0000      -0.477995       -13.0069 
  31   2.0000      -0.471302       -12.8248 
  32   2.0000      -0.462490       -12.5850 
  33   2.0000      -0.445938       -12.1346 
  34   2.0000      -0.428214       -11.6523 
  35   2.0000      -0.420377       -11.4390 
  36   2.0000      -0.416713       -11.3393 
  37   2.0000      -0.411218       -11.1898 
  38   2.0000      -0.408318       -11.1109 
  39   2.0000      -0.399108       -10.8603 
  40   2.0000      -0.397028       -10.8037 
  41   2.0000      -0.388093       -10.5605 
  42   2.0000      -0.385765       -10.4972 
  43   2.0000      -0.376338       -10.2407 
  44   2.0000      -0.363088        -9.8801 
  45   2.0000      -0.356790        -9.7088 
  46   2.0000      -0.350990        -9.5509 
  47   2.0000      -0.276098        -7.5130 
  48   2.0000      -0.267657        -7.2833 
  49   2.0000      -0.263192        -7.1618 
  50   2.0000      -0.255640        -6.9563 
  51   2.0000      -0.245116        -6.6699 
  52   2.0000      -0.240833        -6.5534 
  53   2.0000      -0.225729        -6.1424 
  54   0.0000       0.002262         0.0616 
  55   0.0000       0.010100         0.2748 
  56   0.0000       0.018522         0.5040 
  57   0.0000       0.022849         0.6218 
  58   0.0000       0.028844         0.7849 
  59   0.0000       0.030059         0.8180 
  60   0.0000       0.038732         1.0540 
  61   0.0000       0.046277         1.2593 
  62   0.0000       0.048647         1.3237 
  63   0.0000       0.051952         1.4137 
  64   0.0000       0.058458         1.5907 
  65   0.0000       0.066128         1.7994 
  66   0.0000       0.068018         1.8509 
  67   0.0000       0.072464         1.9718 
  68   0.0000       0.078747         2.1428 
  69   0.0000       0.080238         2.1834 
  70   0.0000       0.087822         2.3897 
  71   0.0000       0.096138         2.6161 
  72   0.0000       0.103135         2.8064 
  73   0.0000       0.106158         2.8887 
  74   0.0000       0.110577         3.0090 
  75   0.0000       0.113245         3.0816 
  76   0.0000       0.118176         3.2157 
  77   0.0000       0.120312         3.2739 
  78   0.0000       0.124493         3.3876 
  79   0.0000       0.130564         3.5528 
  80   0.0000       0.144206         3.9240 
  81   0.0000       0.154680         4.2091 
  82   0.0000       0.155619         4.2346 
  83   0.0000       0.161060         4.3827 
  84   0.0000       0.162792         4.4298 
  85   0.0000       0.177240         4.8230 
  86   0.0000       0.182435         4.9643 
  87   0.0000       0.194231         5.2853 
  88   0.0000       0.197104         5.3635 
  89   0.0000       0.202836         5.5194 
  90   0.0000       0.210125         5.7178 
  91   0.0000       0.214178         5.8281 
  92   0.0000       0.221565         6.0291 
  93   0.0000       0.223395         6.0789 
  94   0.0000       0.229046         6.2327 
  95   0.0000       0.231948         6.3116 
  96   0.0000       0.233970         6.3666 
  97   0.0000       0.242162         6.5896 
  98   0.0000       0.244150         6.6437 
  99   0.0000       0.251809         6.8521 
 100   0.0000       0.257346         7.0027 
 101   0.0000       0.262843         7.1523 
 102   0.0000       0.265590         7.2271 
 103   0.0000       0.274947         7.4817 
 104   0.0000       0.277811         7.5596 
 105   0.0000       0.280874         7.6430 
 106   0.0000       0.286398         7.7933 
 107   0.0000       0.293005         7.9731 
 108   0.0000       0.298713         8.1284 
 109   0.0000       0.301792         8.2122 
 110   0.0000       0.304585         8.2882 
 111   0.0000       0.308805         8.4030 
 112   0.0000       0.314192         8.5496 
 113   0.0000       0.319004         8.6805 
 114   0.0000       0.322588         8.7781 
 115   0.0000       0.329105         8.9554 
 116   0.0000       0.333203         9.0669 
 117   0.0000       0.334540         9.1033 
 118   0.0000       0.344382         9.3711 
 119   0.0000       0.353138         9.6094 
 120   0.0000       0.355644         9.6776 
 121   0.0000       0.360510         9.8100 
 122   0.0000       0.367003         9.9867 
 123   0.0000       0.381234        10.3739 
 124   0.0000       0.385033        10.4773 
 125   0.0000       0.390315        10.6210 
 126   0.0000       0.400095        10.8871 
 127   0.0000       0.415874        11.3165 
 128   0.0000       0.417651        11.3649 
 129   0.0000       0.422676        11.5016 
 130   0.0000       0.428571        11.6620 
 131   0.0000       0.449292        12.2259 
 132   0.0000       0.453815        12.3489 
 133   0.0000       0.459176        12.4948 
 134   0.0000       0.469980        12.7888 
 135   0.0000       0.484968        13.1967 
 136   0.0000       0.512986        13.9590 
 137   0.0000       0.518899        14.1200 
 138   0.0000       0.574120        15.6226 
 139   0.0000       0.668989        18.2041 
 140   0.0000       0.673781        18.3345 
 141   0.0000       0.676494        18.4083 
 142   0.0000       0.688405        18.7324 
 143   0.0000       0.688799        18.7432 
 144   0.0000       0.704431        19.1686 
 145   0.0000       0.710152        19.3242 
 146   0.0000       0.738075        20.0841 
 147   0.0000       0.749037        20.3823 
 148   0.0000       0.758181        20.6311 
 149   0.0000       0.770980        20.9794 
 150   0.0000       0.783512        21.3204 
 151   0.0000       0.794717        21.6253 
 152   0.0000       0.800796        21.7908 
 153   0.0000       0.808559        22.0020 
 154   0.0000       0.831563        22.6280 
 155   0.0000       0.845289        23.0015 
 156   0.0000       0.848749        23.0956 
 157   0.0000       0.895019        24.3547 
 158   0.0000       0.896644        24.3989 
 159   0.0000       0.914147        24.8752 
 160   0.0000       0.916418        24.9370 
 161   0.0000       0.936342        25.4792 
 162   0.0000       0.948969        25.8228 
 163   0.0000       0.966327        26.2951 
 164   0.0000       0.975279        26.5387 
 165   0.0000       1.000251        27.2182 
 166   0.0000       1.002426        27.2774 
 167   0.0000       1.019238        27.7349 
 168   0.0000       1.025473        27.9045 
 169   0.0000       1.033557        28.1245 
 170   0.0000       1.041980        28.3537 
 171   0.0000       1.054708        28.7001 
 172   0.0000       1.086599        29.5679 
 173   0.0000       1.099068        29.9072 
 174   0.0000       1.113585        30.3022 
 175   0.0000       1.120509        30.4906 
 176   0.0000       1.129400        30.7325 
 177   0.0000       1.154019        31.4024 
 178   0.0000       1.154942        31.4276 
 179   0.0000       1.164266        31.6813 
 180   0.0000       1.190578        32.3973 
 181   0.0000       1.199316        32.6350 
 182   0.0000       1.223212        33.2853 
 183   0.0000       1.238434        33.6995 
 184   0.0000       1.276416        34.7330 
 185   0.0000       1.280527        34.8449 
 186   0.0000       1.293046        35.1856 
 187   0.0000       1.296699        35.2850 
 188   0.0000       1.323211        36.0064 
 189   0.0000       1.337934        36.4070 
 190   0.0000       1.345876        36.6231 
 191   0.0000       1.350847        36.7584 
 192   0.0000       1.365617        37.1603 
 193   0.0000       1.375746        37.4360 
 194   0.0000       1.380437        37.5636 
 195   0.0000       1.402905        38.1750 
 196   0.0000       1.410528        38.3824 
 197   0.0000       1.414411        38.4881 
 198   0.0000       1.423214        38.7276 
 199   0.0000       1.439684        39.1758 
 200   0.0000       1.459827        39.7239 
 201   0.0000       1.470703        40.0199 
 202   0.0000       1.498220        40.7686 
 203   0.0000       1.511994        41.1434 
 204   0.0000       1.529855        41.6295 
 205   0.0000       1.560441        42.4618 
 206   0.0000       1.580873        43.0178 
 207   0.0000       1.608909        43.7806 
 208   0.0000       1.642902        44.7056 
 209   0.0000       1.661594        45.2143 
 210   0.0000       1.705263        46.4026 
 211   0.0000       1.728233        47.0276 
 212   0.0000       1.766415        48.0666 
 213   0.0000       1.777664        48.3727 
 214   0.0000       1.789782        48.7025 
 215   0.0000       1.802931        49.0603 
 216   0.0000       1.818447        49.4825 
 217   0.0000       1.831500        49.8376 
 218   0.0000       1.835176        49.9377 
 219   0.0000       1.852599        50.4118 
 220   0.0000       1.860260        50.6202 
 221   0.0000       1.871176        50.9173 
 222   0.0000       1.877704        51.0949 
 223   0.0000       1.896440        51.6047 
 224   0.0000       1.907430        51.9038 
 225   0.0000       1.916455        52.1494 
 226   0.0000       1.962917        53.4137 
 227   0.0000       1.974337        53.7244 
 228   0.0000       1.977331        53.8059 
 229   0.0000       1.990948        54.1765 
 230   0.0000       2.004513        54.5456 
 231   0.0000       2.014570        54.8192 
 232   0.0000       2.029859        55.2353 
 233   0.0000       2.041115        55.5416 
 234   0.0000       2.064463        56.1769 
 235   0.0000       2.073581        56.4250 
 236   0.0000       2.081330        56.6359 
 237   0.0000       2.088969        56.8437 
 238   0.0000       2.101990        57.1980 
 239   0.0000       2.120114        57.6912 
 240   0.0000       2.155660        58.6585 
 241   0.0000       2.178800        59.2882 
 242   0.0000       2.199636        59.8551 
 243   0.0000       2.208899        60.1072 
 244   0.0000       2.222995        60.4908 
 245   0.0000       2.255796        61.3833 
 246   0.0000       2.273854        61.8747 
 247   0.0000       2.285862        62.2015 
 248   0.0000       2.302391        62.6512 
 249   0.0000       2.328539        63.3628 
 250   0.0000       2.345798        63.8324 
 251   0.0000       2.379788        64.7573 
 252   0.0000       2.417294        65.7779 
 253   0.0000       2.441563        66.4383 
 254   0.0000       2.465075        67.0781 
 255   0.0000       2.478282        67.4375 
 256   0.0000       2.505682        68.1831 
 257   0.0000       2.525487        68.7220 
 258   0.0000       2.573707        70.0341 
 259   0.0000       2.615473        71.1706 
 260   0.0000       2.625385        71.4404 
 261   0.0000       2.641730        71.8851 
 262   0.0000       2.656849        72.2965 
 263   0.0000       2.695060        73.3363 
 264   0.0000       2.696928        73.3872 
 265   0.0000       2.740756        74.5798 
 266   0.0000       2.782884        75.7261 
 267   0.0000       2.828692        76.9726 
 268   0.0000       2.887588        78.5753 
 269   0.0000       2.960699        80.5647 
 270   0.0000       3.004412        81.7542 
 271   0.0000       3.035060        82.5882 
 272   0.0000       3.077017        83.7299 
 273   0.0000       3.124481        85.0215 
 274   0.0000       3.135423        85.3192 
 275   0.0000       3.198036        87.0230 
 276   0.0000       3.232605        87.9637 
 277   0.0000       3.240975        88.1914 

                    ********************************
                    * MULLIKEN POPULATION ANALYSIS *
                    ********************************

-----------------------
MULLIKEN ATOMIC CHARGES
-----------------------
   0 C :   -0.942337
   1 H :    0.255505
   2 H :    0.232454
   3 H :    0.253043
   4 C :    0.921039
   5 O :   -0.609329
   6 N :    0.172347
   7 C :   -1.437021
   8 H :    0.276649
   9 H :    0.269751
  10 C :   -0.752652
  11 H :    0.244171
  12 C :    1.014671
  13 N :   -0.184138
  14 O :   -0.607875
  15 C :   -0.560240
  16 H :    0.220969
  17 H :    0.225516
  18 H :    0.234521
  19 C :   -0.536668
  20 H :    0.223404
  21 H :    0.233133
  22 H :    0.232360
  23 C :    0.726580
  24 O :   -0.670453
  25 H :    0.246171
  26 O :   -0.681569
Sum of atomic charges:   -1.0000000

--------------------------------
MULLIKEN REDUCED ORBITAL CHARGES
--------------------------------
  0 C s       :     3.705826  s :     3.705826
      pz      :     1.128972  p :     3.205087
      px      :     1.002934
      py      :     1.073181
      dz2     :     0.008334  d :     0.031424
      dxz     :     0.002684
      dyz     :     0.006861
      dx2y2   :     0.004931
      dxy     :     0.008614
  1 H s       :     0.744495  s :     0.744495
  2 H s       :     0.767546  s :     0.767546
  3 H s       :     0.746957  s :     0.746957
  4 C s       :     2.786791  s :     2.786791
      pz      :     0.734610  p :     2.179180
      px      :     0.709777
      py      :     0.734793
      dz2     :     0.023640  d :     0.112989
      dxz     :     0.020024
      dyz     :     0.025130
      dx2y2   :     0.025038
      dxy     :     0.019157
  5 O s       :     3.946718  s :     3.946718
      pz      :     1.391437  p :     4.638571
      px      :     1.574389
      py      :     1.672745
      dz2     :     0.007780  d :     0.024041
      dxz     :     0.005014
      dyz     :     0.004566
      dx2y2   :     0.002827
      dxy     :     0.003854
  6 N s       :     3.052290  s :     3.052290
      pz      :     1.274831  p :     3.737368
      px      :     1.273233
      py      :     1.189304
      dz2     :     0.005946  d :     0.037995
      dxz     :     0.007120
      dyz     :     0.009156
      dx2y2   :     0.007460
      dxy     :     0.008313
  7 C s       :     4.268381  s :     4.268381
      pz      :     1.033753  p :     3.115959
      px      :     0.934751
      py      :     1.147455
      dz2     :     0.008439  d :     0.052681
      dxz     :     0.011212
      dyz     :     0.009355
      dx2y2   :     0.011451
      dxy     :     0.012224
  8 H s       :     0.723351  s :     0.723351
  9 H s       :     0.730249  s :     0.730249
 10 C s       :     3.645698  s :     3.645698
      pz      :     0.997861  p :     3.055822
      px      :     1.006069
      py      :     1.051892
      dz2     :     0.006498  d :     0.051132
      dxz     :     0.013319
      dyz     :     0.013220
      dx2y2   :     0.003903
      dxy     :     0.014192
 11 H s       :     0.755829  s :     0.755829
 12 C s       :     2.756497  s :     2.756497
      pz      :     0.717847  p :     2.120778
      px      :     0.663736
      py      :     0.739195
      dz2     :     0.024187  d :     0.108054
      dxz     :     0.033799
      dyz     :     0.020095
      dx2y2   :     0.015675
      dxy     :     0.014297
 13 N s       :     3.368975  s :     3.368975
      pz      :     1.228535  p :     3.777518
      px      :     1.197653
      py      :     1.351330
      dz2     :     0.006398  d :     0.037646
      dxz     :     0.009896
      dyz     :     0.007422
      dx2y2   :     0.006718
      dxy     :     0.007211
 14 O s       :     3.947425  s :     3.947425
      pz      :     1.329616  p :     4.636784
      px      :     1.763134
      py      :     1.544033
      dz2     :     0.008446  d :     0.023667
      dxz     :     0.005061
      dyz     :     0.006693
      dx2y2   :     0.001729
      dxy     :     0.001739
 15 C s       :     3.450949  s :     3.450949
      pz      :     1.022614  p :     3.061288
      px      :     0.915471
      py      :     1.123203
      dz2     :     0.002979  d :     0.048004
      dxz     :     0.013900
      dyz     :     0.013650
      dx2y2   :     0.012280
      dxy     :     0.005195
 16 H s       :     0.779031  s :     0.779031
 17 H s       :     0.774484  s :     0.774484
 18 H s       :     0.765479  s :     0.765479
 19 C s       :     3.417486  s :     3.417486
      pz      :     0.923458  p :     3.070934
      px      :     1.140376
      py      :     1.007100
      dz2     :     0.008491  d :     0.048248
      dxz     :     0.010335
      dyz     :     0.012837
      dx2y2   :     0.007223
      dxy     :     0.009362
 20 H s       :     0.776596  s :     0.776596
 21 H s       :     0.766867  s :     0.766867
 22 H s       :     0.767640  s :     0.767640
 23 C s       :     2.882565  s :     2.882565
      pz      :     0.718674  p :     2.254397
      px      :     0.767794
      py      :     0.767929
      dz2     :     0.042415  d :     0.136458
      dxz     :     0.038669
      dyz     :     0.034763
      dx2y2   :     0.009491
      dxy     :     0.011119
 24 O s       :     3.903099  s :     3.903099
      pz      :     1.295469  p :     4.746651
      px      :     1.752279
      py      :     1.698903
      dz2     :     0.007853  d :     0.020704
      dxz     :     0.006058
      dyz     :     0.006503
      dx2y2   :     0.000113
      dxy     :     0.000176
 25 H s       :     0.753829  s :     0.753829
 26 O s       :     3.915933  s :     3.915933
      pz      :     1.603646  p :     4.745087
      px      :     1.560919
      py      :     1.580523
      dz2     :     0.004034  d :     0.020549
      dxz     :     0.005036
      dyz     :     0.004474
      dx2y2   :     0.003996
      dxy     :     0.003010


                     *******************************
                     * LOEWDIN POPULATION ANALYSIS *
                     *******************************

----------------------
LOEWDIN ATOMIC CHARGES
----------------------
   0 C :   -0.470261
   1 H :    0.222619
   2 H :    0.212497
   3 H :    0.225885
   4 C :    0.107412
   5 O :   -0.452584
   6 N :   -0.288039
   7 C :   -0.240051
   8 H :    0.264571
   9 H :    0.256767
  10 C :   -0.253228
  11 H :    0.238873
  12 C :    0.123891
  13 N :   -0.343589
  14 O :   -0.438343
  15 C :   -0.355660
  16 H :    0.206457
  17 H :    0.207503
  18 H :    0.225694
  19 C :   -0.364160
  20 H :    0.210982
  21 H :    0.216888
  22 H :    0.210755
  23 C :    0.131154
  24 O :   -0.537839
  25 H :    0.241390
  26 O :   -0.559583

-------------------------------
LOEWDIN REDUCED ORBITAL CHARGES
-------------------------------
  0 C s       :     2.989922  s :     2.989922
      pz      :     1.166148  p :     3.419110
      px      :     1.099675
      py      :     1.153286
      dz2     :     0.015352  d :     0.061229
      dxz     :     0.005899
      dyz     :     0.012682
      dx2y2   :     0.010060
      dxy     :     0.017235
  1 H s       :     0.777381  s :     0.777381
  2 H s       :     0.787503  s :     0.787503
  3 H s       :     0.774115  s :     0.774115
  4 C s       :     2.797114  s :     2.797114
      pz      :     0.909885  p :     2.834752
      px      :     0.967004
      py      :     0.957862
      dz2     :     0.048909  d :     0.260722
      dxz     :     0.047357
      dyz     :     0.063400
      dx2y2   :     0.058907
      dxy     :     0.042149
  5 O s       :     3.559034  s :     3.559034
      pz      :     1.504268  p :     4.839999
      px      :     1.638659
      py      :     1.697071
      dz2     :     0.012687  d :     0.053551
      dxz     :     0.015351
      dyz     :     0.011746
      dx2y2   :     0.005961
      dxy     :     0.007806
  6 N s       :     3.101100  s :     3.101100
      pz      :     1.408483  p :     4.088189
      px      :     1.380985
      py      :     1.298721
      dz2     :     0.014235  d :     0.098750
      dxz     :     0.016784
      dyz     :     0.024864
      dx2y2   :     0.019532
      dxy     :     0.023334
  7 C s       :     2.891193  s :     2.891193
      pz      :     1.111891  p :     3.237205
      px      :     1.025268
      py      :     1.100046
      dz2     :     0.017127  d :     0.111653
      dxz     :     0.025564
      dyz     :     0.018653
      dx2y2   :     0.024815
      dxy     :     0.025493
  8 H s       :     0.735429  s :     0.735429
  9 H s       :     0.743233  s :     0.743233
 10 C s       :     2.915953  s :     2.915953
      pz      :     1.058768  p :     3.230042
      px      :     1.069447
      py      :     1.101826
      dz2     :     0.014048  d :     0.107233
      dxz     :     0.028189
      dyz     :     0.026927
      dx2y2   :     0.007057
      dxy     :     0.031013
 11 H s       :     0.761127  s :     0.761127
 12 C s       :     2.800344  s :     2.800344
      pz      :     0.979897  p :     2.825743
      px      :     0.987636
      py      :     0.858210
      dz2     :     0.054030  d :     0.250022
      dxz     :     0.080568
      dyz     :     0.048129
      dx2y2   :     0.034430
      dxy     :     0.032865
 13 N s       :     3.129616  s :     3.129616
      pz      :     1.357695  p :     4.117554
      px      :     1.337992
      py      :     1.421867
      dz2     :     0.016251  d :     0.096419
      dxz     :     0.024667
      dyz     :     0.019374
      dx2y2   :     0.016579
      dxy     :     0.019548
 14 O s       :     3.556485  s :     3.556485
      pz      :     1.486670  p :     4.829737
      px      :     1.767916
      py      :     1.575151
      dz2     :     0.018694  d :     0.052121
      dxz     :     0.010511
      dyz     :     0.016544
      dx2y2   :     0.003303
      dxy     :     0.003069
 15 C s       :     2.962309  s :     2.962309
      pz      :     1.107378  p :     3.297965
      px      :     1.032370
      py      :     1.158217
      dz2     :     0.005957  d :     0.095386
      dxz     :     0.028555
      dyz     :     0.026401
      dx2y2   :     0.024388
      dxy     :     0.010084
 16 H s       :     0.793543  s :     0.793543
 17 H s       :     0.792497  s :     0.792497
 18 H s       :     0.774306  s :     0.774306
 19 C s       :     2.961014  s :     2.961014
      pz      :     1.041620  p :     3.307238
      px      :     1.179467
      py      :     1.086151
      dz2     :     0.017867  d :     0.095908
      dxz     :     0.020161
      dyz     :     0.026100
      dx2y2   :     0.013758
      dxy     :     0.018022
 20 H s       :     0.789018  s :     0.789018
 21 H s       :     0.783112  s :     0.783112
 22 H s       :     0.789245  s :     0.789245
 23 C s       :     2.790892  s :     2.790892
      pz      :     1.012623  p :     2.767843
      px      :     0.898924
      py      :     0.856295
      dz2     :     0.101613  d :     0.310112
      dxz     :     0.087656
      dyz     :     0.076026
      dx2y2   :     0.018439
      dxy     :     0.026377
 24 O s       :     3.585448  s :     3.585448
      pz      :     1.479333  p :     4.905680
      px      :     1.738366
      py      :     1.687981
      dz2     :     0.024686  d :     0.046711
      dxz     :     0.010730
      dyz     :     0.010798
      dx2y2   :     0.000135
      dxy     :     0.000362
 25 H s       :     0.758610  s :     0.758610
 26 O s       :     3.602011  s :     3.602011
      pz      :     1.662684  p :     4.910941
      px      :     1.625084
      py      :     1.623173
      dz2     :     0.008608  d :     0.046631
      dxz     :     0.013311
      dyz     :     0.010461
      dx2y2   :     0.005666
      dxy     :     0.008584


                      *****************************
                      * MAYER POPULATION ANALYSIS *
                      *****************************

[...]
     70       0.000517  -0.000006   0.000010   0.000081   0.000236  -0.000491
     71      -0.000539  -0.000001   0.000008   0.000123   0.000036  -0.000363
     72       0.000034  -0.000004   0.000004   0.000019   0.000081  -0.000027
     73      -0.000086   0.000001  -0.000004   0.000111   0.000063  -0.000107
     74       0.000254   0.000003  -0.000003  -0.000033  -0.000052   0.000122
     75      -0.299706   0.000945  -0.001916  -0.026969  -0.078012   0.206655
     76      -0.454179   0.001420  -0.002908  -0.040619  -0.112304   0.302176
     77       0.302142  -0.000934   0.001865   0.027971   0.081781  -0.218450
     78       0.000199  -0.000006   0.000011  -0.000002  -0.000067   0.000140
     79      -0.000182   0.000003  -0.000006  -0.000037  -0.000052   0.000113
     80       0.000266  -0.000001   0.000004  -0.000006  -0.000055   0.000133
                 78         79         80    
      0      -0.026297   0.000003  -0.000002
      1       0.075152   0.000039   0.000010
      2      -0.046806  -0.000007  -0.000011
      3      -0.034296   0.000028  -0.000017
      4       0.044091   0.000009   0.000010
      5       0.174141  -0.000035   0.000072
      6       0.013339  -0.000039  -0.000002
      7      -0.782504  -0.000581  -0.000143
      8       0.439207   0.000299   0.000074
      9       0.345045  -0.000206   0.000048
     10      -0.156076   0.000047  -0.000018
     11      -0.047511   0.000002  -0.000003
     12      -0.001341  -0.000026  -0.000013
     13       0.000792   0.000038   0.000004
     14      -0.001396  -0.000054  -0.000011
     15       0.000320   0.000014   0.000006
     16      -0.000444  -0.000036  -0.000000
     17       0.000517   0.000015   0.000005
     18      -0.000148   0.000073  -0.000013
     19      -0.000226  -0.000124  -0.000009
     20      -0.000075  -0.000076  -0.000006
     21      -0.000270  -0.000547  -0.000154
     22       0.000438   0.001281   0.000227
     23      -0.000918   0.003192  -0.000461
     24       0.002018  -0.010794   0.001325
     25      -0.002788   0.010492  -0.001125
     26       0.010782  -0.044826   0.004293
     27       0.001487   0.010687   0.000232
     28      -0.003144  -0.031034  -0.000979
     29       0.000094   0.000718   0.000053
     30      -0.002821   0.000116   0.000012
     31      -0.006243   0.000225   0.000020
     32      -0.002930   0.000035   0.000008
     33       0.020238  -0.000555  -0.000075
     34       0.052088  -0.001387  -0.000176
     35       0.051599  -0.001376  -0.000168
     36       0.000002  -0.000505  -0.000174
     37       0.000031   0.000431   0.000398
     38       0.000018   0.000294   0.001050
     39       0.000015  -0.000118   0.000082
     40      -0.000003  -0.000239   0.000188
     41      -0.000011  -0.000297   0.000213
     42       0.000006   0.000145   0.000644
     43       0.000003  -0.000016  -0.000037
     44      -0.000005   0.000009  -0.000391
     45      -0.000017   0.000082   0.011289
     46      -0.000013   0.002227   0.070410
     47      -0.000008   0.000647   0.057126
     48       0.000225   0.003062  -0.239127
     49       0.000013  -0.000079  -0.000339
     50       0.000159   0.001100  -0.206297
     51       0.000012  -0.000184   0.006001
     52       0.000121  -0.007520  -0.098570
     53      -0.000092   0.004820   0.082655
     54      -0.000017   0.003152   0.088828
     55       0.000084  -0.021780  -0.745130
     56       0.000063  -0.015837  -0.558012
     57      -0.000017  -0.073425   0.002696
     58      -0.000017  -0.035137   0.000355
     59      -0.000004   0.041063  -0.000645
     60       0.000202   0.295485  -0.017173
     61       0.000023   0.022385  -0.002109
     62       0.000116   0.165578  -0.010792
     63       0.000016   0.634696  -0.013954
     64       0.000003   0.300983  -0.006506
     65      -0.000024  -0.603124   0.012222
     66      -0.000050  -0.050863   0.000033
     67       0.000155   0.103890   0.002230
     68      -0.000055  -0.041532  -0.000833
     69       0.000088   0.000016   0.000002
     70      -0.000135  -0.000005  -0.000000
     71      -0.000028   0.000008   0.000001
     72      -0.000040  -0.000011  -0.000000
     73       0.000067  -0.000000  -0.000000
     74       0.000034  -0.000006   0.000001
     75       0.015350  -0.000963  -0.000091
     76       0.022287  -0.001370  -0.000104
     77      -0.015435   0.000923   0.000097
     78      -0.000049  -0.000005  -0.000001
     79       0.000039   0.000001   0.000000
     80      -0.000004  -0.000007   0.000001


-----------
IR SPECTRUM
-----------

 Mode   freq       eps      Int      T**2         TX        TY        TZ
       cm**-1   L/(mol*cm) km/mol    a.u.
----------------------------------------------------------------------------
  6:     28.30   0.000216    1.09  0.002386  ( 0.048594  0.000377 -0.004960)
  7:     44.83   0.002490   12.59  0.017336  ( 0.099844  0.019935  0.083485)
  8:     51.25   0.006021   30.43  0.036662  (-0.061124 -0.173310  0.053756)
  9:     59.96   0.001845    9.33  0.009605  ( 0.084933  0.040017  0.028110)
 10:     61.62   0.000929    4.69  0.004704  (-0.031816 -0.046898  0.038626)
 11:     75.55   0.000508    2.57  0.002098  ( 0.045227 -0.007105 -0.001367)
 12:     80.90   0.000307    1.55  0.001183  ( 0.025830 -0.011671  0.019492)
 13:    105.22   0.003282   16.59  0.009735  ( 0.032758 -0.028475 -0.088604)
 14:    129.92   0.000576    2.91  0.001384  ( 0.029031 -0.009298  0.021316)
 15:    177.68   0.000086    0.43  0.000151  ( 0.000615 -0.006668  0.010285)
 16:    196.95   0.001640    8.29  0.002599  ( 0.031465 -0.037453  0.014364)
 17:    225.27   0.001939    9.80  0.002686  ( 0.030424 -0.008557  0.041069)
 18:    249.09   0.000463    2.34  0.000580  (-0.000373 -0.020085 -0.013288)
 19:    316.03   0.002517   12.72  0.002485  (-0.000175  0.046360 -0.018323)
 20:    362.31   0.002090   10.56  0.001800  ( 0.041412  0.009220  0.000127)
 21:    394.84   0.001871    9.46  0.001479  ( 0.037920  0.005815 -0.002680)
 22:    414.61   0.001392    7.03  0.001048  (-0.004589  0.031602  0.005294)
 23:    435.89   0.003391   17.14  0.002428  ( 0.028531  0.035752 -0.018312)
 24:    457.98   0.000785    3.97  0.000535  (-0.019750  0.009244  0.007699)
 25:    522.77   0.006791   34.32  0.004054  (-0.040694 -0.046196 -0.016237)
 26:    562.84   0.002809   14.20  0.001558  ( 0.031784 -0.006763  0.022396)
 27:    585.94   0.000801    4.05  0.000427  (-0.012847  0.001491 -0.016106)
 28:    596.21   0.000730    3.69  0.000382  ( 0.006227 -0.016618 -0.008211)
 29:    619.33   0.004290   21.68  0.002162  (-0.040883  0.013515  0.017542)
 30:    646.25   0.007106   35.91  0.003431  ( 0.040456 -0.041622 -0.007883)
 31:    703.56   0.007619   38.51  0.003380  (-0.031675 -0.000250  0.048747)
 32:    810.14   0.002754   13.92  0.001061  (-0.000800  0.003421  0.032378)
 33:    824.80   0.005124   25.89  0.001939  ( 0.019559 -0.033166 -0.021354)
 34:    892.91   0.006163   31.14  0.002154  (-0.038016  0.024866 -0.009502)
 35:    958.39   0.000151    0.76  0.000049  (-0.001215 -0.006904 -0.000123)
 36:    975.01   0.003474   17.55  0.001112  ( 0.019923 -0.007817  0.025568)
 37:    995.80   0.011539   58.32  0.003616  (-0.025449 -0.054325 -0.004165)
 38:   1016.43   0.010772   54.44  0.003307  ( 0.018475 -0.044892  0.030831)
 39:   1059.39   0.002572   13.00  0.000758  (-0.019494  0.007999  0.017708)
 40:   1082.76   0.004104   20.74  0.001183  (-0.011485  0.018917  0.026327)
 41:   1114.66   0.001090    5.51  0.000305  (-0.011647 -0.012784 -0.002444)
 42:   1125.50   0.000856    4.32  0.000237  ( 0.007618 -0.006294 -0.011815)
 43:   1163.04   0.036401  183.96  0.009767  (-0.076370 -0.054092 -0.031761)
 44:   1179.03   0.005650   28.55  0.001495  (-0.032568 -0.020606  0.003181)
 45:   1226.46   0.003856   19.48  0.000981  ( 0.028052  0.002139  0.013767)
 46:   1276.23   0.021496  108.63  0.005256  (-0.018876 -0.067079  0.020009)
 47:   1282.95   0.012542   63.38  0.003051  ( 0.047232 -0.028564  0.002004)
 48:   1331.98   0.023118  116.83  0.005416  (-0.036836  0.055525 -0.031247)
 49:   1360.24   0.019109   96.57  0.004384  ( 0.062927  0.009212  0.018422)
 50:   1382.29   0.015801   79.85  0.003567  (-0.021798 -0.054683 -0.010093)
 51:   1392.22   0.063323  320.01  0.014194  ( 0.095976 -0.061021 -0.035479)
 52:   1405.75   0.002491   12.59  0.000553  ( 0.014275  0.010693  0.015327)
 53:   1438.42   0.022576  114.09  0.004898  (-0.055935 -0.041990 -0.002442)
 54:   1450.04   0.005592   28.26  0.001203  (-0.019846 -0.003720  0.028209)
 55:   1467.20   0.021795  110.14  0.004636  ( 0.021750 -0.027741  0.058250)
 56:   1473.07   0.006904   34.89  0.001462  (-0.015015 -0.034843 -0.004792)
 57:   1481.90   0.016316   82.45  0.003436  ( 0.004487 -0.054637 -0.020748)
 58:   1485.17   0.006970   35.22  0.001464  (-0.001993 -0.038107  0.002890)
 59:   1493.66   0.004507   22.78  0.000942  (-0.013842 -0.012829  0.024197)
 60:   1498.31   0.002434   12.30  0.000507  (-0.008578  0.008216 -0.019129)
 61:   1501.61   0.003780   19.10  0.000786  (-0.026816  0.001146  0.008071)
 62:   1513.65   0.010572   53.42  0.002179  (-0.028495 -0.033271 -0.016142)
 63:   1518.38   0.017434   88.10  0.003583  (-0.021581 -0.055349  0.007333)
 64:   1542.06   0.022458  113.49  0.004545  ( 0.060146  0.030394 -0.001836)
 65:   1607.81   0.224148  1132.75  0.043505  ( 0.053554 -0.051677  0.194851)
 66:   1647.14   0.178923  904.20  0.033898  (-0.090812  0.081671 -0.137773)
 67:   1672.40   0.138581  700.33  0.025859  (-0.018965 -0.132637 -0.088919)
 68:   3035.21   0.009710   49.07  0.000998  ( 0.023323  0.002741 -0.021139)
 69:   3040.14   0.018840   95.21  0.001934  (-0.010347 -0.042663 -0.002592)
 70:   3058.14   0.000924    4.67  0.000094  ( 0.005778  0.005592  0.005443)
 71:   3083.38   0.004924   24.88  0.000498  ( 0.008647  0.005390  0.019863)
 72:   3091.40   0.006527   32.99  0.000659  ( 0.003144  0.022048 -0.012763)
 73:   3109.48   0.007337   37.08  0.000736  (-0.019979  0.009240 -0.015867)
 74:   3117.75   0.006346   32.07  0.000635  ( 0.015805 -0.004315  0.019151)
 75:   3121.78   0.001734    8.76  0.000173  (-0.010166  0.001510  0.008227)
 76:   3138.68   0.001832    9.26  0.000182  ( 0.009070  0.006354  0.007713)
 77:   3140.61   0.001558    7.87  0.000155  (-0.006498 -0.009436 -0.004854)
 78:   3161.41   0.003225   16.30  0.000318  (-0.003821  0.015234 -0.008463)
 79:   3175.80   0.003025   15.28  0.000297  (-0.013378 -0.005941  0.009107)
 80:   3180.74   0.001297    6.56  0.000127  (-0.002330  0.008505  0.007037)

* The epsilon (eps) is given for a Dirac delta lineshape.
** The dipole moment derivative (T) already includes vibrational overlap.

The first frequency considered to be a vibration is 6
The total number of vibrations considered is 75


--------------------------
THERMOCHEMISTRY AT 298.15K
--------------------------

Temperature         ... 298.15 K
Pressure            ... 1.00 atm
Total Mass          ... 201.20 AMU

Throughout the following assumptions are being made:
  (1) The electronic state is orbitally nondegenerate
  (2) There are no thermally accessible electronically excited states
  (3) Hindered rotations indicated by low frequency modes are not
      treated as such but are treated as vibrations and this may
      cause some error
  (4) All equations used are the standard statistical mechanics
      equations for an ideal gas
  (5) All vibrations are strictly harmonic

freq.      28.30  E(vib)   ...       0.55 
freq.      44.83  E(vib)   ...       0.53 
freq.      51.25  E(vib)   ...       0.52 
freq.      59.96  E(vib)   ...       0.51 
freq.      61.62  E(vib)   ...       0.51 
freq.      75.55  E(vib)   ...       0.49 
freq.      80.90  E(vib)   ...       0.48 
freq.     105.22  E(vib)   ...       0.45 
freq.     129.92  E(vib)   ...       0.43 
freq.     177.68  E(vib)   ...       0.37 
freq.     196.95  E(vib)   ...       0.35 
freq.     225.27  E(vib)   ...       0.33 
freq.     249.09  E(vib)   ...       0.31 
freq.     316.03  E(vib)   ...       0.25 
freq.     362.31  E(vib)   ...       0.22 
freq.     394.84  E(vib)   ...       0.20 
freq.     414.61  E(vib)   ...       0.19 
freq.     435.89  E(vib)   ...       0.17 
freq.     457.98  E(vib)   ...       0.16 
freq.     522.77  E(vib)   ...       0.13 
freq.     562.84  E(vib)   ...       0.11 
freq.     585.94  E(vib)   ...       0.11 
freq.     596.21  E(vib)   ...       0.10 
freq.     619.33  E(vib)   ...       0.09 
freq.     646.25  E(vib)   ...       0.09 
freq.     703.56  E(vib)   ...       0.07 
freq.     810.14  E(vib)   ...       0.05 
freq.     824.80  E(vib)   ...       0.04 
freq.     892.91  E(vib)   ...       0.03 
freq.     958.39  E(vib)   ...       0.03 
freq.     975.01  E(vib)   ...       0.03 
freq.     995.80  E(vib)   ...       0.02 
freq.    1016.43  E(vib)   ...       0.02 
freq.    1059.39  E(vib)   ...       0.02 
freq.    1082.76  E(vib)   ...       0.02 
freq.    1114.66  E(vib)   ...       0.01 
freq.    1125.50  E(vib)   ...       0.01 
freq.    1163.04  E(vib)   ...       0.01 
freq.    1179.03  E(vib)   ...       0.01 
freq.    1226.46  E(vib)   ...       0.01 
freq.    1276.23  E(vib)   ...       0.01 
freq.    1282.95  E(vib)   ...       0.01 
freq.    1331.98  E(vib)   ...       0.01 
freq.    1360.24  E(vib)   ...       0.01 
freq.    1382.29  E(vib)   ...       0.01 
freq.    1392.22  E(vib)   ...       0.00 
freq.    1405.75  E(vib)   ...       0.00 
freq.    1438.42  E(vib)   ...       0.00 
freq.    1450.04  E(vib)   ...       0.00 
freq.    1467.20  E(vib)   ...       0.00 
freq.    1473.07  E(vib)   ...       0.00 
freq.    1481.90  E(vib)   ...       0.00 
freq.    1485.17  E(vib)   ...       0.00 
freq.    1493.66  E(vib)   ...       0.00 
freq.    1498.31  E(vib)   ...       0.00 
freq.    1501.61  E(vib)   ...       0.00 
freq.    1513.65  E(vib)   ...       0.00 
freq.    1518.38  E(vib)   ...       0.00 
freq.    1542.06  E(vib)   ...       0.00 
freq.    1607.81  E(vib)   ...       0.00 
freq.    1647.14  E(vib)   ...       0.00 
freq.    1672.40  E(vib)   ...       0.00 
freq.    3035.21  E(vib)   ...       0.00 
freq.    3040.14  E(vib)   ...       0.00 
freq.    3058.14  E(vib)   ...       0.00 
freq.    3083.38  E(vib)   ...       0.00 
freq.    3091.40  E(vib)   ...       0.00 
freq.    3109.48  E(vib)   ...       0.00 
freq.    3117.75  E(vib)   ...       0.00 
freq.    3121.78  E(vib)   ...       0.00 
freq.    3138.68  E(vib)   ...       0.00 
freq.    3140.61  E(vib)   ...       0.00 
freq.    3161.41  E(vib)   ...       0.00 
freq.    3175.80  E(vib)   ...       0.00 
freq.    3180.74  E(vib)   ...       0.00 

------------
INNER ENERGY
------------

The inner energy is: U= E(el) + E(ZPE) + E(vib) + E(rot) + E(trans)
    E(el)   - is the total energy from the electronic structure calculation
              = E(kin-el) + E(nuc-el) + E(el-el) + E(nuc-nuc)
    E(ZPE)  - the the zero temperature vibrational energy from the frequency calculation
    E(vib)  - the the finite temperature correction to E(ZPE) due to population
              of excited vibrational states
    E(rot)  - is the rotational thermal energy
    E(trans)- is the translational thermal energy

Summary of contributions to the inner energy U:
Electronic energy                ...   -722.95628580 Eh
Zero point energy                ...      0.21689614 Eh     136.10 kcal/mol
Thermal vibrational correction   ...      0.01297173 Eh       8.14 kcal/mol
Thermal rotational correction    ...      0.00141627 Eh       0.89 kcal/mol
Thermal translational correction ...      0.00141627 Eh       0.89 kcal/mol
-----------------------------------------------------------------------
Total thermal energy                   -722.72358538 Eh


Summary of corrections to the electronic energy:
(perhaps to be used in another calculation)
Total thermal correction                  0.01580428 Eh       9.92 kcal/mol
Non-thermal (ZPE) correction              0.21689614 Eh     136.10 kcal/mol
-----------------------------------------------------------------------
Total correction                          0.23270042 Eh     146.02 kcal/mol


--------
ENTHALPY
--------

The enthalpy is H = U + kB*T
                kB is Boltzmann's constant
Total free energy                 ...   -722.72358538 Eh 
Thermal Enthalpy correction       ...      0.00094421 Eh       0.59 kcal/mol
-----------------------------------------------------------------------
Total Enthalpy                    ...   -722.72264117 Eh


Note: Only C1 symmetry has been detected, increase convergence thresholds 
      if your molecule has a higher symmetry. Symmetry factor of 1.0 is   
      used for the rotational entropy correction. 
 

Note: Rotational entropy computed according to Herzberg 
Infrared and Raman Spectra, Chapter V,1, Van Nostrand Reinhold, 1945 
Point Group:  C1, Symmetry Number:   1  
Rotational constants in cm-1:     0.033641     0.013310     0.011394 

Vibrational entropy computed according to the QRRHO of S. Grimme
Chem.Eur.J. 2012 18 9955


-------
ENTROPY
-------

The entropy contributions are T*S = T*(S(el)+S(vib)+S(rot)+S(trans))
     S(el)   - electronic entropy
     S(vib)  - vibrational entropy
     S(rot)  - rotational entropy
     S(trans)- translational entropy
The entropies will be listed as multiplied by the temperature to get
units of energy

Electronic entropy                ...      0.00000000 Eh      0.00 kcal/mol
Vibrational entropy               ...      0.02372457 Eh     14.89 kcal/mol
Rotational entropy                ...      0.01526368 Eh      9.58 kcal/mol
Translational entropy             ...      0.01986141 Eh     12.46 kcal/mol
-----------------------------------------------------------------------
Final entropy term                ...      0.05884966 Eh     36.93 kcal/mol

In case the symmetry of your molecule has not been determined correctly
or in case you have a reason to use a different symmetry number we print 
out the resulting rotational entropy values for sn=1,12 :
 --------------------------------------------------------
|  sn= 1 | S(rot)=       0.01526368 Eh      9.58 kcal/mol|
|  sn= 2 | S(rot)=       0.01460922 Eh      9.17 kcal/mol|
|  sn= 3 | S(rot)=       0.01422639 Eh      8.93 kcal/mol|
|  sn= 4 | S(rot)=       0.01395476 Eh      8.76 kcal/mol|
|  sn= 5 | S(rot)=       0.01374408 Eh      8.62 kcal/mol|
|  sn= 6 | S(rot)=       0.01357193 Eh      8.52 kcal/mol|
|  sn= 7 | S(rot)=       0.01342639 Eh      8.43 kcal/mol|
|  sn= 8 | S(rot)=       0.01330031 Eh      8.35 kcal/mol|
|  sn= 9 | S(rot)=       0.01318910 Eh      8.28 kcal/mol|
|  sn=10 | S(rot)=       0.01308962 Eh      8.21 kcal/mol|
|  sn=11 | S(rot)=       0.01299963 Eh      8.16 kcal/mol|
|  sn=12 | S(rot)=       0.01291747 Eh      8.11 kcal/mol|
 --------------------------------------------------------


-------------------
GIBBS FREE ENERGY
-------------------

The Gibbs free energy is G = H - T*S

Total enthalpy                    ...   -722.72264117 Eh 
Total entropy correction          ...     -0.05884966 Eh    -36.93 kcal/mol
-----------------------------------------------------------------------
Final Gibbs free energy         ...   -722.78149083 Eh

For completeness - the Gibbs free energy minus the electronic energy
G-E(el)                           ...      0.17479497 Eh    109.69 kcal/mol


Timings for individual modules:

Sum of individual times         ...     2729.473 sec (=  45.491 min)
GTO integral calculation        ...       23.713 sec (=   0.395 min)   0.9 %
SCF iterations                  ...     1456.669 sec (=  24.278 min)  53.4 %
SCF Gradient evaluation         ...      382.774 sec (=   6.380 min)  14.0 %
Geometry relaxation             ...        0.919 sec (=   0.015 min)   0.0 %
Analytical frequency calculation...      865.399 sec (=  14.423 min)  31.7 %
                             ****ORCA TERMINATED NORMALLY****
TOTAL RUN TIME: 0 days 0 hours 45 minutes 36 seconds 316 msec
