
                                 *****************
                                 * O   R   C   A *
                                 *****************

                                            #,                                       
                                            ###                                      
                                            ####                                     
                                            #####                                    
                                            ######                                   
                                           ########,                                 
                                     ,,################,,,,,                         
                               ,,#################################,,                 
                          ,,##########################################,,             
                       ,#########################################, ''#####,          
                    ,#############################################,,   '####,        
                  ,##################################################,,,,####,       
                ,###########''''           ''''###############################       
              ,#####''   ,,,,##########,,,,          '''####'''          '####       
            ,##' ,,,,###########################,,,                        '##       
           ' ,,###''''                  '''############,,,                           
         ,,##''                                '''############,,,,        ,,,,,,###''
      ,#''                                            '''#######################'''  
     '                                                          ''''####''''         
             ,#######,   #######,   ,#######,      ##                                
            ,#'     '#,  ##    ##  ,#'     '#,    #''#        ######   ,####,        
            ##       ##  ##   ,#'  ##            #'  '#       #        #'  '#        
            ##       ##  #######   ##           ,######,      #####,   #    #        
            '#,     ,#'  ##    ##  '#,     ,#' ,#      #,         ##   #,  ,#        
             '#######'   ##     ##  '#######'  #'      '#     #####' # '####'        



                  #######################################################
                  #                        -***-                        #
                  #          Department of theory and spectroscopy      #
                  #    Directorship and core code : Frank Neese         #
                  #        Max Planck Institute fuer Kohlenforschung    #
                  #                Kaiser Wilhelm Platz 1               #
                  #                 D-45470 Muelheim/Ruhr               #
                  #                      Germany                        #
                  #                                                     #
                  #                  All rights reserved                #
                  #                        -***-                        #
                  #######################################################


                         Program Version 5.0.4 -  RELEASE  -


 With contributions from (in alphabetic order):
   Daniel Aravena         : Magnetic Suceptibility
   Michael Atanasov       : Ab Initio Ligand Field Theory (pilot matlab implementation)
   Alexander A. Auer      : GIAO ZORA, VPT2 properties, NMR spectrum
   Ute Becker             : Parallelization
   Giovanni Bistoni       : ED, misc. LED, open-shell LED, HFLD
   Martin Brehm           : Molecular dynamics
   Dmytro Bykov           : SCF Hessian
   Vijay G. Chilkuri      : MRCI spin determinant printing, contributions to CSF-ICE
   Dipayan Datta          : RHF DLPNO-CCSD density
   Achintya Kumar Dutta   : EOM-CC, STEOM-CC
   Dmitry Ganyushin       : Spin-Orbit,Spin-Spin,Magnetic field MRCI
   Miquel Garcia          : C-PCM and meta-GGA Hessian, CC/C-PCM, Gaussian charge scheme
   Yang Guo               : DLPNO-NEVPT2, F12-NEVPT2, CIM, IAO-localization
   Andreas Hansen         : Spin unrestricted coupled pair/coupled cluster methods
   Benjamin Helmich-Paris : MC-RPA, TRAH-SCF, COSX integrals
   Lee Huntington         : MR-EOM, pCC
   Robert Izsak           : Overlap fitted RIJCOSX, COSX-SCS-MP3, EOM
   Marcus Kettner         : VPT2
   Christian Kollmar      : KDIIS, OOCD, Brueckner-CCSD(T), CCSD density, CASPT2, CASPT2-K
   Simone Kossmann        : Meta GGA functionals, TD-DFT gradient, OOMP2, MP2 Hessian
   Martin Krupicka        : Initial AUTO-CI
   Lucas Lang             : DCDCAS
   Marvin Lechner         : AUTO-CI (C++ implementation), FIC-MRCC
   Dagmar Lenk            : GEPOL surface, SMD
   Dimitrios Liakos       : Extrapolation schemes; Compound Job, initial MDCI parallelization
   Dimitrios Manganas     : Further ROCIS development; embedding schemes
   Dimitrios Pantazis     : SARC Basis sets
   Anastasios Papadopoulos: AUTO-CI, single reference methods and gradients
   Taras Petrenko         : DFT Hessian,TD-DFT gradient, ASA, ECA, R-Raman, ABS, FL, XAS/XES, NRVS
   Peter Pinski           : DLPNO-MP2, DLPNO-MP2 Gradient
   Christoph Reimann      : Effective Core Potentials
   Marius Retegan         : Local ZFS, SOC
   Christoph Riplinger    : Optimizer, TS searches, QM/MM, DLPNO-CCSD(T), (RO)-DLPNO pert. Triples
   Tobias Risthaus        : Range-separated hybrids, TD-DFT gradient, RPA, STAB
   Michael Roemelt        : Original ROCIS implementation
   Masaaki Saitow         : Open-shell DLPNO-CCSD energy and density
   Barbara Sandhoefer     : DKH picture change effects
   Avijit Sen             : IP-ROCIS
   Kantharuban Sivalingam : CASSCF convergence, NEVPT2, FIC-MRCI
   Bernardo de Souza      : ESD, SOC TD-DFT
   Georgi Stoychev        : AutoAux, RI-MP2 NMR, DLPNO-MP2 response
   Willem Van den Heuvel  : Paramagnetic NMR
   Boris Wezisla          : Elementary symmetry handling
   Frank Wennmohs         : Technical directorship


 We gratefully acknowledge several colleagues who have allowed us to
 interface, adapt or use parts of their codes:
   Stefan Grimme, W. Hujo, H. Kruse, P. Pracht,  : VdW corrections, initial TS optimization,
                  C. Bannwarth, S. Ehlert          DFT functionals, gCP, sTDA/sTD-DF
   Ed Valeev, F. Pavosevic, A. Kumar             : LibInt (2-el integral package), F12 methods
   Garnet Chan, S. Sharma, J. Yang, R. Olivares  : DMRG
   Ulf Ekstrom                                   : XCFun DFT Library
   Mihaly Kallay                                 : mrcc  (arbitrary order and MRCC methods)
   Jiri Pittner, Ondrej Demel                    : Mk-CCSD
   Frank Weinhold                                : gennbo (NPA and NBO analysis)
   Christopher J. Cramer and Donald G. Truhlar   : smd solvation model
   Lars Goerigk                                  : TD-DFT with DH, B97 family of functionals
   V. Asgeirsson, H. Jonsson                     : NEB implementation
   FAccTs GmbH                                   : IRC, NEB, NEB-TS, DLPNO-Multilevel, CI-OPT
                                                   MM, QMMM, 2- and 3-layer-ONIOM, Crystal-QMMM,
                                                   LR-CPCM, SF, NACMEs, symmetry and pop. for TD-DFT,
                                                   nearIR, NL-DFT gradient (VV10), updates on ESD,
                                                   ML-optimized integration grids
   S Lehtola, MJT Oliveira, MAL Marques          : LibXC Library
   Liviu Ungur et al                             : ANISO software


 Your calculation uses the libint2 library for the computation of 2-el integrals
 For citations please refer to: http://libint.valeyev.net

 Your ORCA version has been built with support for libXC version: 5.1.0
 For citations please refer to: https://tddft.org/programs/libxc/

 This ORCA versions uses:
   CBLAS   interface :  Fast vector & matrix operations
   LAPACKE interface :  Fast linear algebra routines
   SCALAPACK package :  Parallel linear algebra routines
   Shared memory     :  Shared parallel matrices
   BLAS/LAPACK       :  OpenBLAS 0.3.15  USE64BITINT DYNAMIC_ARCH NO_AFFINITY SkylakeX SINGLE_THREADED
        Core in use  :  SkylakeX
   Copyright (c) 2011-2014, The OpenBLAS Project




***************************************
The coordinates will be read from file: /users/fjb15167/WWenergy/structures/Nf.xyz
***************************************


Your calculation utilizes the atom-pairwise dispersion correction
based on tight binding partial charges (D4)
Cite in your paper:
E.Caldeweyher, C.Bannwarth, S.Grimme, J.Chem.Phys., (2017), 147, 034112.
E.Caldeweyher, S.Ehlert, A.Hansen, H.Neugebauer, S.Grimme, J.Chem.Phys., (2018), in progress.
   

================================================================================

----- Orbital basis set information -----
Your calculation utilizes the basis: 6-31G(d)
   H-He, Li-Ne : W. J. Hehre, R. Ditchfield and J.A. Pople, J. Chem. Phys. 56, 2257 (1972).
                 Note: He and Ne are unpublished basis sets taken from the Gaussian program.
                 Note: Li and B from J. D. Dill and J. A. Pople, J. Chem. Phys. 62, 2921 (1975).
   Na - Ar     : M. M. Francl, W. J. Pietro, W. J. Hehre, J. S. Binkley, M. S. Gordon, 
                 D. J. DeFrees and J. A. Pople, J. Chem. Phys. 77, 3654 (1982).
   K - Zn      : V. A. Rassolov, J. A. Pople, M. A. Ratner, and T. L. Windus, J. Chem. Phys. 109, 1223 (1998).

----- AuxJ basis set information -----
Your calculation utilizes the AutoAux generation procedure.
  G. L. Stoychev, A. A. Auer, F. Neese, J. Chem. Theory Comput. 13, 554 (2017)

----- AuxC basis set information -----
Your calculation utilizes the AutoAux generation procedure.
  G. L. Stoychev, A. A. Auer, F. Neese, J. Chem. Theory Comput. 13, 554 (2017)

----- AuxJK basis set information -----
Your calculation utilizes the AutoAux generation procedure.
  G. L. Stoychev, A. A. Auer, F. Neese, J. Chem. Theory Comput. 13, 554 (2017)

================================================================================
                                        WARNINGS
                       Please study these warnings very carefully!
================================================================================


WARNING: Geometry Optimization
  ===> : Switching off AutoStart
         For restart on a previous wavefunction, please use MOREAD

INFO   : the flag for use of the SHARK integral package has been found!

================================================================================
                                       INPUT FILE
================================================================================
NAME = Nf_octanol.inp
|  1> ! OPT FREQ B3LYP 6-31G(d) D4 AUTOAUX
|  2> ! CPCM
|  3> 
|  4> %cpcm
|  5> epsilon 9.8629 
|  6> refrac  1.4295 
|  7> end
|  8> 
|  9> %PAL NPROCS 4 END
| 10> 
| 11> %maxcore 3375
| 12> 
| 13> *xyzfile 0 1 /users/fjb15167/WWenergy/structures/Nf.xyz
| 14> 
| 15>                          ****END OF INPUT****
================================================================================

                       *****************************
                       * Geometry Optimization Run *
                       *****************************

Geometry optimization settings:
Update method            Update   .... BFGS
Choice of coordinates    CoordSys .... Z-matrix Internals
Initial Hessian          InHess   .... Almoef's Model

Convergence Tolerances:
Energy Change            TolE     ....  5.0000e-06 Eh
Max. Gradient            TolMAXG  ....  3.0000e-04 Eh/bohr
RMS Gradient             TolRMSG  ....  1.0000e-04 Eh/bohr
Max. Displacement        TolMAXD  ....  4.0000e-03 bohr
RMS Displacement         TolRMSD  ....  2.0000e-03 bohr
Strict Convergence                ....  False
------------------------------------------------------------------------------
                        ORCA OPTIMIZATION COORDINATE SETUP
------------------------------------------------------------------------------

The optimization will be done in new redundant internal coordinates
Making redundant internal coordinates   ...  (new redundants) done
Evaluating the initial hessian          ...  (Almloef) done
Evaluating the coordinates              ...  done
Calculating the B-matrix                .... done
Calculating the G-matrix                .... done
Diagonalizing the G-matrix              .... done
Small eigenvalue found = 4.411e-03
Small eigenvalue found = 6.781e-03
Small eigenvalue found = 1.073e-02
Small eigenvalue found = 1.855e-02
Small eigenvalue found = 2.504e-02
The first mode is                       ....   71
The number of degrees of freedom        ....   99

    -----------------------------------------------------------------
                    Redundant Internal Coordinates


    -----------------------------------------------------------------
         Definition                    Initial Value    Approx d2E/dq
    -----------------------------------------------------------------
      1. B(H   1,C   0)                  1.0912         0.358565   
      2. B(H   2,C   0)                  1.0903         0.359662   
      3. B(H   3,C   0)                  1.0930         0.356145   
      4. B(C   4,C   0)                  1.5132         0.397415   
      5. B(N   5,C   4)                  1.3795         0.581610   
      6. B(C   6,N   5)                  1.4713         0.415114   
      7. B(H   7,C   6)                  1.0926         0.356733   
      8. B(H   8,C   6)                  1.0983         0.349247   
      9. B(C   9,C   6)                  1.5043         0.410614   
     10. B(C  10,C   9)                  1.4036         0.594387   
     11. B(C  11,C   9)                  1.3994         0.603673   
     12. B(C  12,C  10)                  1.3941         0.615526   
     13. B(H  13,C  10)                  1.0876         0.363255   
     14. B(C  14,C  11)                  1.3981         0.606566   
     15. B(H  15,C  11)                  1.0892         0.361222   
     16. B(C  16,C  14)                  1.3954         0.612581   
     17. B(C  16,C  12)                  1.3998         0.602705   
     18. B(H  17,C  12)                  1.0879         0.362925   
     19. B(H  18,C  14)                  1.0874         0.363567   
     20. B(H  19,C  16)                  1.0879         0.362832   
     21. B(C  20,N   5)                  1.4597         0.433220   
     22. B(H  21,C  20)                  1.0973         0.350573   
     23. B(H  22,C  20)                  1.0974         0.350435   
     24. B(C  23,C  20)                  1.5302         0.373353   
     25. B(N  24,C  23)                  1.3643         0.615052   
     26. B(O  25,C  23)                  1.2377         0.979112   
     27. B(O  26,C   4)                  1.2373         0.980483   
     28. B(C  27,N  24)                  1.4546         0.441397   
     29. B(H  28,C  27)                  1.0965         0.351540   
     30. B(H  29,C  27)                  1.0953         0.353218   
     31. B(H  30,C  27)                  1.0854         0.366239   
     32. B(H  30,H  19)                  4.3585         0.000000   
     33. B(C  31,N  24)                  1.4555         0.439954   
     34. B(H  32,C  31)                  1.0945         0.354247   
     35. B(H  33,C  31)                  1.0959         0.352374   
     36. B(H  34,C  31)                  1.0880         0.362715   
     37. A(H   2,C   0,C   4)          106.6493         0.327571   
     38. A(H   1,C   0,H   3)          107.7308         0.290141   
     39. A(H   1,C   0,H   2)          110.1216         0.290589   
     40. A(H   3,C   0,C   4)          110.5962         0.327041   
     41. A(H   1,C   0,C   4)          113.1157         0.327406   
     42. A(H   2,C   0,H   3)          108.5581         0.290280   
     43. A(C   0,C   4,N   5)          118.1905         0.394010   
     44. A(C   0,C   4,O  26)          120.9521         0.432281   
     45. A(N   5,C   4,O  26)          120.8527         0.460103   
     46. A(C   4,N   5,C  20)          125.4309         0.397465   
     47. A(C   4,N   5,C   6)          117.0759         0.394498   
     48. A(C   6,N   5,C  20)          115.5903         0.374795   
     49. A(H   8,C   6,C   9)          110.5859         0.327749   
     50. A(H   7,C   6,C   9)          110.6215         0.328898   
     51. A(N   5,C   6,C   9)          112.0223         0.373692   
     52. A(N   5,C   6,H   7)          106.9123         0.327511   
     53. A(H   7,C   6,H   8)          108.3900         0.289021   
     54. A(N   5,C   6,H   8)          108.1573         0.326369   
     55. A(C   6,C   9,C  10)          119.1875         0.400351   
     56. A(C  10,C   9,C  11)          119.3655         0.428729   
     57. A(C   6,C   9,C  11)          121.3852         0.401445   
     58. A(C  12,C  10,H  13)          121.0503         0.352997   
     59. A(C   9,C  10,H  13)          118.8069         0.350918   
     60. A(C   9,C  10,C  12)          120.1420         0.430227   
     61. A(C  14,C  11,H  15)          119.8680         0.351789   
     62. A(C   9,C  11,H  15)          119.6504         0.351505   
     63. A(C   9,C  11,C  14)          120.4740         0.430292   
     64. A(C  16,C  12,H  17)          119.9439         0.351689   
     65. A(C  10,C  12,C  16)          120.2255         0.431302   
     66. A(C  10,C  12,H  17)          119.8304         0.352943   
     67. A(C  16,C  14,H  18)          120.1243         0.352762   
     68. A(C  11,C  14,H  18)          119.9653         0.352174   
     69. A(C  11,C  14,C  16)          119.9103         0.431425   
     70. A(C  12,C  16,H  19)          120.0632         0.351673   
     71. A(C  12,C  16,C  14)          119.8790         0.430931   
     72. A(C  14,C  16,H  19)          120.0549         0.352642   
     73. A(H  22,C  20,C  23)          107.9657         0.322843   
     74. A(H  21,C  20,C  23)          104.9223         0.322864   
     75. A(N   5,C  20,C  23)          117.5747         0.370333   
     76. A(H  21,C  20,H  22)          107.5320         0.288387   
     77. A(N   5,C  20,H  22)          106.5502         0.328858   
     78. A(N   5,C  20,H  21)          111.8884         0.328879   
     79. A(N  24,C  23,O  25)          122.9268         0.464710   
     80. A(C  20,C  23,O  25)          118.6363         0.427355   
     81. A(C  20,C  23,N  24)          118.4124         0.393558   
     82. A(C  27,N  24,C  31)          115.8269         0.379808   
     83. A(C  23,N  24,C  31)          118.6368         0.402485   
     84. A(C  23,N  24,C  27)          125.4796         0.402718   
     85. A(H  29,C  27,H  30)          108.3666         0.290730   
     86. A(H  28,C  27,H  30)          108.4496         0.290513   
     87. A(N  24,C  27,H  30)          111.5226         0.332292   
     88. A(H  28,C  27,H  29)          108.6145         0.288868   
     89. A(N  24,C  27,H  29)          108.1776         0.330307   
     90. A(N  24,C  27,H  28)          111.6193         0.330047   
     91. A(H  33,C  31,H  34)          110.0173         0.290180   
     92. A(H  32,C  31,H  34)          109.5708         0.290422   
     93. A(N  24,C  31,H  34)          108.3797         0.331581   
     94. A(H  32,C  31,H  33)          108.7150         0.289107   
     95. A(N  24,C  31,H  33)          109.9064         0.329998   
     96. A(N  24,C  31,H  32)          110.2452         0.330287   
     97. D(O  26,C   4,C   0,H   3)   -101.0796         0.011728   
     98. D(O  26,C   4,C   0,H   2)     16.7768         0.011728   
     99. D(O  26,C   4,C   0,H   1)    137.9794         0.011728   
    100. D(N   5,C   4,C   0,H   2)   -164.0086         0.011728   
    101. D(N   5,C   4,C   0,H   3)     78.1349         0.011728   
    102. D(N   5,C   4,C   0,H   1)    -42.8061         0.011728   
    103. D(C   6,N   5,C   4,C   0)    166.5562         0.027141   
    104. D(C  20,N   5,C   4,O  26)   -177.7746         0.027141   
    105. D(C  20,N   5,C   4,C   0)      3.0100         0.027141   
    106. D(C   6,N   5,C   4,O  26)    -14.2284         0.027141   
    107. D(H   8,C   6,N   5,C   4)   -130.9182         0.014696   
    108. D(H   8,C   6,N   5,C  20)     34.2553         0.014696   
    109. D(C   9,C   6,N   5,C   4)    106.9538         0.014696   
    110. D(H   7,C   6,N   5,C  20)    150.7902         0.014696   
    111. D(H   7,C   6,N   5,C   4)    -14.3833         0.014696   
    112. D(C   9,C   6,N   5,C  20)    -87.8727         0.014696   
    113. D(C  11,C   9,C   6,H   8)    -15.8726         0.012486   
    114. D(C  11,C   9,C   6,H   7)   -135.9661         0.012486   
    115. D(C  11,C   9,C   6,N   5)    104.8580         0.012486   
    116. D(C  10,C   9,C   6,H   8)    167.0049         0.012486   
    117. D(C  10,C   9,C   6,H   7)     46.9114         0.012486   
    118. D(C  10,C   9,C   6,N   5)    -72.2646         0.012486   
    119. D(H  13,C  10,C   9,C   6)     -2.8603         0.024331   
    120. D(C  12,C  10,C   9,C  11)     -0.3620         0.024331   
    121. D(C  12,C  10,C   9,C   6)    176.8194         0.024331   
    122. D(H  13,C  10,C   9,C  11)    179.9583         0.024331   
    123. D(H  15,C  11,C   9,C  10)   -178.5865         0.025139   
    124. D(C  14,C  11,C   9,C  10)      0.4081         0.025139   
    125. D(C  14,C  11,C   9,C   6)   -176.7094         0.025139   
    126. D(H  15,C  11,C   9,C   6)      4.2960         0.025139   
    127. D(C  16,C  12,C  10,C   9)     -0.1374         0.026194   
    128. D(H  17,C  12,C  10,H  13)     -0.6344         0.026194   
    129. D(H  17,C  12,C  10,C   9)    179.6932         0.026194   
    130. D(C  16,C  12,C  10,H  13)    179.5351         0.026194   
    131. D(H  18,C  14,C  11,H  15)     -0.8797         0.025394   
    132. D(H  18,C  14,C  11,C   9)   -179.8722         0.025394   
    133. D(C  16,C  14,C  11,H  15)    179.0388         0.025394   
    134. D(C  16,C  14,C  11,C   9)      0.0464         0.025394   
    135. D(H  19,C  16,C  14,H  18)     -0.0059         0.025930   
    136. D(H  19,C  16,C  14,C  11)   -179.9243         0.025930   
    137. D(C  12,C  16,C  14,H  18)    179.3702         0.025930   
    138. D(C  12,C  16,C  14,C  11)     -0.5481         0.025930   
    139. D(H  19,C  16,C  12,H  17)      0.1405         0.025054   
    140. D(H  19,C  16,C  12,C  10)    179.9708         0.025054   
    141. D(C  14,C  16,C  12,H  17)   -179.2356         0.025054   
    142. D(C  14,C  16,C  12,C  10)      0.5947         0.025054   
    143. D(C  23,C  20,N   5,C   6)    151.2722         0.016001   
    144. D(C  23,C  20,N   5,C   4)    -44.9660         0.016001   
    145. D(H  22,C  20,N   5,C   6)     30.0604         0.016001   
    146. D(H  22,C  20,N   5,C   4)   -166.1777         0.016001   
    147. D(H  21,C  20,N   5,C   6)    -87.2017         0.016001   
    148. D(H  21,C  20,N   5,C   4)     76.5601         0.016001   
    149. D(O  25,C  23,C  20,H  22)   -113.9874         0.010425   
    150. D(O  25,C  23,C  20,H  21)      0.4780         0.010425   
    151. D(O  25,C  23,C  20,N   5)    125.5372         0.010425   
    152. D(N  24,C  23,C  20,H  22)     64.2673         0.010425   
    153. D(N  24,C  23,C  20,H  21)    178.7328         0.010425   
    154. D(N  24,C  23,C  20,N   5)    -56.2080         0.010425   
    155. D(C  31,N  24,C  23,O  25)     -6.2665         0.030594   
    156. D(C  31,N  24,C  23,C  20)    175.5584         0.030594   
    157. D(C  27,N  24,C  23,O  25)    176.5941         0.030594   
    158. D(C  27,N  24,C  23,C  20)     -1.5809         0.030594   
    159. D(H  28,C  27,N  24,C  23)     99.0325         0.016614   
    160. D(H  30,C  27,N  24,C  31)    160.3400         0.016614   
    161. D(H  30,C  27,N  24,C  23)    -22.4493         0.016614   
    162. D(H  29,C  27,N  24,C  31)     41.2622         0.016614   
    163. D(H  29,C  27,N  24,C  23)   -141.5271         0.016614   
    164. D(H  28,C  27,N  24,C  31)    -78.1782         0.016614   
    165. D(H  34,C  31,N  24,C  27)    175.6413         0.016505   
    166. D(H  34,C  31,N  24,C  23)     -1.7709         0.016505   
    167. D(H  33,C  31,N  24,C  27)     55.3799         0.016505   
    168. D(H  33,C  31,N  24,C  23)   -122.0323         0.016505   
    169. D(H  32,C  31,N  24,C  27)    -64.4403         0.016505   
    170. D(H  32,C  31,N  24,C  23)    118.1475         0.016505   
    -----------------------------------------------------------------

Number of atoms                         .... 35
Number of degrees of freedom            .... 170

         *************************************************************
         *                GEOMETRY OPTIMIZATION CYCLE   1            *
         *************************************************************
---------------------------------
CARTESIAN COORDINATES (ANGSTROEM)
---------------------------------
  C      2.559000    1.706000   -0.728000
  H      3.159000    1.607000    0.178000
  H      2.888000    2.572000   -1.303000
  H      2.716000    0.808000   -1.331000
  C      1.086000    1.907000   -0.446000
  N      0.500000    1.138000    0.538000
  C     -0.833000    1.550000    1.005000
  H     -0.997000    2.567000    0.641000
  H     -0.819000    1.573000    2.103000
  C     -1.914000    0.629000    0.509000
  C     -2.278000    0.668000   -0.846000
  C     -2.521000   -0.305000    1.356000
  C     -3.230000   -0.222000   -1.341000
  H     -1.801000    1.398000   -1.496000
  C     -3.475000   -1.198000    0.859000
  H     -2.259000   -0.324000    2.413000
  C     -3.826000   -1.161000   -0.491000
  H     -3.512000   -0.184000   -2.391000
  H     -3.943000   -1.919000    1.525000
  H     -4.569000   -1.854000   -0.880000
  C      1.196000    0.176000    1.387000
  H      1.772000    0.671000    2.179000
  H      0.421000   -0.431000    1.872000
  C      2.188000   -0.775000    0.714000
  N      1.743000   -1.559000   -0.310000
  O      3.348000   -0.823000    1.143000
  O      0.421000    2.728000   -1.090000
  C      0.378000   -1.599000   -0.811000
  H      0.261000   -0.988000   -1.714000
  H      0.135000   -2.638000   -1.058000
  H     -0.330000   -1.250000   -0.066000
  C      2.703000   -2.393000   -1.018000
  H      2.443000   -3.450000   -0.904000
  H      2.699000   -2.143000   -2.085000
  H      3.690000   -2.213000   -0.597000

----------------------------
CARTESIAN COORDINATES (A.U.)
----------------------------
  NO LB      ZA    FRAG     MASS         X           Y           Z
   0 C     6.0000    0    12.011    4.835809    3.223873   -1.375721
   1 H     1.0000    0     1.008    5.969645    3.036790    0.336371
   2 H     1.0000    0     1.008    5.457529    4.860376   -2.462313
   3 H     1.0000    0     1.008    5.132496    1.526899   -2.515225
   4 C     6.0000    0    12.011    2.052243    3.603708   -0.842818
   5 N     7.0000    0    14.007    0.944863    2.150508    1.016673
   6 C     6.0000    0    12.011   -1.574142    2.929076    1.899175
   7 H     1.0000    0     1.008   -1.884057    4.850927    1.211314
   8 H     1.0000    0     1.008   -1.547686    2.972539    3.974094
   9 C     6.0000    0    12.011   -3.616936    1.188638    0.961871
  10 C     6.0000    0    12.011   -4.304796    1.262337   -1.598708
  11 C     6.0000    0    12.011   -4.764000   -0.576366    2.562469
  12 C     6.0000    0    12.011   -6.103815   -0.419519   -2.534123
  13 H     1.0000    0     1.008   -3.403397    2.641837   -2.827030
  14 C     6.0000    0    12.011   -6.566798   -2.263892    1.623275
  15 H     1.0000    0     1.008   -4.268891   -0.612271    4.559909
  16 C     6.0000    0    12.011   -7.230092   -2.193972   -0.927856
  17 H     1.0000    0     1.008   -6.636718   -0.347710   -4.518335
  18 H     1.0000    0     1.008   -7.451190   -3.626384    2.881832
  19 H     1.0000    0     1.008   -8.634159   -3.503552   -1.662959
  20 C     6.0000    0    12.011    2.260112    0.332592    2.621050
  21 H     1.0000    0     1.008    3.348595    1.268006    4.117713
  22 H     1.0000    0     1.008    0.795575   -0.814472    3.537567
  23 C     6.0000    0    12.011    4.134721   -1.464538    1.349264
  24 N     7.0000    0    14.007    3.293793   -2.946083   -0.585815
  25 O     8.0000    0    15.999    6.326803   -1.555245    2.159957
  26 O     8.0000    0    15.999    0.795575    5.155173   -2.059801
  27 C     6.0000    0    12.011    0.714316   -3.021672   -1.532568
  28 H     1.0000    0     1.008    0.493219   -1.867049   -3.238991
  29 H     1.0000    0     1.008    0.255113   -4.985098   -1.999330
  30 H     1.0000    0     1.008   -0.623610   -2.362158   -0.124722
  31 C     6.0000    0    12.011    5.107930   -4.522115   -1.923741
  32 H     1.0000    0     1.008    4.616601   -6.519555   -1.708312
  33 H     1.0000    0     1.008    5.100371   -4.049683   -3.940079
  34 H     1.0000    0     1.008    6.973089   -4.181964   -1.128167

--------------------------------
INTERNAL COORDINATES (ANGSTROEM)
--------------------------------
 C      0   0   0     0.000000000000     0.00000000     0.00000000
 H      1   0   0     1.091163140873     0.00000000     0.00000000
 H      1   2   0     1.090331142360   110.12164469     0.00000000
 H      1   2   3     1.093005946919   107.73084634   118.22931273
 C      1   2   3     1.513160269106   113.11574556   240.77994853
 N      5   1   2     1.379497372234   118.19047755   317.19391802
 C      6   5   1     1.471299425678   117.07588964   166.55617893
 H      7   6   5     1.092557092330   106.91230990   345.61670396
 H      7   6   5     1.098330096100   108.15728444   229.08177613
 C      7   6   5     1.504266598712   112.02233100   106.95375608
 C     10   7   6     1.403581846563   119.18747256   287.73544681
 C     10   7   6     1.399361997483   121.38522659   104.85795163
 C     11  10   7     1.394069223532   120.14203995   176.81943956
 H     11  10   7     1.087625395069   118.80688245   357.13971770
 C     12  10   7     1.398060799822   120.47404973   183.29063612
 H     12  10   7     1.089152881831   119.65037030     4.29600457
 C     15  12  10     1.395374501702   119.91029821     0.04636958
 H     13  11  10     1.087873154370   119.83039163   179.69318874
 H     15  12  10     1.087391833701   119.96532358   180.12784929
 H     17  15  12     1.087942553630   120.05485511   180.07568843
 C      6   5   1     1.459678389235   125.43087799     3.01002430
 H     21   6   5     1.097298956529   111.88836241    76.56014751
 H     21   6   5     1.097405576804   106.55023354   193.82225868
 C     21   6   5     1.530161429392   117.57467828   315.03402612
 N     24  21   6     1.364278930424   118.41243750   303.79197332
 O     24  21   6     1.237717657626   118.63628078   125.53723513
 O      5   1   2     1.237336655886   120.95210261   137.97935763
 C     25  24  21     1.454587914153   125.47961394   358.41910097
 H     28  25  24     1.096548676530   111.61930315    99.03245152
 H     28  25  24     1.095252938823   108.17759788   218.47292545
 H     28  25  24     1.085398544314   111.52262738   337.55066837
 C     25  24  21     1.455479302498   118.63679082   175.55840646
 H     32  25  24     1.094461054583   110.24515035   118.14753850
 H     32  25  24     1.095903736648   109.90643417   237.96774148
 H     32  25  24     1.088030330460   108.37973166   358.22912165

---------------------------
INTERNAL COORDINATES (A.U.)
---------------------------
 C      0   0   0     0.000000000000     0.00000000     0.00000000
 H      1   0   0     2.061999503679     0.00000000     0.00000000
 H      1   2   0     2.060427254346   110.12164469     0.00000000
 H      1   2   3     2.065481902424   107.73084634   118.22931273
 C      1   2   3     2.859458505340   113.11574556   240.77994853
 N      5   1   2     2.606872235986   118.19047755   317.19391802
 C      6   5   1     2.780352975527   117.07588964   166.55617893
 H      7   6   5     2.064633690177   106.91230990   345.61670396
 H      7   6   5     2.075543086273   108.15728444   229.08177613
 C      7   6   5     2.842651903971   112.02233100   106.95375608
 C     10   7   6     2.652385296547   119.18747256   287.73544681
 C     10   7   6     2.644410937460   121.38522659   104.85795163
 C     11  10   7     2.634409044204   120.14203995   176.81943956
 H     11  10   7     2.055314132979   118.80688245   357.13971770
 C     12  10   7     2.641952030235   120.47404973   183.29063612
 H     12  10   7     2.058200664631   119.65037030     4.29600457
 C     15  12  10     2.636875662474   119.91029821     0.04636958
 H     13  11  10     2.055782330205   119.83039163   179.69318874
 H     15  12  10     2.054872765958   119.96532358   180.12784929
 H     17  15  12     2.055913475801   120.05485511   180.07568843
 C      6   5   1     2.758392399258   125.43087799     3.01002430
 H     21   6   5     2.073594514878   111.88836241    76.56014751
 H     21   6   5     2.073795997997   106.55023354   193.82225868
 C     21   6   5     2.891586042241   117.57467828   315.03402612
 N     24  21   6     2.578113548781   118.41243750   303.79197332
 O     24  21   6     2.338947404032   118.63628078   125.53723513
 O      5   1   2     2.338227415087   120.95210261   137.97935763
 C     25  24  21     2.748772795461   125.47961394   358.41910097
 H     28  25  24     2.072176691156   111.61930315    99.03245152
 H     28  25  24     2.069728101748   108.17759788   218.47292545
 H     28  25  24     2.051105994911   111.52262738   337.55066837
 C     25  24  21     2.750457275312   118.63679082   175.55840646
 H     32  25  24     2.068231657405   110.24515035   118.14753850
 H     32  25  24     2.070957931406   109.90643417   237.96774148
 H     32  25  24     2.056079349968   108.37973166   358.22912165

---------------------
BASIS SET INFORMATION
---------------------
There are 4 groups of distinct atoms

 Group   1 Type C   : 10s4p1d contracted to 3s2p1d pattern {631/31/1}
 Group   2 Type H   : 4s contracted to 2s pattern {31}
 Group   3 Type N   : 10s4p1d contracted to 3s2p1d pattern {631/31/1}
 Group   4 Type O   : 10s4p1d contracted to 3s2p1d pattern {631/31/1}

Atom   0C    basis set group =>   1
Atom   1H    basis set group =>   2
Atom   2H    basis set group =>   2
Atom   3H    basis set group =>   2
Atom   4C    basis set group =>   1
Atom   5N    basis set group =>   3
Atom   6C    basis set group =>   1
Atom   7H    basis set group =>   2
Atom   8H    basis set group =>   2
Atom   9C    basis set group =>   1
Atom  10C    basis set group =>   1
Atom  11C    basis set group =>   1
Atom  12C    basis set group =>   1
Atom  13H    basis set group =>   2
Atom  14C    basis set group =>   1
Atom  15H    basis set group =>   2
Atom  16C    basis set group =>   1
Atom  17H    basis set group =>   2
Atom  18H    basis set group =>   2
Atom  19H    basis set group =>   2
Atom  20C    basis set group =>   1
Atom  21H    basis set group =>   2
Atom  22H    basis set group =>   2
Atom  23C    basis set group =>   1
Atom  24N    basis set group =>   3
Atom  25O    basis set group =>   4
Atom  26O    basis set group =>   4
Atom  27C    basis set group =>   1
Atom  28H    basis set group =>   2
Atom  29H    basis set group =>   2
Atom  30H    basis set group =>   2
Atom  31C    basis set group =>   1
Atom  32H    basis set group =>   2
Atom  33H    basis set group =>   2
Atom  34H    basis set group =>   2
---------------------------------
AUXILIARY/J BASIS SET INFORMATION
---------------------------------
There are 4 groups of distinct atoms

 Group   1 Type C   : 13s11p10d2f contracted to 13s11p10d2f pattern {1111111111111/11111111111/1111111111/11}
 Group   2 Type H   : 9s2p contracted to 9s2p pattern {111111111/11}
 Group   3 Type N   : 14s11p10d2f contracted to 14s11p10d2f pattern {11111111111111/11111111111/1111111111/11}
 Group   4 Type O   : 14s11p10d2f contracted to 14s11p10d2f pattern {11111111111111/11111111111/1111111111/11}

Atom   0C    basis set group =>   1
Atom   1H    basis set group =>   2
Atom   2H    basis set group =>   2
Atom   3H    basis set group =>   2
Atom   4C    basis set group =>   1
Atom   5N    basis set group =>   3
Atom   6C    basis set group =>   1
Atom   7H    basis set group =>   2
Atom   8H    basis set group =>   2
Atom   9C    basis set group =>   1
Atom  10C    basis set group =>   1
Atom  11C    basis set group =>   1
Atom  12C    basis set group =>   1
Atom  13H    basis set group =>   2
Atom  14C    basis set group =>   1
Atom  15H    basis set group =>   2
Atom  16C    basis set group =>   1
Atom  17H    basis set group =>   2
Atom  18H    basis set group =>   2
Atom  19H    basis set group =>   2
Atom  20C    basis set group =>   1
Atom  21H    basis set group =>   2
Atom  22H    basis set group =>   2
Atom  23C    basis set group =>   1
Atom  24N    basis set group =>   3
Atom  25O    basis set group =>   4
Atom  26O    basis set group =>   4
Atom  27C    basis set group =>   1
Atom  28H    basis set group =>   2
Atom  29H    basis set group =>   2
Atom  30H    basis set group =>   2
Atom  31C    basis set group =>   1
Atom  32H    basis set group =>   2
Atom  33H    basis set group =>   2
Atom  34H    basis set group =>   2
---------------------------------
AUXILIARY/C BASIS SET INFORMATION
---------------------------------
There are 4 groups of distinct atoms

 Group   1 Type C   : 13s11p10d2f contracted to 13s11p10d2f pattern {1111111111111/11111111111/1111111111/11}
 Group   2 Type H   : 9s2p contracted to 9s2p pattern {111111111/11}
 Group   3 Type N   : 14s11p10d2f contracted to 14s11p10d2f pattern {11111111111111/11111111111/1111111111/11}
 Group   4 Type O   : 14s11p10d2f contracted to 14s11p10d2f pattern {11111111111111/11111111111/1111111111/11}

Atom   0C    basis set group =>   1
Atom   1H    basis set group =>   2
Atom   2H    basis set group =>   2
Atom   3H    basis set group =>   2
Atom   4C    basis set group =>   1
Atom   5N    basis set group =>   3
Atom   6C    basis set group =>   1
Atom   7H    basis set group =>   2
Atom   8H    basis set group =>   2
Atom   9C    basis set group =>   1
Atom  10C    basis set group =>   1
Atom  11C    basis set group =>   1
Atom  12C    basis set group =>   1
Atom  13H    basis set group =>   2
Atom  14C    basis set group =>   1
Atom  15H    basis set group =>   2
Atom  16C    basis set group =>   1
Atom  17H    basis set group =>   2
Atom  18H    basis set group =>   2
Atom  19H    basis set group =>   2
Atom  20C    basis set group =>   1
Atom  21H    basis set group =>   2
Atom  22H    basis set group =>   2
Atom  23C    basis set group =>   1
Atom  24N    basis set group =>   3
Atom  25O    basis set group =>   4
Atom  26O    basis set group =>   4
Atom  27C    basis set group =>   1
Atom  28H    basis set group =>   2
Atom  29H    basis set group =>   2
Atom  30H    basis set group =>   2
Atom  31C    basis set group =>   1
Atom  32H    basis set group =>   2
Atom  33H    basis set group =>   2
Atom  34H    basis set group =>   2
----------------------------------
AUXILIARY/JK BASIS SET INFORMATION
----------------------------------
There are 4 groups of distinct atoms

 Group   1 Type C   : 13s11p10d2f contracted to 13s11p10d2f pattern {1111111111111/11111111111/1111111111/11}
 Group   2 Type H   : 9s2p contracted to 9s2p pattern {111111111/11}
 Group   3 Type N   : 14s11p10d2f contracted to 14s11p10d2f pattern {11111111111111/11111111111/1111111111/11}
 Group   4 Type O   : 14s11p10d2f contracted to 14s11p10d2f pattern {11111111111111/11111111111/1111111111/11}

Atom   0C    basis set group =>   1
Atom   1H    basis set group =>   2
Atom   2H    basis set group =>   2
Atom   3H    basis set group =>   2
Atom   4C    basis set group =>   1
Atom   5N    basis set group =>   3
Atom   6C    basis set group =>   1
Atom   7H    basis set group =>   2
Atom   8H    basis set group =>   2
Atom   9C    basis set group =>   1
Atom  10C    basis set group =>   1
Atom  11C    basis set group =>   1
Atom  12C    basis set group =>   1
Atom  13H    basis set group =>   2
Atom  14C    basis set group =>   1
Atom  15H    basis set group =>   2
Atom  16C    basis set group =>   1
Atom  17H    basis set group =>   2
Atom  18H    basis set group =>   2
Atom  19H    basis set group =>   2
Atom  20C    basis set group =>   1
Atom  21H    basis set group =>   2
Atom  22H    basis set group =>   2
Atom  23C    basis set group =>   1
Atom  24N    basis set group =>   3
Atom  25O    basis set group =>   4
Atom  26O    basis set group =>   4
Atom  27C    basis set group =>   1
Atom  28H    basis set group =>   2
Atom  29H    basis set group =>   2
Atom  30H    basis set group =>   2
Atom  31C    basis set group =>   1
Atom  32H    basis set group =>   2
Atom  33H    basis set group =>   2
Atom  34H    basis set group =>   2


           ************************************************************
           *        Program running with 4 parallel MPI-processes     *
           *              working on a common directory               *
           ************************************************************
------------------------------------------------------------------------------
                           ORCA GTO INTEGRAL CALCULATION
                           -- RI-GTO INTEGRALS CHOSEN --
------------------------------------------------------------------------------
------------------------------------------------------------------------------
                   ___                                                        
                  /   \      - P O W E R E D   B Y -                         
                 /     \                                                     
                 |  |  |   _    _      __       _____    __    __             
                 |  |  |  | |  | |    /  \     |  _  \  |  |  /  |          
                  \  \/   | |  | |   /    \    | | | |  |  | /  /          
                 / \  \   | |__| |  /  /\  \   | |_| |  |  |/  /          
                |  |  |   |  __  | /  /__\  \  |    /   |      \           
                |  |  |   | |  | | |   __   |  |    \   |  |\   \          
                \     /   | |  | | |  |  |  |  | |\  \  |  | \   \       
                 \___/    |_|  |_| |__|  |__|  |_| \__\ |__|  \__/        
                                                                              
                      - O R C A' S   B I G   F R I E N D -                    
                                      &                                       
                       - I N T E G R A L  F E E D E R -                       
                                                                              
 v1 FN, 2020, v2 2021                                                         
------------------------------------------------------------------------------


Reading SHARK input file Nf_octanol.SHARKINP.tmp ... ok
----------------------
SHARK INTEGRAL PACKAGE
----------------------

Number of atoms                             ...     35
Number of basis functions                   ...    274
Number of shells                            ...    138
Maximum angular momentum                    ...      2
Integral batch strategy                     ... SHARK/LIBINT Hybrid
RI-J (if used) integral strategy            ... SPLIT-RIJ (Revised 2003 algorithm where possible)
Printlevel                                  ...      1
Contraction scheme used                     ... SEGMENTED contraction
Coulomb Range Separation                    ... NOT USED
Exchange Range Separation                   ... NOT USED
Finite Nucleus Model                        ... NOT USED
Auxiliary Coulomb fitting basis             ... AVAILABLE
   # of basis functions in Aux-J            ...   2144
   # of shells in Aux-J                     ...    814
   Maximum angular momentum in Aux-J        ...      3
Auxiliary J/K fitting basis                 ... AVAILABLE
   # of basis functions in Aux-JK           ...   2144
   # of shells in Aux-JK                    ...    814
   Maximum angular momentum in Aux-JK       ...      3
Auxiliary Correlation fitting basis         ... AVAILABLE
   # of basis functions in Aux-C            ...   2144
   # of shells in Aux-C                     ...    814
   Maximum angular momentum in Aux-C        ...      3
Auxiliary 'external' fitting basis          ... NOT available
Integral threshold                          ...     2.500000e-11
Primitive cut-off                           ...     2.500000e-12
Primitive pair pre-selection threshold      ...     2.500000e-12

Calculating pre-screening integrals         ... done (  0.0 sec) Dimension = 138
Organizing shell pair data                  ... done (  0.1 sec)
Shell pair information
Total number of shell pairs                 ...      9591
Shell pairs after pre-screening             ...      8097
Total number of primitive shell pairs       ...     54039
Primitive shell pairs kept                  ...     26184
          la=0 lb=0:   3120 shell pairs
          la=1 lb=0:   2641 shell pairs
          la=1 lb=1:    562 shell pairs
          la=2 lb=0:   1149 shell pairs
          la=2 lb=1:    509 shell pairs
          la=2 lb=2:    116 shell pairs

Calculating one electron integrals          ... done (  0.0 sec)
Calculating RI/J V-Matrix + Cholesky decomp.... done (  0.3 sec)
Calculating RI/JK V-Matrix + Cholesky decomp... done (  0.3 sec)
Calculating RI/C V-Matrix + Cholesky decomp.... done (  0.3 sec)
Calculating Nuclear repulsion               ... done (  0.0 sec) ENN=   1258.987295222278 Eh

SHARK setup successfully completed in   1.4 seconds

Maximum memory used throughout the entire GTOINT-calculation: 40.0 MB


           ************************************************************
           *        Program running with 4 parallel MPI-processes     *
           *              working on a common directory               *
           ************************************************************
-------------------------------------------------------------------------------
                                 ORCA SCF
-------------------------------------------------------------------------------

------------
SCF SETTINGS
------------
Hamiltonian:
 Density Functional     Method          .... DFT(GTOs)
 Exchange Functional    Exchange        .... B88
   X-Alpha parameter    XAlpha          ....  0.666667
   Becke's b parameter  XBeta           ....  0.004200
 Correlation Functional Correlation     .... LYP
 LDA part of GGA corr.  LDAOpt          .... VWN-5
 Gradients option       PostSCFGGA      .... off
 Hybrid DFT is turned on
   Fraction HF Exchange ScalHFX         ....  0.200000
   Scaling of DF-GGA-X  ScalDFX         ....  0.720000
   Scaling of DF-GGA-C  ScalDFC         ....  0.810000
   Scaling of DF-LDA-C  ScalLDAC        ....  1.000000
   Perturbative correction              ....  0.000000
   Density functional embedding theory  .... OFF
   NL short-range parameter             ....  4.800000
 RI-approximation to the Coulomb term is turned on
   Number of AuxJ basis functions       .... 2144
   RIJ-COSX (HFX calculated with COS-X)).... on


General Settings:
 Integral files         IntName         .... Nf_octanol
 Hartree-Fock type      HFTyp           .... RHF
 Total Charge           Charge          ....    0
 Multiplicity           Mult            ....    1
 Number of Electrons    NEL             ....  126
 Basis Dimension        Dim             ....  274
 Nuclear Repulsion      ENuc            ....   1258.9872952223 Eh

Convergence Acceleration:
 DIIS                   CNVDIIS         .... on
   Start iteration      DIISMaxIt       ....    12
   Startup error        DIISStart       ....  0.200000
   # of expansion vecs  DIISMaxEq       ....     5
   Bias factor          DIISBfac        ....   1.050
   Max. coefficient     DIISMaxC        ....  10.000
 Trust-Rad. Augm. Hess. CNVTRAH         .... auto
   Auto Start mean grad. ratio tolernc. ....  1.125000
   Auto Start start iteration           ....    20
   Auto Start num. interpolation iter.  ....    10
   Max. Number of Micro iterations      ....    16
   Max. Number of Macro iterations      .... Maxiter - #DIIS iter
   Number of Davidson start vectors     ....     2
   Converg. threshold I  (grad. norm)   ....   1.000e-05
   Converg. threshold II (energy diff.) ....   1.000e-08
   Grad. Scal. Fac. for Micro threshold ....   0.100
   Minimum threshold for Micro iter.    ....   0.010
   NR start threshold (gradient norm)   ....   0.001
   Initial trust radius                 ....   0.400
   Minimum AH scaling param. (alpha)    ....   1.000
   Maximum AH scaling param. (alpha)    .... 1000.000
   Orbital update algorithm             .... Taylor
   White noise on init. David. guess    .... on
   Maximum white noise                  ....   0.010
   Quad. conv. algorithm                .... NR
 SOSCF                  CNVSOSCF        .... on
   Start iteration      SOSCFMaxIt      ....   150
   Startup grad/error   SOSCFStart      ....  0.003300
 Level Shifting         CNVShift        .... on
   Level shift para.    LevelShift      ....    0.2500
   Turn off err/grad.   ShiftErr        ....    0.0010
 Zerner damping         CNVZerner       .... off
 Static damping         CNVDamp         .... on
   Fraction old density DampFac         ....    0.7000
   Max. Damping (<1)    DampMax         ....    0.9800
   Min. Damping (>=0)   DampMin         ....    0.0000
   Turn off err/grad.   DampErr         ....    0.1000
 Fernandez-Rico         CNVRico         .... off

SCF Procedure:
 Maximum # iterations   MaxIter         ....   125
 SCF integral mode      SCFMode         .... Direct
   Integral package                     .... SHARK and LIBINT hybrid scheme
 Reset frequency        DirectResetFreq ....    20
 Integral Threshold     Thresh          ....  2.500e-11 Eh
 Primitive CutOff       TCut            ....  2.500e-12 Eh

Convergence Tolerance:
 Convergence Check Mode ConvCheckMode   .... Total+1el-Energy
 Convergence forced     ConvForced      .... 0
 Energy Change          TolE            ....  1.000e-08 Eh
 1-El. energy change                    ....  1.000e-05 Eh
 Orbital Gradient       TolG            ....  1.000e-05
 Orbital Rotation angle TolX            ....  1.000e-05
 DIIS Error             TolErr          ....  5.000e-07


Diagonalization of the overlap matrix:
Smallest eigenvalue                        ... 4.849e-04
Time for diagonalization                   ...    0.256 sec
Threshold for overlap eigenvalues          ... 1.000e-08
Number of eigenvalues below threshold      ... 0
Time for construction of square roots      ...    0.009 sec
Total time needed                          ...    0.266 sec

Time for model grid setup =    0.345 sec

------------------------------
INITIAL GUESS: MODEL POTENTIAL
------------------------------
Loading Hartree-Fock densities                     ... done
Calculating cut-offs                               ... done
Initializing the effective Hamiltonian             ... done
Setting up the integral package (SHARK)            ... done
Starting the Coulomb interaction                   ... done (   0.4 sec)
Reading the grid                                   ... done
Mapping shells                                     ... done
Starting the XC term evaluation                    ... done (   0.3 sec)
  promolecular density results
     # of electrons  =    125.982678171
     EX              =   -101.738778961
     EC              =     -4.252777522
     EX+EC           =   -105.991556483
Transforming the Hamiltonian                       ... done (   0.0 sec)
Diagonalizing the Hamiltonian                      ... done (   0.0 sec)
Back transforming the eigenvectors                 ... done (   0.0 sec)
Now organizing SCF variables                       ... done
                      ------------------
                      INITIAL GUESS DONE (   3.5 sec)
                      ------------------
-------------------
DFT GRID GENERATION
-------------------

General Integration Accuracy     IntAcc      ... 4.388
Radial Grid Type                 RadialGrid  ... OptM3 with GC (2021)
Angular Grid (max. ang.)         AngularGrid ... 4 (Lebedev-302)
Angular grid pruning method      GridPruning ... 4 (adaptive)
Weight generation scheme         WeightScheme... Becke
Basis function cutoff            BFCut       ... 1.0000e-11
Integration weight cutoff        WCut        ... 1.0000e-14
Angular grids for H and He will be reduced by one unit
Partially contracted basis set               ... off
Rotationally invariant grid construction     ... off

Total number of grid points                  ...   158601
Total number of batches                      ...     2495
Average number of points per batch           ...       63
Average number of grid points per atom       ...     4531
Time for grid setup =    1.159 sec

--------------------
COSX GRID GENERATION
--------------------

GRIDX 1
-------
General Integration Accuracy     IntAcc      ... 3.816
Radial Grid Type                 RadialGrid  ... OptM3 with GC (2021)
Angular Grid (max. ang.)         AngularGrid ... 1 (Lebedev-50)
Angular grid pruning method      GridPruning ... 4 (adaptive)
Weight generation scheme         WeightScheme... Becke
Basis function cutoff            BFCut       ... 1.0000e-11
Integration weight cutoff        WCut        ... 1.0000e-14
Angular grids for H and He will be reduced by one unit
Partially contracted basis set               ... on
Rotationally invariant grid construction     ... off

Total number of grid points                  ...    20202
Total number of batches                      ...      334
Average number of points per batch           ...       60
Average number of grid points per atom       ...      577
UseSFitting                                  ... on

GRIDX 2
-------
General Integration Accuracy     IntAcc      ... 4.020
Radial Grid Type                 RadialGrid  ... OptM3 with GC (2021)
Angular Grid (max. ang.)         AngularGrid ... 2 (Lebedev-110)
Angular grid pruning method      GridPruning ... 4 (adaptive)
Weight generation scheme         WeightScheme... Becke
Basis function cutoff            BFCut       ... 1.0000e-11
Integration weight cutoff        WCut        ... 1.0000e-14
Angular grids for H and He will be reduced by one unit
Partially contracted basis set               ... on
Rotationally invariant grid construction     ... off

Total number of grid points                  ...    43066
Total number of batches                      ...      691
Average number of points per batch           ...       62
Average number of grid points per atom       ...     1230
UseSFitting                                  ... on

GRIDX 3
-------
General Integration Accuracy     IntAcc      ... 4.338
Radial Grid Type                 RadialGrid  ... OptM3 with GC (2021)
Angular Grid (max. ang.)         AngularGrid ... 3 (Lebedev-194)
Angular grid pruning method      GridPruning ... 4 (adaptive)
Weight generation scheme         WeightScheme... Becke
Basis function cutoff            BFCut       ... 1.0000e-11
Integration weight cutoff        WCut        ... 1.0000e-14
Angular grids for H and He will be reduced by one unit
Partially contracted basis set               ... on
Rotationally invariant grid construction     ... off

Total number of grid points                  ...    93799
Total number of batches                      ...     1486
Average number of points per batch           ...       63
Average number of grid points per atom       ...     2680
UseSFitting                                  ... on

Time for X-Grid setup             =    1.575 sec


--------------------
CPCM SOLVATION MODEL
--------------------
CPCM parameters:
  Epsilon                                         ...       9.8629
  Refrac                                          ...       1.4295
  Rsolv                                           ...       1.3000
  Surface type                                    ... GAUSSIAN VDW
  Epsilon function type                           ...         CPCM
Radii:
 Radius for C  used is    3.8550 Bohr (=   2.0400 Ang.)
 Radius for H  used is    2.4944 Bohr (=   1.3200 Ang.)
 Radius for N  used is    3.5149 Bohr (=   1.8600 Ang.)
 Radius for O  used is    3.4469 Bohr (=   1.8240 Ang.)
Calculating surface                               ...        done! (  0.0s)
GEPOL surface points                              ...         1804
GEPOL Volume                                      ...    1981.0268
GEPOL Surface-area                                ...    1001.9437
Calculating surface distance matrix               ...        done! (  0.0s)
Performing Cholesky decomposition & store         ...        done! (  0.1s)
Overall time for CPCM initialization              ...                 0.1s
--------------
SCF ITERATIONS
--------------
ITER       Energy         Delta-E        Max-DP      RMS-DP      [F,P]     Damp
               ***  Starting incremental Fock matrix formation  ***
  0   -765.2696724412   0.000000000000 0.09393362  0.00192287  0.2748135 0.7000
  1   -765.4793795835  -0.209707142350 0.05173774  0.00128803  0.1090969 0.7000
                               ***Turning on DIIS***
  2   -765.5625183109  -0.083138727414 0.06503139  0.00203739  0.0393517 0.0000
  3   -765.6959800568  -0.133461745812 0.03655614  0.00088685  0.0541010 0.0000
  4   -765.7222065411  -0.026226484352 0.00904144  0.00029002  0.0133706 0.0000
  5   -765.7241440112  -0.001937470090 0.00343004  0.00008899  0.0053618 0.0000
                      *** Initiating the SOSCF procedure ***
                           *** Shutting down DIIS ***
                      *** Re-Reading the Fockian *** 
                      *** Removing any level shift *** 
ITER      Energy       Delta-E        Grad      Rot      Max-DP    RMS-DP
  6   -765.72426278  -0.0001187692  0.000226  0.000226  0.001381  0.000040
               *** Restarting incremental Fock matrix formation ***
  7   -765.72430228  -0.0000394961  0.000270  0.001058  0.001826  0.000026
  8   -765.72429497   0.0000073084  0.000522  0.000733  0.001177  0.000017
  9   -765.72430600  -0.0000110347  0.000067  0.000183  0.000338  0.000006
 10   -765.72430558   0.0000004201  0.000132  0.000121  0.000230  0.000004
 11   -765.72430613  -0.0000005472  0.000003  0.000005  0.000029  0.000001
 12   -765.72430612   0.0000000054  0.000004  0.000004  0.000015  0.000000
                  ***Gradient check signals convergence***
              ***Rediagonalizing the Fockian in SOSCF/NRSCF***

               *****************************************************
               *                     SUCCESS                       *
               *           SCF CONVERGED AFTER  13 CYCLES          *
               *****************************************************

Old exchange energy                            =    -20.719151040 Eh
New exchange energy                            =    -20.719170458 Eh
Exchange energy change after final integration =     -0.000019418 Eh
Total energy after final integration           =   -765.724325544 Eh
Final COS-X integration done in                =    13.000 sec

----------------
TOTAL SCF ENERGY
----------------

Total Energy       :         -765.72432554 Eh          -20836.41820 eV

Components:
Nuclear Repulsion  :         1258.98729522 Eh           34258.78599 eV
Electronic Energy  :        -2024.71162077 Eh          -55095.20419 eV
One Electron Energy:        -3540.23439866 Eh          -96334.67555 eV
Two Electron Energy:         1515.52277789 Eh           41239.47136 eV
Max COSX asymmetry :            0.00000236 Eh               0.00006 eV
CPCM Dielectric    :           -0.01848196 Eh              -0.50292 eV

Virial components:
Potential Energy   :        -1526.93543338 Eh          -41550.02550 eV
Kinetic Energy     :          761.21110784 Eh           20713.60730 eV
Virial Ratio       :            2.00592900


DFT components:
N(Alpha)           :       63.000162534616 electrons
N(Beta)            :       63.000162534616 electrons
N(Total)           :      126.000325069233 electrons
E(X)               :      -82.266674334141 Eh       
E(C)               :       -5.011935046610 Eh       
E(XC)              :      -87.278609380752 Eh       
DFET-embed. en.    :        0.000000000000 Eh       
CPCM Solvation Model Properties:
Surface-charge          :           -0.02113219
Charge-correction       :           -0.00015645 Eh              -0.00426 eV
Free-energy (cav+disp)  :  This term is not implemented in the current solvation scheme

---------------
SCF CONVERGENCE
---------------

  Last Energy change         ...   -1.0741e-09  Tolerance :   1.0000e-08
  Last MAX-Density change    ...    4.8850e-15  Tolerance :   1.0000e-07
  Last RMS-Density change    ...    4.4502e-17  Tolerance :   5.0000e-09
  Last Orbital Gradient      ...    8.7648e-07  Tolerance :   1.0000e-05
  Last Orbital Rotation      ...    3.0001e-06  Tolerance :   1.0000e-05

             **** THE GBW FILE WAS UPDATED (Nf_octanol.gbw) ****
             **** DENSITY Nf_octanol.scfp WAS UPDATED ****
             **** ENERGY FILE WAS UPDATED (Nf_octanol.en.tmp) ****
             **** THE GBW FILE WAS UPDATED (Nf_octanol.gbw) ****
             **** DENSITY Nf_octanol.scfp WAS UPDATED ****
----------------
ORBITAL ENERGIES
----------------

  NO   OCC          E(Eh)            E(eV) 
   0   2.0000     -19.109412      -519.9935 
   1   2.0000     -19.108819      -519.9774 
   2   2.0000     -14.360377      -390.7657 
   3   2.0000     -14.359408      -390.7393 
   4   2.0000     -10.283773      -279.8357 
   5   2.0000     -10.283678      -279.8331 
   6   2.0000     -10.220700      -278.1194 
   7   2.0000     -10.207929      -277.7719 
   8   2.0000     -10.199941      -277.5545 
   9   2.0000     -10.195983      -277.4468 
  10   2.0000     -10.186757      -277.1957 
  11   2.0000     -10.180876      -277.0357 
  12   2.0000     -10.180461      -277.0244 
  13   2.0000     -10.180327      -277.0208 
  14   2.0000     -10.179934      -277.0101 
  15   2.0000     -10.176738      -276.9231 
  16   2.0000     -10.170533      -276.7543 
  17   2.0000      -1.032353       -28.0918 
  18   2.0000      -1.026665       -27.9370 
  19   2.0000      -0.935949       -25.4685 
  20   2.0000      -0.926461       -25.2103 
  21   2.0000      -0.850406       -23.1407 
  22   2.0000      -0.773304       -21.0427 
  23   2.0000      -0.743656       -20.2359 
  24   2.0000      -0.739720       -20.1288 
  25   2.0000      -0.731087       -19.8939 
  26   2.0000      -0.712285       -19.3822 
  27   2.0000      -0.681247       -18.5377 
  28   2.0000      -0.669154       -18.2086 
  29   2.0000      -0.601112       -16.3571 
  30   2.0000      -0.586068       -15.9477 
  31   2.0000      -0.560936       -15.2638 
  32   2.0000      -0.537309       -14.6209 
  33   2.0000      -0.511016       -13.9054 
  34   2.0000      -0.495478       -13.4826 
  35   2.0000      -0.489426       -13.3179 
  36   2.0000      -0.479038       -13.0353 
  37   2.0000      -0.463724       -12.6186 
  38   2.0000      -0.457327       -12.4445 
  39   2.0000      -0.453430       -12.3385 
  40   2.0000      -0.446441       -12.1483 
  41   2.0000      -0.440799       -11.9948 
  42   2.0000      -0.415200       -11.2982 
  43   2.0000      -0.414644       -11.2830 
  44   2.0000      -0.409229       -11.1357 
  45   2.0000      -0.403671       -10.9845 
  46   2.0000      -0.400271       -10.8919 
  47   2.0000      -0.396198       -10.7811 
  48   2.0000      -0.393809       -10.7161 
  49   2.0000      -0.390660       -10.6304 
  50   2.0000      -0.378133       -10.2895 
  51   2.0000      -0.377767       -10.2796 
  52   2.0000      -0.354985        -9.6596 
  53   2.0000      -0.353072        -9.6076 
  54   2.0000      -0.351316        -9.5598 
  55   2.0000      -0.337005        -9.1704 
  56   2.0000      -0.333997        -9.0885 
  57   2.0000      -0.257800        -7.0151 
  58   2.0000      -0.254407        -6.9228 
  59   2.0000      -0.249451        -6.7879 
  60   2.0000      -0.243089        -6.6148 
  61   2.0000      -0.238739        -6.4964 
  62   2.0000      -0.234093        -6.3700 
  63   0.0000      -0.004844        -0.1318 
  64   0.0000       0.000376         0.0102 
  65   0.0000       0.016637         0.4527 
  66   0.0000       0.022764         0.6194 
  67   0.0000       0.088868         2.4182 
  68   0.0000       0.102332         2.7846 
  69   0.0000       0.117624         3.2007 
  70   0.0000       0.135638         3.6909 
  71   0.0000       0.140752         3.8300 
  72   0.0000       0.142623         3.8810 
  73   0.0000       0.148911         4.0521 
  74   0.0000       0.152718         4.1557 
  75   0.0000       0.159425         4.3382 
  76   0.0000       0.166016         4.5175 
  77   0.0000       0.168890         4.5957 
  78   0.0000       0.172713         4.6998 
  79   0.0000       0.174475         4.7477 
  80   0.0000       0.178700         4.8627 
  81   0.0000       0.187739         5.1086 
  82   0.0000       0.192162         5.2290 
  83   0.0000       0.196432         5.3452 
  84   0.0000       0.201347         5.4789 
  85   0.0000       0.207811         5.6548 
  86   0.0000       0.211648         5.7592 
  87   0.0000       0.223261         6.0753 
  88   0.0000       0.227015         6.1774 
  89   0.0000       0.241914         6.5828 
  90   0.0000       0.256387         6.9766 
  91   0.0000       0.271551         7.3893 
  92   0.0000       0.291312         7.9270 
  93   0.0000       0.311037         8.4638 
  94   0.0000       0.316293         8.6068 
  95   0.0000       0.323716         8.8088 
  96   0.0000       0.338391         9.2081 
  97   0.0000       0.348807         9.4915 
  98   0.0000       0.368456        10.0262 
  99   0.0000       0.377839        10.2815 
 100   0.0000       0.406297        11.0559 
 101   0.0000       0.462850        12.5948 
 102   0.0000       0.475708        12.9447 
 103   0.0000       0.488552        13.2942 
 104   0.0000       0.503150        13.6914 
 105   0.0000       0.510625        13.8948 
 106   0.0000       0.531503        14.4629 
 107   0.0000       0.532622        14.4934 
 108   0.0000       0.543868        14.7994 
 109   0.0000       0.556296        15.1376 
 110   0.0000       0.559064        15.2129 
 111   0.0000       0.561767        15.2865 
 112   0.0000       0.570111        15.5135 
 113   0.0000       0.584739        15.9115 
 114   0.0000       0.596202        16.2235 
 115   0.0000       0.604462        16.4482 
 116   0.0000       0.616177        16.7670 
 117   0.0000       0.618543        16.8314 
 118   0.0000       0.622952        16.9514 
 119   0.0000       0.631095        17.1730 
 120   0.0000       0.640370        17.4254 
 121   0.0000       0.643848        17.5200 
 122   0.0000       0.649018        17.6607 
 123   0.0000       0.654380        17.8066 
 124   0.0000       0.663361        18.0510 
 125   0.0000       0.674109        18.3434 
 126   0.0000       0.684834        18.6353 
 127   0.0000       0.702218        19.1083 
 128   0.0000       0.707712        19.2578 
 129   0.0000       0.722017        19.6471 
 130   0.0000       0.728825        19.8323 
 131   0.0000       0.751352        20.4453 
 132   0.0000       0.769629        20.9427 
 133   0.0000       0.792691        21.5702 
 134   0.0000       0.802225        21.8296 
 135   0.0000       0.816451        22.2167 
 136   0.0000       0.824312        22.4307 
 137   0.0000       0.831787        22.6341 
 138   0.0000       0.839213        22.8361 
 139   0.0000       0.846217        23.0267 
 140   0.0000       0.851584        23.1728 
 141   0.0000       0.854226        23.2447 
 142   0.0000       0.862241        23.4628 
 143   0.0000       0.870851        23.6971 
 144   0.0000       0.875203        23.8155 
 145   0.0000       0.888465        24.1764 
 146   0.0000       0.894929        24.3523 
 147   0.0000       0.900704        24.5094 
 148   0.0000       0.910082        24.7646 
 149   0.0000       0.914522        24.8854 
 150   0.0000       0.928522        25.2664 
 151   0.0000       0.931026        25.3345 
 152   0.0000       0.939161        25.5559 
 153   0.0000       0.955127        25.9903 
 154   0.0000       0.966583        26.3021 
 155   0.0000       0.968589        26.3566 
 156   0.0000       0.976748        26.5787 
 157   0.0000       0.982219        26.7275 
 158   0.0000       0.988410        26.8960 
 159   0.0000       0.993813        27.0430 
 160   0.0000       1.012205        27.5435 
 161   0.0000       1.029843        28.0235 
 162   0.0000       1.055406        28.7191 
 163   0.0000       1.083998        29.4971 
 164   0.0000       1.086397        29.5624 
 165   0.0000       1.104797        30.0631 
 166   0.0000       1.110738        30.2247 
 167   0.0000       1.118983        30.4491 
 168   0.0000       1.148066        31.2405 
 169   0.0000       1.156783        31.4777 
 170   0.0000       1.178061        32.0567 
 171   0.0000       1.189525        32.3686 
 172   0.0000       1.202379        32.7184 
 173   0.0000       1.219997        33.1978 
 174   0.0000       1.252779        34.0899 
 175   0.0000       1.267494        34.4903 
 176   0.0000       1.286163        34.9983 
 177   0.0000       1.304471        35.4965 
 178   0.0000       1.349160        36.7125 
 179   0.0000       1.371465        37.3195 
 180   0.0000       1.380209        37.5574 
 181   0.0000       1.397152        38.0184 
 182   0.0000       1.422278        38.7021 
 183   0.0000       1.426980        38.8301 
 184   0.0000       1.441206        39.2172 
 185   0.0000       1.453202        39.5436 
 186   0.0000       1.457758        39.6676 
 187   0.0000       1.478106        40.2213 
 188   0.0000       1.483864        40.3780 
 189   0.0000       1.498856        40.7860 
 190   0.0000       1.508062        41.0364 
 191   0.0000       1.518918        41.3319 
 192   0.0000       1.547641        42.1135 
 193   0.0000       1.557656        42.3860 
 194   0.0000       1.605898        43.6987 
 195   0.0000       1.631322        44.3905 
 196   0.0000       1.661066        45.1999 
 197   0.0000       1.710969        46.5578 
 198   0.0000       1.742113        47.4053 
 199   0.0000       1.750332        47.6290 
 200   0.0000       1.770565        48.1795 
 201   0.0000       1.789464        48.6938 
 202   0.0000       1.804968        49.1157 
 203   0.0000       1.814256        49.3684 
 204   0.0000       1.825268        49.6681 
 205   0.0000       1.830952        49.8227 
 206   0.0000       1.844662        50.1958 
 207   0.0000       1.865436        50.7611 
 208   0.0000       1.892379        51.4943 
 209   0.0000       1.903944        51.8089 
 210   0.0000       1.913057        52.0569 
 211   0.0000       1.920356        52.2555 
 212   0.0000       1.930226        52.5241 
 213   0.0000       1.955639        53.2156 
 214   0.0000       1.964194        53.4484 
 215   0.0000       1.985675        54.0330 
 216   0.0000       1.988789        54.1177 
 217   0.0000       1.993615        54.2490 
 218   0.0000       2.002374        54.4874 
 219   0.0000       2.012571        54.7649 
 220   0.0000       2.026329        55.1392 
 221   0.0000       2.045820        55.6696 
 222   0.0000       2.062822        56.1323 
 223   0.0000       2.073615        56.4259 
 224   0.0000       2.094225        56.9868 
 225   0.0000       2.100172        57.1486 
 226   0.0000       2.113848        57.5207 
 227   0.0000       2.122862        57.7660 
 228   0.0000       2.136790        58.1450 
 229   0.0000       2.150395        58.5152 
 230   0.0000       2.171712        59.0953 
 231   0.0000       2.176783        59.2333 
 232   0.0000       2.212244        60.1982 
 233   0.0000       2.235793        60.8390 
 234   0.0000       2.248980        61.1979 
 235   0.0000       2.260058        61.4993 
 236   0.0000       2.268031        61.7162 
 237   0.0000       2.288249        62.2664 
 238   0.0000       2.307474        62.7896 
 239   0.0000       2.316296        63.0296 
 240   0.0000       2.327896        63.3453 
 241   0.0000       2.338296        63.6283 
 242   0.0000       2.359596        64.2079 
 243   0.0000       2.376045        64.6555 
 244   0.0000       2.398284        65.2606 
 245   0.0000       2.416403        65.7537 
 246   0.0000       2.432554        66.1931 
 247   0.0000       2.464713        67.0682 
 248   0.0000       2.485207        67.6259 
 249   0.0000       2.499196        68.0066 
 250   0.0000       2.572833        70.0103 
 251   0.0000       2.574580        70.0579 
 252   0.0000       2.582728        70.2796 
 253   0.0000       2.594061        70.5880 
 254   0.0000       2.626425        71.4686 
 255   0.0000       2.634008        71.6750 
 256   0.0000       2.649211        72.0887 
 257   0.0000       2.667116        72.5759 
 258   0.0000       2.686187        73.0949 
 259   0.0000       2.726600        74.1946 
 260   0.0000       2.731999        74.3415 
 261   0.0000       2.747160        74.7540 
 262   0.0000       2.753054        74.9144 
 263   0.0000       2.757889        75.0460 
 264   0.0000       2.793915        76.0263 
 265   0.0000       2.884095        78.4802 
 266   0.0000       2.914844        79.3169 
 267   0.0000       2.967299        80.7443 
 268   0.0000       3.003264        81.7230 
 269   0.0000       3.032662        82.5229 
 270   0.0000       3.063890        83.3727 
 271   0.0000       3.166464        86.1639 
 272   0.0000       3.184701        86.6601 
 273   0.0000       3.415048        92.9282 

                    ********************************
                    * MULLIKEN POPULATION ANALYSIS *
                    ********************************

-----------------------
MULLIKEN ATOMIC CHARGES
-----------------------
   0 C :   -0.567726
   1 H :    0.191750
   2 H :    0.182483
   3 H :    0.201493
   4 C :    0.534358
   5 N :   -0.370320
   6 C :   -0.253639
   7 H :    0.187451
   8 H :    0.172970
   9 C :    0.146419
  10 C :   -0.178308
  11 C :   -0.199004
  12 C :   -0.148860
  13 H :    0.154252
  14 C :   -0.145423
  15 H :    0.149966
  16 C :   -0.146475
  17 H :    0.150081
  18 H :    0.150692
  19 H :    0.149700
  20 C :   -0.253560
  21 H :    0.187545
  22 H :    0.204666
  23 C :    0.520937
  24 N :   -0.359096
  25 O :   -0.537290
  26 O :   -0.528646
  27 C :   -0.334222
  28 H :    0.173747
  29 H :    0.172878
  30 H :    0.191860
  31 C :   -0.332126
  32 H :    0.172117
  33 H :    0.171434
  34 H :    0.187898
Sum of atomic charges:   -0.0000000

--------------------------------
MULLIKEN REDUCED ORBITAL CHARGES
--------------------------------
  0 C s       :     3.324747  s :     3.324747
      pz      :     1.107554  p :     3.210979
      px      :     0.987273
      py      :     1.116153
      dz2     :     0.003942  d :     0.032000
      dxz     :     0.007189
      dyz     :     0.008371
      dx2y2   :     0.009308
      dxy     :     0.003191
  1 H s       :     0.808250  s :     0.808250
  2 H s       :     0.817517  s :     0.817517
  3 H s       :     0.798507  s :     0.798507
  4 C s       :     2.983976  s :     2.983976
      pz      :     0.773900  p :     2.373952
      px      :     0.829828
      py      :     0.770224
      dz2     :     0.025541  d :     0.107714
      dxz     :     0.018018
      dyz     :     0.018751
      dx2y2   :     0.024508
      dxy     :     0.020896
  5 N s       :     3.537399  s :     3.537399
      pz      :     1.296019  p :     3.796800
      px      :     1.161622
      py      :     1.339159
      dz2     :     0.006331  d :     0.036121
      dxz     :     0.008280
      dyz     :     0.006497
      dx2y2   :     0.006667
      dxy     :     0.008346
  6 C s       :     3.249943  s :     3.249943
      pz      :     1.063478  p :     2.949754
      px      :     0.813950
      py      :     1.072326
      dz2     :     0.014395  d :     0.053942
      dxz     :     0.008210
      dyz     :     0.004958
      dx2y2   :     0.015592
      dxy     :     0.010787
  7 H s       :     0.812549  s :     0.812549
  8 H s       :     0.827030  s :     0.827030
  9 C s       :     3.133758  s :     3.133758
      pz      :     0.866605  p :     2.679412
      px      :     0.907676
      py      :     0.905131
      dz2     :     0.010509  d :     0.040411
      dxz     :     0.009265
      dyz     :     0.009069
      dx2y2   :     0.005458
      dxy     :     0.006109
 10 C s       :     3.207511  s :     3.207511
      pz      :     0.979396  p :     2.934806
      px      :     0.969961
      py      :     0.985449
      dz2     :     0.008297  d :     0.035991
      dxz     :     0.008252
      dyz     :     0.009853
      dx2y2   :     0.004179
      dxy     :     0.005410
 11 C s       :     3.208092  s :     3.208092
      pz      :     0.995713  p :     2.954713
      px      :     0.984116
      py      :     0.974885
      dz2     :     0.011341  d :     0.036199
      dxz     :     0.006631
      dyz     :     0.006489
      dx2y2   :     0.006301
      dxy     :     0.005435
 12 C s       :     3.201437  s :     3.201437
      pz      :     0.993857  p :     2.911192
      px      :     0.966562
      py      :     0.950773
      dz2     :     0.011200  d :     0.036231
      dxz     :     0.006746
      dyz     :     0.006517
      dx2y2   :     0.006257
      dxy     :     0.005510
 13 H s       :     0.845748  s :     0.845748
 14 C s       :     3.198548  s :     3.198548
      pz      :     0.951483  p :     2.910714
      px      :     0.973768
      py      :     0.985463
      dz2     :     0.008135  d :     0.036161
      dxz     :     0.008289
      dyz     :     0.010252
      dx2y2   :     0.004178
      dxy     :     0.005308
 15 H s       :     0.850034  s :     0.850034
 16 C s       :     3.197191  s :     3.197191
      pz      :     0.941775  p :     2.913214
      px      :     0.990320
      py      :     0.981119
      dz2     :     0.009414  d :     0.036070
      dxz     :     0.008284
      dyz     :     0.008917
      dx2y2   :     0.002860
      dxy     :     0.006595
 17 H s       :     0.849919  s :     0.849919
 18 H s       :     0.849308  s :     0.849308
 19 H s       :     0.850300  s :     0.850300
 20 C s       :     3.245505  s :     3.245505
      pz      :     0.981211  p :     2.955925
      px      :     1.032173
      py      :     0.942541
      dz2     :     0.006630  d :     0.052131
      dxz     :     0.013530
      dyz     :     0.012218
      dx2y2   :     0.005854
      dxy     :     0.013898
 21 H s       :     0.812455  s :     0.812455
 22 H s       :     0.795334  s :     0.795334
 23 C s       :     2.983643  s :     2.983643
      pz      :     0.779631  p :     2.387074
      px      :     0.784180
      py      :     0.823262
      dz2     :     0.021952  d :     0.108346
      dxz     :     0.026948
      dyz     :     0.011900
      dx2y2   :     0.018089
      dxy     :     0.029457
 24 N s       :     3.530707  s :     3.530707
      pz      :     1.290260  p :     3.790942
      px      :     1.121374
      py      :     1.379308
      dz2     :     0.007600  d :     0.037448
      dxz     :     0.008622
      dyz     :     0.005448
      dx2y2   :     0.007996
      dxy     :     0.007782
 25 O s       :     3.860126  s :     3.860126
      pz      :     1.609828  p :     4.651828
      px      :     1.383496
      py      :     1.658504
[...]
     68      -0.000471  -0.004019   0.000707
     69       0.000028  -0.000346  -0.000006
     70      -0.000003   0.000349  -0.000004
     71       0.000006  -0.000028   0.000010
     72      -0.000021   0.000505  -0.000017
     73       0.000004   0.000075  -0.000016
     74      -0.000002  -0.000042  -0.000015
     75      -0.000015   0.000006   0.000017
     76       0.000005  -0.000113   0.000002
     77      -0.000000  -0.000091   0.000005
     78      -0.000186  -0.000063  -0.000195
     79      -0.000112   0.000078  -0.000078
     80       0.000016  -0.000071  -0.000016
     81       0.001255  -0.047291   0.002697
     82      -0.001005   0.028321  -0.001652
     83      -0.001712   0.070150  -0.003780
     84       0.000349  -0.020129   0.000934
     85      -0.001144   0.104677  -0.004633
     86       0.000589  -0.110427   0.004553
     87       0.001328  -0.041948   0.002281
     88       0.006402  -0.182545   0.009684
     89       0.001616  -0.044018   0.002208
     90      -0.016339   0.619431  -0.035327
     91       0.007000  -0.271776   0.015611
     92       0.018255  -0.684482   0.038598
     93       0.000137  -0.002345   0.000071
     94       0.000032  -0.001079   0.000062
     95       0.000069  -0.001487   0.000070
     96      -0.000053   0.001985  -0.000116
     97      -0.000110   0.005067  -0.000346
     98       0.000044  -0.000942   0.000039
     99      -0.000008   0.000689  -0.000029
    100       0.000072  -0.001757   0.000093
    101      -0.000216   0.006110  -0.000406
    102      -0.001717   0.031057  -0.000985
    103      -0.000259   0.004794  -0.000165
    104      -0.000702   0.012828  -0.000424


-----------
IR SPECTRUM
-----------

 Mode   freq       eps      Int      T**2         TX        TY        TZ
       cm**-1   L/(mol*cm) km/mol    a.u.
----------------------------------------------------------------------------
  6:     31.28   0.000501    2.53  0.004995  ( 0.014650 -0.031045  0.061778)
  7:     47.83   0.000328    1.66  0.002138  (-0.032773 -0.025951  0.019767)
  8:     51.04   0.000073    0.37  0.000443  ( 0.016510  0.012466 -0.003913)
  9:     71.91   0.000390    1.97  0.001693  ( 0.027840  0.002471 -0.030191)
 10:     76.15   0.001401    7.08  0.005741  (-0.005530 -0.067662 -0.033651)
 11:     94.50   0.001375    6.95  0.004540  (-0.007532 -0.057011 -0.035111)
 12:     98.62   0.000362    1.83  0.001145  ( 0.015171  0.027783 -0.011938)
 13:    123.21   0.000434    2.19  0.001100  ( 0.021285 -0.009970  0.023392)
 14:    156.34   0.001158    5.85  0.002312  (-0.026258 -0.040275 -0.000513)
 15:    184.49   0.000306    1.54  0.000517  (-0.008414 -0.016605 -0.013057)
 16:    190.42   0.001171    5.92  0.001919  (-0.037899 -0.012679  0.017930)
 17:    213.11   0.000025    0.13  0.000037  (-0.003213  0.002984 -0.004160)
 18:    236.08   0.000590    2.98  0.000781  ( 0.018257  0.008404 -0.019405)
 19:    247.31   0.001896    9.58  0.002393  ( 0.007317  0.044795 -0.018240)
 20:    290.57   0.000598    3.02  0.000642  (-0.011796 -0.008278  0.020851)
 21:    321.48   0.001996   10.09  0.001938  ( 0.017434  0.029880  0.027223)
 22:    327.36   0.000438    2.21  0.000418  (-0.000074 -0.020180 -0.003249)
 23:    408.09   0.000994    5.02  0.000760  ( 0.011032  0.021283 -0.013623)
 24:    409.40   0.001477    7.46  0.001126  ( 0.005511 -0.021148 -0.025463)
 25:    418.81   0.000065    0.33  0.000048  ( 0.006220  0.002962  0.000834)
 26:    451.52   0.001028    5.19  0.000710  (-0.022042  0.005378  0.013986)
 27:    464.47   0.000968    4.89  0.000650  ( 0.017545 -0.007353 -0.016978)
 28:    521.07   0.005389   27.24  0.003228  ( 0.049074 -0.003154 -0.028451)
 29:    575.26   0.004988   25.21  0.002706  ( 0.012866 -0.027954  0.041937)
 30:    588.35   0.001750    8.84  0.000928  (-0.027516  0.013069  0.000279)
 31:    611.34   0.000273    1.38  0.000139  (-0.010731 -0.002136  0.004403)
 32:    623.90   0.010221   51.65  0.005112  (-0.012160 -0.066379 -0.023630)
 33:    634.36   0.000078    0.40  0.000039  ( 0.001338 -0.001485 -0.005881)
 34:    692.02   0.001448    7.32  0.000653  ( 0.025202  0.000150  0.004229)
 35:    719.84   0.011436   57.79  0.004957  (-0.051447  0.045834  0.014491)
 36:    753.72   0.002528   12.78  0.001047  (-0.023435 -0.021208 -0.006906)
 37:    775.13   0.005449   27.53  0.002194  (-0.014961  0.042347  0.013283)
 38:    806.99   0.002259   11.42  0.000874  (-0.026747 -0.012239 -0.002907)
 39:    834.33   0.003130   15.82  0.001171  (-0.027752 -0.017167 -0.010288)
 40:    870.66   0.000006    0.03  0.000002  (-0.000288 -0.001435 -0.000020)
 41:    931.70   0.000660    3.33  0.000221  (-0.013137 -0.001870  0.006701)
 42:    953.50   0.002284   11.54  0.000748  (-0.020924  0.014778 -0.009557)
 43:    977.70   0.000945    4.77  0.000302  (-0.012332  0.009386  0.007834)
 44:    983.20   0.000041    0.21  0.000013  (-0.002648 -0.000295 -0.002416)
 45:   1006.42   0.008641   43.67  0.002679  (-0.014298 -0.035358 -0.034995)
 46:   1008.14   0.000147    0.74  0.000045  ( 0.006655 -0.000764  0.000736)
 47:   1016.40   0.000122    0.62  0.000038  ( 0.005463  0.002483  0.001235)
 48:   1017.85   0.006497   32.83  0.001992  ( 0.004864  0.027273 -0.034992)
 49:   1055.60   0.001290    6.52  0.000381  ( 0.015168  0.011925  0.002992)
 50:   1062.72   0.002646   13.37  0.000777  ( 0.001186  0.022794  0.016004)
 51:   1090.64   0.001673    8.45  0.000479  (-0.020139 -0.001399  0.008428)
 52:   1091.22   0.002443   12.35  0.000699  (-0.008146  0.015372 -0.019899)
 53:   1120.70   0.002015   10.19  0.000561  ( 0.010635 -0.012342  0.017199)
 54:   1135.65   0.000592    2.99  0.000163  (-0.010905 -0.001243 -0.006495)
 55:   1178.52   0.002017   10.20  0.000534  (-0.013366 -0.015551 -0.010664)
 56:   1183.37   0.000036    0.18  0.000009  (-0.000465  0.001605  0.002565)
 57:   1191.16   0.010102   51.05  0.002647  ( 0.045626 -0.019303 -0.013871)
 58:   1197.01   0.017602   88.95  0.004589  ( 0.031785  0.037368  0.046713)
 59:   1204.96   0.000021    0.11  0.000005  ( 0.000209 -0.000060  0.002321)
 60:   1237.99   0.001565    7.91  0.000395  (-0.017527 -0.002115 -0.009104)
 61:   1278.99   0.027281  137.87  0.006656  (-0.061142 -0.039688  0.036645)
 62:   1292.33   0.014553   73.55  0.003514  ( 0.037369 -0.033895 -0.031128)
 63:   1312.05   0.013761   69.54  0.003273  ( 0.016456  0.034305 -0.042724)
 64:   1349.92   0.017996   90.95  0.004160  (-0.006769 -0.033742  0.054551)
 65:   1363.45   0.001407    7.11  0.000322  ( 0.008419 -0.007299  0.014070)
 66:   1377.47   0.001815    9.17  0.000411  ( 0.004863 -0.016678  0.010456)
 67:   1400.50   0.010306   52.08  0.002296  (-0.030264 -0.034301  0.014283)
 68:   1415.26   0.003357   16.97  0.000740  ( 0.022575 -0.004250 -0.014580)
 69:   1441.54   0.015746   79.57  0.003409  (-0.023030 -0.036891 -0.038953)
 70:   1457.03   0.019229   97.17  0.004118  ( 0.020818 -0.015754 -0.058624)
 71:   1466.79   0.020818  105.20  0.004429  (-0.015547 -0.060443  0.023107)
 72:   1486.27   0.003828   19.34  0.000804  (-0.019365 -0.017327  0.011334)
 73:   1493.92   0.001410    7.13  0.000295  (-0.015203  0.004901 -0.006282)
 74:   1499.31   0.002405   12.15  0.000500  ( 0.014653 -0.005880 -0.015849)
 75:   1501.62   0.002078   10.50  0.000432  (-0.009316  0.012685 -0.013567)
 76:   1505.59   0.004133   20.89  0.000857  ( 0.015663 -0.017116 -0.017843)
 77:   1508.71   0.005349   27.03  0.001106  ( 0.025849  0.020234  0.005374)
 78:   1516.65   0.004773   24.12  0.000982  ( 0.023018 -0.021196  0.001716)
 79:   1517.64   0.004983   25.18  0.001025  (-0.021725 -0.014513  0.018492)
 80:   1531.60   0.013416   67.80  0.002733  ( 0.030848  0.014683 -0.039576)
 81:   1542.66   0.004320   21.83  0.000874  ( 0.024782  0.015837  0.002992)
 82:   1554.64   0.014971   75.66  0.003005  (-0.011206  0.038840  0.037028)
 83:   1641.82   0.000553    2.80  0.000105  ( 0.002112 -0.007230  0.006958)
 84:   1661.28   0.000559    2.82  0.000105  (-0.009748 -0.003009 -0.000957)
 85:   1709.75   0.109085  551.27  0.019910  ( 0.057895 -0.088228  0.093670)
 86:   1717.62   0.098245  496.49  0.017850  (-0.105452 -0.046788 -0.067381)
 87:   3043.80   0.008372   42.31  0.000858  (-0.015549  0.021290  0.012777)
 88:   3051.47   0.012725   64.31  0.001301  (-0.015899 -0.010301 -0.030699)
 89:   3063.51   0.003448   17.42  0.000351  ( 0.011145 -0.007016  0.013334)
 90:   3069.97   0.000554    2.80  0.000056  (-0.006538 -0.000490  0.003646)
 91:   3075.74   0.011171   56.45  0.001133  ( 0.000113 -0.010489 -0.031991)
 92:   3096.97   0.009570   48.36  0.000964  ( 0.004840  0.025352 -0.017267)
 93:   3108.15   0.002835   14.33  0.000285  ( 0.009833  0.011928  0.006758)
 94:   3110.24   0.004506   22.77  0.000452  ( 0.001079 -0.020996  0.003186)
 95:   3140.67   0.002039   10.30  0.000203  ( 0.007887  0.010586  0.005321)
 96:   3150.00   0.001068    5.40  0.000106  ( 0.008624 -0.005213  0.002064)
 97:   3169.39   0.001987   10.04  0.000196  ( 0.000152 -0.009832  0.009945)
 98:   3180.35   0.001817    9.18  0.000178  (-0.006862 -0.004035 -0.010720)
 99:   3187.87   0.000429    2.17  0.000042  ( 0.003913  0.004699  0.002143)
100:   3195.67   0.000816    4.12  0.000080  ( 0.008840 -0.001217  0.000139)
101:   3197.12   0.006656   33.63  0.000650  (-0.004932  0.001766 -0.024944)
102:   3207.22   0.006057   30.61  0.000589  (-0.014163 -0.017325  0.009411)
103:   3211.19   0.001171    5.92  0.000114  ( 0.001183 -0.000065  0.010602)
104:   3214.00   0.002746   13.88  0.000267  ( 0.011442  0.004690  0.010664)

* The epsilon (eps) is given for a Dirac delta lineshape.
** The dipole moment derivative (T) already includes vibrational overlap.

The first frequency considered to be a vibration is 6
The total number of vibrations considered is 99


--------------------------
THERMOCHEMISTRY AT 298.15K
--------------------------

Temperature         ... 298.15 K
Pressure            ... 1.00 atm
Total Mass          ... 234.30 AMU

Throughout the following assumptions are being made:
  (1) The electronic state is orbitally nondegenerate
  (2) There are no thermally accessible electronically excited states
  (3) Hindered rotations indicated by low frequency modes are not
      treated as such but are treated as vibrations and this may
      cause some error
  (4) All equations used are the standard statistical mechanics
      equations for an ideal gas
  (5) All vibrations are strictly harmonic

freq.      31.28  E(vib)   ...       0.55 
freq.      47.83  E(vib)   ...       0.53 
freq.      51.04  E(vib)   ...       0.52 
freq.      71.91  E(vib)   ...       0.50 
freq.      76.15  E(vib)   ...       0.49 
freq.      94.50  E(vib)   ...       0.47 
freq.      98.62  E(vib)   ...       0.46 
freq.     123.21  E(vib)   ...       0.43 
freq.     156.34  E(vib)   ...       0.40 
freq.     184.49  E(vib)   ...       0.37 
freq.     190.42  E(vib)   ...       0.36 
freq.     213.11  E(vib)   ...       0.34 
freq.     236.08  E(vib)   ...       0.32 
freq.     247.31  E(vib)   ...       0.31 
freq.     290.57  E(vib)   ...       0.27 
freq.     321.48  E(vib)   ...       0.25 
freq.     327.36  E(vib)   ...       0.24 
freq.     408.09  E(vib)   ...       0.19 
freq.     409.40  E(vib)   ...       0.19 
freq.     418.81  E(vib)   ...       0.18 
freq.     451.52  E(vib)   ...       0.16 
freq.     464.47  E(vib)   ...       0.16 
freq.     521.07  E(vib)   ...       0.13 
freq.     575.26  E(vib)   ...       0.11 
freq.     588.35  E(vib)   ...       0.10 
freq.     611.34  E(vib)   ...       0.10 
freq.     623.90  E(vib)   ...       0.09 
freq.     634.36  E(vib)   ...       0.09 
freq.     692.02  E(vib)   ...       0.07 
freq.     719.84  E(vib)   ...       0.07 
freq.     753.72  E(vib)   ...       0.06 
freq.     775.13  E(vib)   ...       0.05 
freq.     806.99  E(vib)   ...       0.05 
freq.     834.33  E(vib)   ...       0.04 
freq.     870.66  E(vib)   ...       0.04 
freq.     931.70  E(vib)   ...       0.03 
freq.     953.50  E(vib)   ...       0.03 
freq.     977.70  E(vib)   ...       0.03 
freq.     983.20  E(vib)   ...       0.02 
freq.    1006.42  E(vib)   ...       0.02 
freq.    1008.14  E(vib)   ...       0.02 
freq.    1016.40  E(vib)   ...       0.02 
freq.    1017.85  E(vib)   ...       0.02 
freq.    1055.60  E(vib)   ...       0.02 
freq.    1062.72  E(vib)   ...       0.02 
freq.    1090.64  E(vib)   ...       0.02 
freq.    1091.22  E(vib)   ...       0.02 
freq.    1120.70  E(vib)   ...       0.01 
freq.    1135.65  E(vib)   ...       0.01 
freq.    1178.52  E(vib)   ...       0.01 
freq.    1183.37  E(vib)   ...       0.01 
freq.    1191.16  E(vib)   ...       0.01 
freq.    1197.01  E(vib)   ...       0.01 
freq.    1204.96  E(vib)   ...       0.01 
freq.    1237.99  E(vib)   ...       0.01 
freq.    1278.99  E(vib)   ...       0.01 
freq.    1292.33  E(vib)   ...       0.01 
freq.    1312.05  E(vib)   ...       0.01 
freq.    1349.92  E(vib)   ...       0.01 
freq.    1363.45  E(vib)   ...       0.01 
freq.    1377.47  E(vib)   ...       0.01 
freq.    1400.50  E(vib)   ...       0.00 
freq.    1415.26  E(vib)   ...       0.00 
freq.    1441.54  E(vib)   ...       0.00 
freq.    1457.03  E(vib)   ...       0.00 
freq.    1466.79  E(vib)   ...       0.00 
freq.    1486.27  E(vib)   ...       0.00 
freq.    1493.92  E(vib)   ...       0.00 
freq.    1499.31  E(vib)   ...       0.00 
freq.    1501.62  E(vib)   ...       0.00 
freq.    1505.59  E(vib)   ...       0.00 
freq.    1508.71  E(vib)   ...       0.00 
freq.    1516.65  E(vib)   ...       0.00 
freq.    1517.64  E(vib)   ...       0.00 
freq.    1531.60  E(vib)   ...       0.00 
freq.    1542.66  E(vib)   ...       0.00 
freq.    1554.64  E(vib)   ...       0.00 
freq.    1641.82  E(vib)   ...       0.00 
freq.    1661.28  E(vib)   ...       0.00 
freq.    1709.75  E(vib)   ...       0.00 
freq.    1717.62  E(vib)   ...       0.00 
freq.    3043.80  E(vib)   ...       0.00 
freq.    3051.47  E(vib)   ...       0.00 
freq.    3063.51  E(vib)   ...       0.00 
freq.    3069.97  E(vib)   ...       0.00 
freq.    3075.74  E(vib)   ...       0.00 
freq.    3096.97  E(vib)   ...       0.00 
freq.    3108.15  E(vib)   ...       0.00 
freq.    3110.24  E(vib)   ...       0.00 
freq.    3140.67  E(vib)   ...       0.00 
freq.    3150.00  E(vib)   ...       0.00 
freq.    3169.39  E(vib)   ...       0.00 
freq.    3180.35  E(vib)   ...       0.00 
freq.    3187.87  E(vib)   ...       0.00 
freq.    3195.67  E(vib)   ...       0.00 
freq.    3197.12  E(vib)   ...       0.00 
freq.    3207.22  E(vib)   ...       0.00 
freq.    3211.19  E(vib)   ...       0.00 
freq.    3214.00  E(vib)   ...       0.00 

------------
INNER ENERGY
------------

The inner energy is: U= E(el) + E(ZPE) + E(vib) + E(rot) + E(trans)
    E(el)   - is the total energy from the electronic structure calculation
              = E(kin-el) + E(nuc-el) + E(el-el) + E(nuc-nuc)
    E(ZPE)  - the the zero temperature vibrational energy from the frequency calculation
    E(vib)  - the the finite temperature correction to E(ZPE) due to population
              of excited vibrational states
    E(rot)  - is the rotational thermal energy
    E(trans)- is the translational thermal energy

Summary of contributions to the inner energy U:
Electronic energy                ...   -765.79411284 Eh
Zero point energy                ...      0.29749044 Eh     186.68 kcal/mol
Thermal vibrational correction   ...      0.01456280 Eh       9.14 kcal/mol
Thermal rotational correction    ...      0.00141627 Eh       0.89 kcal/mol
Thermal translational correction ...      0.00141627 Eh       0.89 kcal/mol
-----------------------------------------------------------------------
Total thermal energy                   -765.47922705 Eh


Summary of corrections to the electronic energy:
(perhaps to be used in another calculation)
Total thermal correction                  0.01739535 Eh      10.92 kcal/mol
Non-thermal (ZPE) correction              0.29749044 Eh     186.68 kcal/mol
-----------------------------------------------------------------------
Total correction                          0.31488579 Eh     197.59 kcal/mol


--------
ENTHALPY
--------

The enthalpy is H = U + kB*T
                kB is Boltzmann's constant
Total free energy                 ...   -765.47922705 Eh 
Thermal Enthalpy correction       ...      0.00094421 Eh       0.59 kcal/mol
-----------------------------------------------------------------------
Total Enthalpy                    ...   -765.47828284 Eh


Note: Only C1 symmetry has been detected, increase convergence thresholds 
      if your molecule has a higher symmetry. Symmetry factor of 1.0 is   
      used for the rotational entropy correction. 
 

Note: Rotational entropy computed according to Herzberg 
Infrared and Raman Spectra, Chapter V,1, Van Nostrand Reinhold, 1945 
Point Group:  C1, Symmetry Number:   1  
Rotational constants in cm-1:     0.023186     0.011350     0.009612 

Vibrational entropy computed according to the QRRHO of S. Grimme
Chem.Eur.J. 2012 18 9955


-------
ENTROPY
-------

The entropy contributions are T*S = T*(S(el)+S(vib)+S(rot)+S(trans))
     S(el)   - electronic entropy
     S(vib)  - vibrational entropy
     S(rot)  - rotational entropy
     S(trans)- translational entropy
The entropies will be listed as multiplied by the temperature to get
units of energy

Electronic entropy                ...      0.00000000 Eh      0.00 kcal/mol
Vibrational entropy               ...      0.02593270 Eh     16.27 kcal/mol
Rotational entropy                ...      0.01559489 Eh      9.79 kcal/mol
Translational entropy             ...      0.02007710 Eh     12.60 kcal/mol
-----------------------------------------------------------------------
Final entropy term                ...      0.06160468 Eh     38.66 kcal/mol

In case the symmetry of your molecule has not been determined correctly
or in case you have a reason to use a different symmetry number we print 
out the resulting rotational entropy values for sn=1,12 :
 --------------------------------------------------------
|  sn= 1 | S(rot)=       0.01559489 Eh      9.79 kcal/mol|
|  sn= 2 | S(rot)=       0.01494043 Eh      9.38 kcal/mol|
|  sn= 3 | S(rot)=       0.01455760 Eh      9.14 kcal/mol|
|  sn= 4 | S(rot)=       0.01428597 Eh      8.96 kcal/mol|
|  sn= 5 | S(rot)=       0.01407529 Eh      8.83 kcal/mol|
|  sn= 6 | S(rot)=       0.01390314 Eh      8.72 kcal/mol|
|  sn= 7 | S(rot)=       0.01375759 Eh      8.63 kcal/mol|
|  sn= 8 | S(rot)=       0.01363152 Eh      8.55 kcal/mol|
|  sn= 9 | S(rot)=       0.01352031 Eh      8.48 kcal/mol|
|  sn=10 | S(rot)=       0.01342083 Eh      8.42 kcal/mol|
|  sn=11 | S(rot)=       0.01333084 Eh      8.37 kcal/mol|
|  sn=12 | S(rot)=       0.01324868 Eh      8.31 kcal/mol|
 --------------------------------------------------------


-------------------
GIBBS FREE ENERGY
-------------------

The Gibbs free energy is G = H - T*S

Total enthalpy                    ...   -765.47828284 Eh 
Total entropy correction          ...     -0.06160468 Eh    -38.66 kcal/mol
-----------------------------------------------------------------------
Final Gibbs free energy         ...   -765.53988751 Eh

For completeness - the Gibbs free energy minus the electronic energy
G-E(el)                           ...      0.25422532 Eh    159.53 kcal/mol


Timings for individual modules:

Sum of individual times         ...     2001.995 sec (=  33.367 min)
GTO integral calculation        ...       17.278 sec (=   0.288 min)   0.9 %
SCF iterations                  ...      822.982 sec (=  13.716 min)  41.1 %
SCF Gradient evaluation         ...      243.521 sec (=   4.059 min)  12.2 %
Geometry relaxation             ...        1.141 sec (=   0.019 min)   0.1 %
Analytical frequency calculation...      917.074 sec (=  15.285 min)  45.8 %
                             ****ORCA TERMINATED NORMALLY****
TOTAL RUN TIME: 0 days 0 hours 33 minutes 26 seconds 693 msec
