
                                 *****************
                                 * O   R   C   A *
                                 *****************

                                            #,                                       
                                            ###                                      
                                            ####                                     
                                            #####                                    
                                            ######                                   
                                           ########,                                 
                                     ,,################,,,,,                         
                               ,,#################################,,                 
                          ,,##########################################,,             
                       ,#########################################, ''#####,          
                    ,#############################################,,   '####,        
                  ,##################################################,,,,####,       
                ,###########''''           ''''###############################       
              ,#####''   ,,,,##########,,,,          '''####'''          '####       
            ,##' ,,,,###########################,,,                        '##       
           ' ,,###''''                  '''############,,,                           
         ,,##''                                '''############,,,,        ,,,,,,###''
      ,#''                                            '''#######################'''  
     '                                                          ''''####''''         
             ,#######,   #######,   ,#######,      ##                                
            ,#'     '#,  ##    ##  ,#'     '#,    #''#        ######   ,####,        
            ##       ##  ##   ,#'  ##            #'  '#       #        #'  '#        
            ##       ##  #######   ##           ,######,      #####,   #    #        
            '#,     ,#'  ##    ##  '#,     ,#' ,#      #,         ##   #,  ,#        
             '#######'   ##     ##  '#######'  #'      '#     #####' # '####'        



                  #######################################################
                  #                        -***-                        #
                  #          Department of theory and spectroscopy      #
                  #    Directorship and core code : Frank Neese         #
                  #        Max Planck Institute fuer Kohlenforschung    #
                  #                Kaiser Wilhelm Platz 1               #
                  #                 D-45470 Muelheim/Ruhr               #
                  #                      Germany                        #
                  #                                                     #
                  #                  All rights reserved                #
                  #                        -***-                        #
                  #######################################################


                         Program Version 5.0.4 -  RELEASE  -


 With contributions from (in alphabetic order):
   Daniel Aravena         : Magnetic Suceptibility
   Michael Atanasov       : Ab Initio Ligand Field Theory (pilot matlab implementation)
   Alexander A. Auer      : GIAO ZORA, VPT2 properties, NMR spectrum
   Ute Becker             : Parallelization
   Giovanni Bistoni       : ED, misc. LED, open-shell LED, HFLD
   Martin Brehm           : Molecular dynamics
   Dmytro Bykov           : SCF Hessian
   Vijay G. Chilkuri      : MRCI spin determinant printing, contributions to CSF-ICE
   Dipayan Datta          : RHF DLPNO-CCSD density
   Achintya Kumar Dutta   : EOM-CC, STEOM-CC
   Dmitry Ganyushin       : Spin-Orbit,Spin-Spin,Magnetic field MRCI
   Miquel Garcia          : C-PCM and meta-GGA Hessian, CC/C-PCM, Gaussian charge scheme
   Yang Guo               : DLPNO-NEVPT2, F12-NEVPT2, CIM, IAO-localization
   Andreas Hansen         : Spin unrestricted coupled pair/coupled cluster methods
   Benjamin Helmich-Paris : MC-RPA, TRAH-SCF, COSX integrals
   Lee Huntington         : MR-EOM, pCC
   Robert Izsak           : Overlap fitted RIJCOSX, COSX-SCS-MP3, EOM
   Marcus Kettner         : VPT2
   Christian Kollmar      : KDIIS, OOCD, Brueckner-CCSD(T), CCSD density, CASPT2, CASPT2-K
   Simone Kossmann        : Meta GGA functionals, TD-DFT gradient, OOMP2, MP2 Hessian
   Martin Krupicka        : Initial AUTO-CI
   Lucas Lang             : DCDCAS
   Marvin Lechner         : AUTO-CI (C++ implementation), FIC-MRCC
   Dagmar Lenk            : GEPOL surface, SMD
   Dimitrios Liakos       : Extrapolation schemes; Compound Job, initial MDCI parallelization
   Dimitrios Manganas     : Further ROCIS development; embedding schemes
   Dimitrios Pantazis     : SARC Basis sets
   Anastasios Papadopoulos: AUTO-CI, single reference methods and gradients
   Taras Petrenko         : DFT Hessian,TD-DFT gradient, ASA, ECA, R-Raman, ABS, FL, XAS/XES, NRVS
   Peter Pinski           : DLPNO-MP2, DLPNO-MP2 Gradient
   Christoph Reimann      : Effective Core Potentials
   Marius Retegan         : Local ZFS, SOC
   Christoph Riplinger    : Optimizer, TS searches, QM/MM, DLPNO-CCSD(T), (RO)-DLPNO pert. Triples
   Tobias Risthaus        : Range-separated hybrids, TD-DFT gradient, RPA, STAB
   Michael Roemelt        : Original ROCIS implementation
   Masaaki Saitow         : Open-shell DLPNO-CCSD energy and density
   Barbara Sandhoefer     : DKH picture change effects
   Avijit Sen             : IP-ROCIS
   Kantharuban Sivalingam : CASSCF convergence, NEVPT2, FIC-MRCI
   Bernardo de Souza      : ESD, SOC TD-DFT
   Georgi Stoychev        : AutoAux, RI-MP2 NMR, DLPNO-MP2 response
   Willem Van den Heuvel  : Paramagnetic NMR
   Boris Wezisla          : Elementary symmetry handling
   Frank Wennmohs         : Technical directorship


 We gratefully acknowledge several colleagues who have allowed us to
 interface, adapt or use parts of their codes:
   Stefan Grimme, W. Hujo, H. Kruse, P. Pracht,  : VdW corrections, initial TS optimization,
                  C. Bannwarth, S. Ehlert          DFT functionals, gCP, sTDA/sTD-DF
   Ed Valeev, F. Pavosevic, A. Kumar             : LibInt (2-el integral package), F12 methods
   Garnet Chan, S. Sharma, J. Yang, R. Olivares  : DMRG
   Ulf Ekstrom                                   : XCFun DFT Library
   Mihaly Kallay                                 : mrcc  (arbitrary order and MRCC methods)
   Jiri Pittner, Ondrej Demel                    : Mk-CCSD
   Frank Weinhold                                : gennbo (NPA and NBO analysis)
   Christopher J. Cramer and Donald G. Truhlar   : smd solvation model
   Lars Goerigk                                  : TD-DFT with DH, B97 family of functionals
   V. Asgeirsson, H. Jonsson                     : NEB implementation
   FAccTs GmbH                                   : IRC, NEB, NEB-TS, DLPNO-Multilevel, CI-OPT
                                                   MM, QMMM, 2- and 3-layer-ONIOM, Crystal-QMMM,
                                                   LR-CPCM, SF, NACMEs, symmetry and pop. for TD-DFT,
                                                   nearIR, NL-DFT gradient (VV10), updates on ESD,
                                                   ML-optimized integration grids
   S Lehtola, MJT Oliveira, MAL Marques          : LibXC Library
   Liviu Ungur et al                             : ANISO software


 Your calculation uses the libint2 library for the computation of 2-el integrals
 For citations please refer to: http://libint.valeyev.net

 Your ORCA version has been built with support for libXC version: 5.1.0
 For citations please refer to: https://tddft.org/programs/libxc/

 This ORCA versions uses:
   CBLAS   interface :  Fast vector & matrix operations
   LAPACKE interface :  Fast linear algebra routines
   SCALAPACK package :  Parallel linear algebra routines
   Shared memory     :  Shared parallel matrices
   BLAS/LAPACK       :  OpenBLAS 0.3.15  USE64BITINT DYNAMIC_ARCH NO_AFFINITY SkylakeX SINGLE_THREADED
        Core in use  :  SkylakeX
   Copyright (c) 2011-2014, The OpenBLAS Project




***************************************
The coordinates will be read from file: /users/fjb15167/WWenergy/structures/Nke.xyz
***************************************


Your calculation utilizes the atom-pairwise dispersion correction
based on tight binding partial charges (D4)
Cite in your paper:
E.Caldeweyher, C.Bannwarth, S.Grimme, J.Chem.Phys., (2017), 147, 034112.
E.Caldeweyher, S.Ehlert, A.Hansen, H.Neugebauer, S.Grimme, J.Chem.Phys., (2018), in progress.
   

================================================================================

----- Orbital basis set information -----
Your calculation utilizes the basis: 6-31+G(d)
   H-He, Li-Ne : W. J. Hehre, R. Ditchfield and J.A. Pople, J. Chem. Phys. 56, 2257 (1972).
                 Note: He and Ne are unpublished basis sets taken from the Gaussian program.
                 Note: Li and B from J. D. Dill and J. A. Pople, J. Chem. Phys. 62, 2921 (1975).
   Na - Ar     : M. M. Francl, W. J. Pietro, W. J. Hehre, J. S. Binkley, M. S. Gordon, 
                 D. J. DeFrees and J. A. Pople, J. Chem. Phys. 77, 3654 (1982).
   K - Zn      : V. A. Rassolov, J. A. Pople, M. A. Ratner, and T. L. Windus, J. Chem. Phys. 109, 1223 (1998).
   Additional Pol./Diff. from the 6-311G equivalent.

----- AuxJ basis set information -----
Your calculation utilizes the AutoAux generation procedure.
  G. L. Stoychev, A. A. Auer, F. Neese, J. Chem. Theory Comput. 13, 554 (2017)

----- AuxC basis set information -----
Your calculation utilizes the AutoAux generation procedure.
  G. L. Stoychev, A. A. Auer, F. Neese, J. Chem. Theory Comput. 13, 554 (2017)

----- AuxJK basis set information -----
Your calculation utilizes the AutoAux generation procedure.
  G. L. Stoychev, A. A. Auer, F. Neese, J. Chem. Theory Comput. 13, 554 (2017)

================================================================================
                                        WARNINGS
                       Please study these warnings very carefully!
================================================================================


WARNING: Geometry Optimization
  ===> : Switching off AutoStart
         For restart on a previous wavefunction, please use MOREAD

INFO   : the flag for use of the SHARK integral package has been found!

================================================================================
                                       INPUT FILE
================================================================================
NAME = Nke_octanol.inp
|  1> ! OPT FREQ B3LYP 6-31+G(d) D4 AUTOAUX
|  2> ! CPCM
|  3> 
|  4> %cpcm
|  5> epsilon 9.8629 
|  6> refrac  1.4295 
|  7> end
|  8> 
|  9> %PAL NPROCS 4 END
| 10> 
| 11> %maxcore 3375
| 12> 
| 13> *xyzfile 1 1 /users/fjb15167/WWenergy/structures/Nke.xyz
| 14> 
| 15>                          ****END OF INPUT****
================================================================================

                       *****************************
                       * Geometry Optimization Run *
                       *****************************

Geometry optimization settings:
Update method            Update   .... BFGS
Choice of coordinates    CoordSys .... Z-matrix Internals
Initial Hessian          InHess   .... Almoef's Model

Convergence Tolerances:
Energy Change            TolE     ....  5.0000e-06 Eh
Max. Gradient            TolMAXG  ....  3.0000e-04 Eh/bohr
RMS Gradient             TolRMSG  ....  1.0000e-04 Eh/bohr
Max. Displacement        TolMAXD  ....  4.0000e-03 bohr
RMS Displacement         TolRMSD  ....  2.0000e-03 bohr
Strict Convergence                ....  False
------------------------------------------------------------------------------
                        ORCA OPTIMIZATION COORDINATE SETUP
------------------------------------------------------------------------------

The optimization will be done in new redundant internal coordinates
Making redundant internal coordinates   ...  (new redundants) done
Evaluating the initial hessian          ...  (Almloef) done
Evaluating the coordinates              ...  done
Calculating the B-matrix                .... done
Calculating the G-matrix                .... done
Diagonalizing the G-matrix              .... done
Small eigenvalue found = 6.688e-03
Small eigenvalue found = 8.741e-03
Small eigenvalue found = 1.530e-02
Small eigenvalue found = 1.863e-02
Small eigenvalue found = 2.358e-02
The first mode is                       ....   59
The number of degrees of freedom        ....   87

    -----------------------------------------------------------------
                    Redundant Internal Coordinates


    -----------------------------------------------------------------
         Definition                    Initial Value    Approx d2E/dq
    -----------------------------------------------------------------
      1. B(H   1,C   0)                  1.0939         0.354996   
      2. B(H   2,C   0)                  1.0939         0.355010   
      3. B(H   3,C   0)                  1.0900         0.360075   
      4. B(C   4,C   0)                  1.5301         0.373409   
      5. B(O   5,C   4)                  1.2115         1.078121   
      6. B(N   6,C   4)                  1.3907         0.558099   
      7. B(C   7,N   6)                  1.4598         0.432989   
      8. B(H   8,C   7)                  1.0965         0.351583   
      9. B(H   9,C   7)                  1.0903         0.359765   
     10. B(C  10,N   6)                  1.4504         0.448218   
     11. B(H  11,C  10)                  1.0912         0.358531   
     12. B(H  12,C  10)                  1.0990         0.348327   
     13. B(C  13,C  10)                  1.5303         0.373160   
     14. B(H  14,C  13)                  1.0916         0.357924   
     15. B(H  15,C  13)                  1.0922         0.357242   
     16. B(C  16,C   7)                  1.5252         0.380218   
     17. B(N  17,C  16)                  1.3315         0.693689   
     18. B(O  18,C  16)                  1.2645         0.887480   
     19. B(C  19,N  17)                  1.4664         0.422725   
     20. B(H  20,C  19)                  1.0911         0.358673   
     21. B(H  21,C  19)                  1.0933         0.355824   
     22. B(H  22,C  19)                  1.0871         0.363903   
     23. B(C  23,N  17)                  1.4703         0.416564   
     24. B(H  24,C  23)                  1.0919         0.357640   
     25. B(H  25,C  23)                  1.0916         0.357972   
     26. B(H  26,C  23)                  1.0892         0.361137   
     27. B(N  27,C  13)                  1.4949         0.380657   
     28. B(H  28,N  27)                  1.0247         0.409911   
     29. B(H  29,N  27)                  1.0276         0.405611   
     30. B(H  30,N  27)                  1.0732         0.343109   
     31. A(H   1,C   0,C   4)          112.8707         0.323536   
     32. A(H   3,C   0,C   4)          106.4887         0.324292   
     33. A(H   2,C   0,H   3)          108.8061         0.290187   
     34. A(H   1,C   0,H   3)          108.6047         0.290185   
     35. A(H   1,C   0,H   2)          108.2266         0.289541   
     36. A(H   2,C   0,C   4)          111.7310         0.323538   
     37. A(C   0,C   4,O   5)          122.3876         0.434825   
     38. A(O   5,C   4,N   6)          119.9818         0.464638   
     39. A(C   0,C   4,N   6)          117.6300         0.386943   
     40. A(C   4,N   6,C  10)          126.6361         0.396960   
     41. A(C   7,N   6,C  10)          119.8435         0.379767   
     42. A(C   4,N   6,C   7)          112.7115         0.394560   
     43. A(H   8,C   7,C  16)          107.8747         0.323983   
     44. A(N   6,C   7,H   9)          109.5010         0.330260   
     45. A(H   8,C   7,H   9)          108.1228         0.289707   
     46. A(H   9,C   7,C  16)          112.7719         0.325210   
     47. A(N   6,C   7,C  16)          109.5794         0.371462   
     48. A(N   6,C   7,H   8)          108.9018         0.329007   
     49. A(H  12,C  10,C  13)          108.2513         0.322496   
     50. A(H  11,C  10,C  13)          109.6205         0.324027   
     51. A(N   6,C  10,C  13)          111.9153         0.372476   
     52. A(H  11,C  10,H  12)          106.7526         0.289129   
     53. A(N   6,C  10,H  12)          111.4481         0.330383   
     54. A(N   6,C  10,H  11)          108.7138         0.331966   
     55. A(H  14,C  13,H  15)          108.6307         0.290200   
     56. A(H  15,C  13,N  27)          105.7593         0.322954   
     57. A(C  10,C  13,H  15)          111.7458         0.323836   
     58. A(C  10,C  13,H  14)          111.0949         0.323937   
     59. A(H  14,C  13,N  27)          110.1004         0.323055   
     60. A(C  10,C  13,N  27)          109.3721         0.362184   
     61. A(N  17,C  16,O  18)          121.9955         0.466590   
     62. A(C   7,C  16,O  18)          118.4401         0.421280   
     63. A(C   7,C  16,N  17)          119.4558         0.403259   
     64. A(C  16,N  17,C  19)          119.3923         0.408240   
     65. A(C  19,N  17,C  23)          116.8505         0.373438   
     66. A(C  16,N  17,C  23)          122.9503         0.407181   
     67. A(H  21,C  19,H  22)          109.6818         0.290774   
     68. A(H  20,C  19,H  22)          110.0862         0.291138   
     69. A(N  17,C  19,H  22)          108.8737         0.329575   
     70. A(H  20,C  19,H  21)          109.6474         0.290114   
     71. A(N  17,C  19,H  21)          109.7400         0.328356   
     72. A(N  17,C  19,H  20)          108.7930         0.328788   
     73. A(H  25,C  23,H  26)          109.0455         0.290700   
     74. A(H  24,C  23,H  26)          108.0813         0.290658   
     75. A(N  17,C  23,H  26)          107.5792         0.328363   
     76. A(H  24,C  23,H  25)          110.7188         0.290256   
     77. A(N  17,C  23,H  25)          109.9803         0.327887   
     78. A(N  17,C  23,H  24)          111.3374         0.327837   
     79. A(H  29,N  27,H  30)          100.0687         0.289342   
     80. A(H  28,N  27,H  30)          120.5222         0.289821   
     81. A(C  13,N  27,H  30)          104.4659         0.318125   
     82. A(H  28,N  27,H  29)          107.5194         0.297573   
     83. A(C  13,N  27,H  29)          111.4729         0.326970   
     84. A(C  13,N  27,H  28)          112.1650         0.327539   
     85. D(O   5,C   4,C   0,H   2)    116.2500         0.010428   
     86. D(O   5,C   4,C   0,H   1)   -121.5039         0.010428   
     87. D(N   6,C   4,C   0,H   1)     58.2148         0.010428   
     88. D(N   6,C   4,C   0,H   2)    -64.0314         0.010428   
     89. D(N   6,C   4,C   0,H   3)    177.2904         0.010428   
     90. D(O   5,C   4,C   0,H   3)     -2.4282         0.010428   
     91. D(C   7,N   6,C   4,C   0)    174.0695         0.024866   
     92. D(C  10,N   6,C   4,C   0)      4.4850         0.024866   
     93. D(C   7,N   6,C   4,O   5)     -6.2048         0.024866   
     94. D(C  10,N   6,C   4,O   5)   -175.7893         0.024866   
     95. D(C  16,C   7,N   6,C   4)     71.0892         0.015984   
     96. D(H   9,C   7,N   6,C  10)    117.2825         0.015984   
     97. D(H   8,C   7,N   6,C  10)     -0.7552         0.015984   
     98. D(H   9,C   7,N   6,C   4)    -53.0896         0.015984   
     99. D(H   8,C   7,N   6,C   4)   -171.1273         0.015984   
    100. D(C  16,C   7,N   6,C  10)   -118.5387         0.015984   
    101. D(C  13,C  10,N   6,C   7)     67.0484         0.017136   
    102. D(C  13,C  10,N   6,C   4)   -124.0365         0.017136   
    103. D(H  12,C  10,N   6,C   7)    -54.3341         0.017136   
    104. D(H  12,C  10,N   6,C   4)    114.5810         0.017136   
    105. D(H  11,C  10,N   6,C   7)   -171.7247         0.017136   
    106. D(H  11,C  10,N   6,C   4)     -2.8096         0.017136   
    107. D(N  27,C  13,C  10,H  12)    169.2468         0.011120   
    108. D(H  15,C  13,C  10,H  12)     52.4903         0.011120   
    109. D(N  27,C  13,C  10,H  11)    -74.6634         0.011120   
    110. D(H  15,C  13,C  10,H  11)    168.5800         0.011120   
    111. D(H  15,C  13,C  10,N   6)    -70.7184         0.011120   
    112. D(N  27,C  13,C  10,N   6)     46.0381         0.011120   
    113. D(H  14,C  13,C  10,H  12)    -69.0111         0.011120   
    114. D(H  14,C  13,C  10,H  11)     47.0786         0.011120   
    115. D(H  14,C  13,C  10,N   6)    167.7802         0.011120   
    116. D(O  18,C  16,C   7,H   9)    166.8500         0.010787   
    117. D(O  18,C  16,C   7,H   8)    -73.8198         0.010787   
    118. D(O  18,C  16,C   7,N   6)     44.6030         0.010787   
    119. D(N  17,C  16,C   7,H   9)    -16.8625         0.010787   
    120. D(N  17,C  16,C   7,H   8)    102.4676         0.010787   
    121. D(N  17,C  16,C   7,N   6)   -139.1096         0.010787   
    122. D(C  23,N  17,C  16,O  18)   -171.7122         0.039749   
    123. D(C  23,N  17,C  16,C   7)     12.1372         0.039749   
    124. D(C  19,N  17,C  16,O  18)     -2.3307         0.039749   
    125. D(C  19,N  17,C  16,C   7)   -178.4812         0.039749   
    126. D(H  22,C  19,N  17,C  16)     15.6509         0.015236   
    127. D(H  21,C  19,N  17,C  23)     65.6156         0.015236   
    128. D(H  21,C  19,N  17,C  16)   -104.4040         0.015236   
    129. D(H  20,C  19,N  17,C  23)    -54.3479         0.015236   
    130. D(H  22,C  19,N  17,C  23)   -174.3295         0.015236   
    131. D(H  20,C  19,N  17,C  16)    135.6325         0.015236   
    132. D(H  26,C  23,N  17,C  19)      5.8013         0.014798   
    133. D(H  26,C  23,N  17,C  16)    175.4345         0.014798   
    134. D(H  25,C  23,N  17,C  19)   -112.8460         0.014798   
    135. D(H  25,C  23,N  17,C  16)     56.7872         0.014798   
    136. D(H  24,C  23,N  17,C  19)    124.0494         0.014798   
    137. D(H  24,C  23,N  17,C  16)    -66.3174         0.014798   
    138. D(H  30,N  27,C  13,H  15)     42.7762         0.013268   
    139. D(H  30,N  27,C  13,H  14)    159.9537         0.013268   
    140. D(H  30,N  27,C  13,C  10)    -77.7071         0.013268   
    141. D(H  29,N  27,C  13,H  15)    -64.4113         0.013268   
    142. D(H  29,N  27,C  13,H  14)     52.7661         0.013268   
    143. D(H  29,N  27,C  13,C  10)    175.1054         0.013268   
    144. D(H  28,N  27,C  13,H  15)    174.9553         0.013268   
    145. D(H  28,N  27,C  13,H  14)    -67.8672         0.013268   
    146. D(H  28,N  27,C  13,C  10)     54.4721         0.013268   
    -----------------------------------------------------------------

Number of atoms                         .... 31
Number of degrees of freedom            .... 146

         *************************************************************
         *                GEOMETRY OPTIMIZATION CYCLE   1            *
         *************************************************************
---------------------------------
CARTESIAN COORDINATES (ANGSTROEM)
---------------------------------
  C      0.267000    3.124000   -1.208000
  H      1.216000    2.792000   -1.639000
  H      0.475000    3.941000   -0.511000
  H     -0.367000    3.500000   -2.011000
  C     -0.510000    1.990000   -0.536000
  O     -1.631000    1.681000   -0.876000
  N      0.118000    1.301000    0.496000
  C     -0.764000    0.339000    1.150000
  H     -0.264000   -0.050000    2.045000
  H     -1.680000    0.840000    1.464000
  C      1.414000    1.601000    1.074000
  H      1.854000    2.439000    0.531000
  H      1.323000    1.916000    2.123000
  C      2.358000    0.398000    1.015000
  H      3.383000    0.691000    1.250000
  H      2.053000   -0.390000    1.707000
  C     -1.025000   -0.835000    0.212000
  N     -2.250000   -1.351000    0.134000
  O     -0.047000   -1.333000   -0.416000
  C     -2.492000   -2.501000   -0.743000
  H     -3.107000   -3.227000   -0.209000
  H     -3.012000   -2.173000   -1.647000
  H     -1.537000   -2.946000   -1.011000
  C     -3.433000   -0.693000    0.708000
  H     -3.379000   -0.659000    1.798000
  H     -3.538000    0.312000    0.295000
  H     -4.305000   -1.284000    0.431000
  N      2.298000   -0.213000   -0.348000
  H      2.488000    0.471000   -1.087000
  H      2.980000   -0.975000   -0.449000
  H      1.385000   -0.777000   -0.349000

----------------------------
CARTESIAN COORDINATES (A.U.)
----------------------------
  NO LB      ZA    FRAG     MASS         X           Y           Z
   0 C     6.0000    0    12.011    0.504557    5.903504   -2.282789
   1 H     1.0000    0     1.008    2.297907    5.276115   -3.097261
   2 H     1.0000    0     1.008    0.897620    7.447411   -0.965650
   3 H     1.0000    0     1.008   -0.693529    6.614041   -3.800239
   4 C     6.0000    0    12.011   -0.963760    3.760555   -1.012893
   5 O     8.0000    0    15.999   -3.082143    3.176630   -1.655400
   6 N     7.0000    0    14.007    0.222988    2.458534    0.937304
   7 C     6.0000    0    12.011   -1.443751    0.640617    2.173185
   8 H     1.0000    0     1.008   -0.498888   -0.094486    3.864490
   9 H     1.0000    0     1.008   -3.174740    1.587370    2.766559
  10 C     6.0000    0    12.011    2.672073    3.025452    2.029566
  11 H     1.0000    0     1.008    3.503552    4.609042    1.003445
  12 H     1.0000    0     1.008    2.500108    3.620715    4.011889
  13 C     6.0000    0    12.011    4.455974    0.752111    1.918072
  14 H     1.0000    0     1.008    6.392944    1.305801    2.362158
  15 H     1.0000    0     1.008    3.879608   -0.736993    3.225763
  16 C     6.0000    0    12.011   -1.936969   -1.577921    0.400622
  17 N     7.0000    0    14.007   -4.251884   -2.553020    0.253223
  18 O     8.0000    0    15.999   -0.088817   -2.519005   -0.786126
  19 C     6.0000    0    12.011   -4.709198   -4.726205   -1.404067
  20 H     1.0000    0     1.008   -5.871379   -6.098146   -0.394953
  21 H     1.0000    0     1.008   -5.691855   -4.106375   -3.112379
  22 H     1.0000    0     1.008   -2.904509   -5.567133   -1.910513
  23 C     6.0000    0    12.011   -6.487430   -1.309580    1.337926
  24 H     1.0000    0     1.008   -6.385385   -1.245330    3.397728
  25 H     1.0000    0     1.008   -6.685851    0.589595    0.557469
  26 H     1.0000    0     1.008   -8.135271   -2.426408    0.814472
  27 N     7.0000    0    14.007    4.342591   -0.402512   -0.657625
  28 H     1.0000    0     1.008    4.701639    0.890061   -2.054132
  29 H     1.0000    0     1.008    5.631384   -1.842483   -0.848487
  30 H     1.0000    0     1.008    2.617271   -1.468317   -0.659514

--------------------------------
INTERNAL COORDINATES (ANGSTROEM)
--------------------------------
 C      0   0   0     0.000000000000     0.00000000     0.00000000
 H      1   0   0     1.093885734435     0.00000000     0.00000000
 H      1   2   0     1.093874764313   108.22657330     0.00000000
 H      1   2   3     1.090018807177   108.60466181   117.96672434
 C      1   2   3     1.530120583484   112.87065597   235.80788826
 O      5   1   2     1.211495769700   122.38763951   238.49610611
 N      5   1   2     1.390729664601   117.63000391    58.21479491
 C      7   5   1     1.459823276976   112.71150316   174.06947316
 H      8   7   5     1.096515389769   108.90179085   188.87268233
 H      8   7   5     1.090253640214   109.50101074   306.91042216
 C      7   5   1     1.450413734077   126.63605777     4.48499679
 H     11   7   5     1.091188801262   108.71375052   357.19037953
 H     11   7   5     1.099048224602   111.44807717   114.58095875
 C     11   7   5     1.530302584458   111.91526942   235.96350417
 H     14  11   7     1.091649669079   111.09491883   167.78020012
 H     14  11   7     1.092168942975   111.74576345   289.28158577
 C      8   7   5     1.525201953841   109.57942110    71.08921376
 N     17   8   7     1.331527318533   119.45578123   220.89044630
 O     17   8   7     1.264465104303   118.44006205    44.60298928
 C     18  17   8     1.466353640838   119.39229917   181.51877095
 H     20  18  17     1.091080656964   108.79303415   135.63251376
 H     20  18  17     1.093252029497   109.73996384   255.59604846
 H     20  18  17     1.087140285336   108.87374500    15.65094942
 C     18  17   8     1.470349958343   122.95027609    12.13721592
 H     24  18  17     1.091866292181   111.33743650   293.68256921
 H     24  18  17     1.091613026672   109.98034184    56.78719890
 H     24  18  17     1.089217150067   107.57918681   175.43449640
 N     14  11   7     1.494887955668   109.37206622    46.03813611
 H     28  14  11     1.024732648060   112.16500512    54.47205078
 H     28  14  11     1.027603522765   111.47287763   175.10539712
 H     28  14  11     1.073157024857   104.46587937   282.29291115

---------------------------
INTERNAL COORDINATES (A.U.)
---------------------------
 C      0   0   0     0.000000000000     0.00000000     0.00000000
 H      1   0   0     2.067144459885     0.00000000     0.00000000
 H      1   2   0     2.067123729359   108.22657330     0.00000000
 H      1   2   3     2.059837026388   108.60466181   117.96672434
 C      1   2   3     2.891508854660   112.87065597   235.80788826
 O      5   1   2     2.289395217136   122.38763951   238.49610611
 N      5   1   2     2.628098192415   117.63000391    58.21479491
 C      7   5   1     2.758666197407   112.71150316   174.06947316
 H      8   7   5     2.072113788293   108.90179085   188.87268233
 H      8   7   5     2.060280796515   109.50101074   306.91042216
 C      7   5   1     2.740884738284   126.63605777     4.48499679
 H     11   7   5     2.062047994787   108.71375052   357.19037953
 H     11   7   5     2.076900152469   111.44807717   114.58095875
 C     11   7   5     2.891852786658   111.91526942   235.96350417
 H     14  11   7     2.062918908745   111.09491883   167.78020012
 H     14  11   7     2.063900194198   111.74576345   289.28158577
 C      8   7   5     2.882213991681   109.57942110    71.08921376
 N     17   8   7     2.516221971862   119.45578123   220.89044630
 O     17   8   7     2.389492753033   118.44006205    44.60298928
 C     18  17   8     2.771006796663   119.39229917   181.51877095
 H     20  18  17     2.061843631680   108.79303415   135.63251376
 H     20  18  17     2.065946931104   109.73996384   255.59604846
 H     20  18  17     2.054397408438   108.87374500    15.65094942
 C     18  17   8     2.778558742291   122.95027609    12.13721592
 H     24  18  17     2.063328267081   111.33743650   293.68256921
 H     24  18  17     2.062849664631   109.98034184    56.78719890
 H     24  18  17     2.058322113997   107.57918681   175.43449640
 N     14  11   7     2.824928837109   109.37206622    46.03813611
 H     28  14  11     1.936464065321   112.16500512    54.47205078
 H     28  14  11     1.941889232279   111.47287763   175.10539712
 H     28  14  11     2.027972875674   104.46587937   282.29291115

---------------------
BASIS SET INFORMATION
---------------------
There are 4 groups of distinct atoms

 Group   1 Type C   : 11s5p1d contracted to 4s3p1d pattern {6311/311/1}
 Group   2 Type H   : 4s contracted to 2s pattern {31}
 Group   3 Type O   : 11s5p1d contracted to 4s3p1d pattern {6311/311/1}
 Group   4 Type N   : 11s5p1d contracted to 4s3p1d pattern {6311/311/1}

Atom   0C    basis set group =>   1
Atom   1H    basis set group =>   2
Atom   2H    basis set group =>   2
Atom   3H    basis set group =>   2
Atom   4C    basis set group =>   1
Atom   5O    basis set group =>   3
Atom   6N    basis set group =>   4
Atom   7C    basis set group =>   1
Atom   8H    basis set group =>   2
Atom   9H    basis set group =>   2
Atom  10C    basis set group =>   1
Atom  11H    basis set group =>   2
Atom  12H    basis set group =>   2
Atom  13C    basis set group =>   1
Atom  14H    basis set group =>   2
Atom  15H    basis set group =>   2
Atom  16C    basis set group =>   1
Atom  17N    basis set group =>   4
Atom  18O    basis set group =>   3
Atom  19C    basis set group =>   1
Atom  20H    basis set group =>   2
Atom  21H    basis set group =>   2
Atom  22H    basis set group =>   2
Atom  23C    basis set group =>   1
Atom  24H    basis set group =>   2
Atom  25H    basis set group =>   2
Atom  26H    basis set group =>   2
Atom  27N    basis set group =>   4
Atom  28H    basis set group =>   2
Atom  29H    basis set group =>   2
Atom  30H    basis set group =>   2
---------------------------------
AUXILIARY/J BASIS SET INFORMATION
---------------------------------
There are 4 groups of distinct atoms

 Group   1 Type C   : 16s13p12d2f contracted to 16s13p12d2f pattern {1111111111111111/1111111111111/111111111111/11}
 Group   2 Type H   : 9s2p contracted to 9s2p pattern {111111111/11}
 Group   3 Type O   : 16s13p12d3f contracted to 16s13p12d3f pattern {1111111111111111/1111111111111/111111111111/111}
 Group   4 Type N   : 16s13p12d3f contracted to 16s13p12d3f pattern {1111111111111111/1111111111111/111111111111/111}

Atom   0C    basis set group =>   1
Atom   1H    basis set group =>   2
Atom   2H    basis set group =>   2
Atom   3H    basis set group =>   2
Atom   4C    basis set group =>   1
Atom   5O    basis set group =>   3
Atom   6N    basis set group =>   4
Atom   7C    basis set group =>   1
Atom   8H    basis set group =>   2
Atom   9H    basis set group =>   2
Atom  10C    basis set group =>   1
Atom  11H    basis set group =>   2
Atom  12H    basis set group =>   2
Atom  13C    basis set group =>   1
Atom  14H    basis set group =>   2
Atom  15H    basis set group =>   2
Atom  16C    basis set group =>   1
Atom  17N    basis set group =>   4
Atom  18O    basis set group =>   3
Atom  19C    basis set group =>   1
Atom  20H    basis set group =>   2
Atom  21H    basis set group =>   2
Atom  22H    basis set group =>   2
Atom  23C    basis set group =>   1
Atom  24H    basis set group =>   2
Atom  25H    basis set group =>   2
Atom  26H    basis set group =>   2
Atom  27N    basis set group =>   4
Atom  28H    basis set group =>   2
Atom  29H    basis set group =>   2
Atom  30H    basis set group =>   2
---------------------------------
AUXILIARY/C BASIS SET INFORMATION
---------------------------------
There are 4 groups of distinct atoms

 Group   1 Type C   : 16s13p12d2f contracted to 16s13p12d2f pattern {1111111111111111/1111111111111/111111111111/11}
 Group   2 Type H   : 9s2p contracted to 9s2p pattern {111111111/11}
 Group   3 Type O   : 16s13p12d3f contracted to 16s13p12d3f pattern {1111111111111111/1111111111111/111111111111/111}
 Group   4 Type N   : 16s13p12d3f contracted to 16s13p12d3f pattern {1111111111111111/1111111111111/111111111111/111}

Atom   0C    basis set group =>   1
Atom   1H    basis set group =>   2
Atom   2H    basis set group =>   2
Atom   3H    basis set group =>   2
Atom   4C    basis set group =>   1
Atom   5O    basis set group =>   3
Atom   6N    basis set group =>   4
Atom   7C    basis set group =>   1
Atom   8H    basis set group =>   2
Atom   9H    basis set group =>   2
Atom  10C    basis set group =>   1
Atom  11H    basis set group =>   2
Atom  12H    basis set group =>   2
Atom  13C    basis set group =>   1
Atom  14H    basis set group =>   2
Atom  15H    basis set group =>   2
Atom  16C    basis set group =>   1
Atom  17N    basis set group =>   4
Atom  18O    basis set group =>   3
Atom  19C    basis set group =>   1
Atom  20H    basis set group =>   2
Atom  21H    basis set group =>   2
Atom  22H    basis set group =>   2
Atom  23C    basis set group =>   1
Atom  24H    basis set group =>   2
Atom  25H    basis set group =>   2
Atom  26H    basis set group =>   2
Atom  27N    basis set group =>   4
Atom  28H    basis set group =>   2
Atom  29H    basis set group =>   2
Atom  30H    basis set group =>   2
----------------------------------
AUXILIARY/JK BASIS SET INFORMATION
----------------------------------
There are 4 groups of distinct atoms

 Group   1 Type C   : 16s13p12d2f contracted to 16s13p12d2f pattern {1111111111111111/1111111111111/111111111111/11}
 Group   2 Type H   : 9s2p contracted to 9s2p pattern {111111111/11}
 Group   3 Type O   : 16s13p12d3f contracted to 16s13p12d3f pattern {1111111111111111/1111111111111/111111111111/111}
 Group   4 Type N   : 16s13p12d3f contracted to 16s13p12d3f pattern {1111111111111111/1111111111111/111111111111/111}

Atom   0C    basis set group =>   1
Atom   1H    basis set group =>   2
Atom   2H    basis set group =>   2
Atom   3H    basis set group =>   2
Atom   4C    basis set group =>   1
Atom   5O    basis set group =>   3
Atom   6N    basis set group =>   4
Atom   7C    basis set group =>   1
Atom   8H    basis set group =>   2
Atom   9H    basis set group =>   2
Atom  10C    basis set group =>   1
Atom  11H    basis set group =>   2
Atom  12H    basis set group =>   2
Atom  13C    basis set group =>   1
Atom  14H    basis set group =>   2
Atom  15H    basis set group =>   2
Atom  16C    basis set group =>   1
Atom  17N    basis set group =>   4
Atom  18O    basis set group =>   3
Atom  19C    basis set group =>   1
Atom  20H    basis set group =>   2
Atom  21H    basis set group =>   2
Atom  22H    basis set group =>   2
Atom  23C    basis set group =>   1
Atom  24H    basis set group =>   2
Atom  25H    basis set group =>   2
Atom  26H    basis set group =>   2
Atom  27N    basis set group =>   4
Atom  28H    basis set group =>   2
Atom  29H    basis set group =>   2
Atom  30H    basis set group =>   2


           ************************************************************
           *        Program running with 4 parallel MPI-processes     *
           *              working on a common directory               *
           ************************************************************
------------------------------------------------------------------------------
                           ORCA GTO INTEGRAL CALCULATION
                           -- RI-GTO INTEGRALS CHOSEN --
------------------------------------------------------------------------------
------------------------------------------------------------------------------
                   ___                                                        
                  /   \      - P O W E R E D   B Y -                         
                 /     \                                                     
                 |  |  |   _    _      __       _____    __    __             
                 |  |  |  | |  | |    /  \     |  _  \  |  |  /  |          
                  \  \/   | |  | |   /    \    | | | |  |  | /  /          
                 / \  \   | |__| |  /  /\  \   | |_| |  |  |/  /          
                |  |  |   |  __  | /  /__\  \  |    /   |      \           
                |  |  |   | |  | | |   __   |  |    \   |  |\   \          
                \     /   | |  | | |  |  |  |  | |\  \  |  | \   \       
                 \___/    |_|  |_| |__|  |__|  |_| \__\ |__|  \__/        
                                                                              
                      - O R C A' S   B I G   F R I E N D -                    
                                      &                                       
                       - I N T E G R A L  F E E D E R -                       
                                                                              
 v1 FN, 2020, v2 2021                                                         
------------------------------------------------------------------------------


Reading SHARK input file Nke_octanol.SHARKINP.tmp ... ok
----------------------
SHARK INTEGRAL PACKAGE
----------------------

Number of atoms                             ...     31
Number of basis functions                   ...    270
Number of shells                            ...    140
Maximum angular momentum                    ...      2
Integral batch strategy                     ... SHARK/LIBINT Hybrid
RI-J (if used) integral strategy            ... SPLIT-RIJ (Revised 2003 algorithm where possible)
Printlevel                                  ...      1
Contraction scheme used                     ... SEGMENTED contraction
Coulomb Range Separation                    ... NOT USED
Exchange Range Separation                   ... NOT USED
Finite Nucleus Model                        ... NOT USED
Auxiliary Coulomb fitting basis             ... AVAILABLE
   # of basis functions in Aux-J            ...   1982
   # of shells in Aux-J                     ...    762
   Maximum angular momentum in Aux-J        ...      3
Auxiliary J/K fitting basis                 ... AVAILABLE
   # of basis functions in Aux-JK           ...   1982
   # of shells in Aux-JK                    ...    762
   Maximum angular momentum in Aux-JK       ...      3
Auxiliary Correlation fitting basis         ... AVAILABLE
   # of basis functions in Aux-C            ...   1982
   # of shells in Aux-C                     ...    762
   Maximum angular momentum in Aux-C        ...      3
Auxiliary 'external' fitting basis          ... NOT available
Integral threshold                          ...     2.500000e-11
Primitive cut-off                           ...     2.500000e-12
Primitive pair pre-selection threshold      ...     2.500000e-12

Calculating pre-screening integrals         ... done (  0.0 sec) Dimension = 140
Organizing shell pair data                  ... done (  1.5 sec)
Shell pair information
Total number of shell pairs                 ...      9870
Shell pairs after pre-screening             ...      9095
Total number of primitive shell pairs       ...     43398
Primitive shell pairs kept                  ...     26477
          la=0 lb=0:   3490 shell pairs
          la=1 lb=0:   3289 shell pairs
          la=1 lb=1:    770 shell pairs
          la=2 lb=0:    982 shell pairs
          la=2 lb=1:    484 shell pairs
          la=2 lb=2:     80 shell pairs

Calculating one electron integrals          ... done (  0.0 sec)
Calculating RI/J V-Matrix + Cholesky decomp.... done (  0.5 sec)
Calculating RI/JK V-Matrix + Cholesky decomp... done (  0.3 sec)
Calculating RI/C V-Matrix + Cholesky decomp.... done (  0.3 sec)
Calculating Nuclear repulsion               ... done (  0.0 sec) ENN=    917.657985224575 Eh

SHARK setup successfully completed in   3.0 seconds

Maximum memory used throughout the entire GTOINT-calculation: 36.2 MB


           ************************************************************
           *        Program running with 4 parallel MPI-processes     *
           *              working on a common directory               *
           ************************************************************
-------------------------------------------------------------------------------
                                 ORCA SCF
-------------------------------------------------------------------------------

------------
SCF SETTINGS
------------
Hamiltonian:
 Density Functional     Method          .... DFT(GTOs)
 Exchange Functional    Exchange        .... B88
   X-Alpha parameter    XAlpha          ....  0.666667
   Becke's b parameter  XBeta           ....  0.004200
 Correlation Functional Correlation     .... LYP
 LDA part of GGA corr.  LDAOpt          .... VWN-5
 Gradients option       PostSCFGGA      .... off
 Hybrid DFT is turned on
   Fraction HF Exchange ScalHFX         ....  0.200000
   Scaling of DF-GGA-X  ScalDFX         ....  0.720000
   Scaling of DF-GGA-C  ScalDFC         ....  0.810000
   Scaling of DF-LDA-C  ScalLDAC        ....  1.000000
   Perturbative correction              ....  0.000000
   Density functional embedding theory  .... OFF
   NL short-range parameter             ....  4.800000
 RI-approximation to the Coulomb term is turned on
   Number of AuxJ basis functions       .... 1982
   RIJ-COSX (HFX calculated with COS-X)).... on


General Settings:
 Integral files         IntName         .... Nke_octanol
 Hartree-Fock type      HFTyp           .... RHF
 Total Charge           Charge          ....    1
 Multiplicity           Mult            ....    1
 Number of Electrons    NEL             ....  102
 Basis Dimension        Dim             ....  270
 Nuclear Repulsion      ENuc            ....    917.6579852246 Eh

Convergence Acceleration:
 DIIS                   CNVDIIS         .... on
   Start iteration      DIISMaxIt       ....    12
   Startup error        DIISStart       ....  0.200000
   # of expansion vecs  DIISMaxEq       ....     5
   Bias factor          DIISBfac        ....   1.050
   Max. coefficient     DIISMaxC        ....  10.000
 Trust-Rad. Augm. Hess. CNVTRAH         .... auto
   Auto Start mean grad. ratio tolernc. ....  1.125000
   Auto Start start iteration           ....    20
   Auto Start num. interpolation iter.  ....    10
   Max. Number of Micro iterations      ....    16
   Max. Number of Macro iterations      .... Maxiter - #DIIS iter
   Number of Davidson start vectors     ....     2
   Converg. threshold I  (grad. norm)   ....   1.000e-05
   Converg. threshold II (energy diff.) ....   1.000e-08
   Grad. Scal. Fac. for Micro threshold ....   0.100
   Minimum threshold for Micro iter.    ....   0.010
   NR start threshold (gradient norm)   ....   0.001
   Initial trust radius                 ....   0.400
   Minimum AH scaling param. (alpha)    ....   1.000
   Maximum AH scaling param. (alpha)    .... 1000.000
   Orbital update algorithm             .... Taylor
   White noise on init. David. guess    .... on
   Maximum white noise                  ....   0.010
   Quad. conv. algorithm                .... NR
 SOSCF                  CNVSOSCF        .... on
   Start iteration      SOSCFMaxIt      ....   150
   Startup grad/error   SOSCFStart      ....  0.003300
 Level Shifting         CNVShift        .... on
   Level shift para.    LevelShift      ....    0.2500
   Turn off err/grad.   ShiftErr        ....    0.0010
 Zerner damping         CNVZerner       .... off
 Static damping         CNVDamp         .... on
   Fraction old density DampFac         ....    0.7000
   Max. Damping (<1)    DampMax         ....    0.9800
   Min. Damping (>=0)   DampMin         ....    0.0000
   Turn off err/grad.   DampErr         ....    0.1000
 Fernandez-Rico         CNVRico         .... off

SCF Procedure:
 Maximum # iterations   MaxIter         ....   125
 SCF integral mode      SCFMode         .... Direct
   Integral package                     .... SHARK and LIBINT hybrid scheme
 Reset frequency        DirectResetFreq ....    20
 Integral Threshold     Thresh          ....  2.500e-11 Eh
 Primitive CutOff       TCut            ....  2.500e-12 Eh

Convergence Tolerance:
 Convergence Check Mode ConvCheckMode   .... Total+1el-Energy
 Convergence forced     ConvForced      .... 0
 Energy Change          TolE            ....  1.000e-08 Eh
 1-El. energy change                    ....  1.000e-05 Eh
 Orbital Gradient       TolG            ....  1.000e-05
 Orbital Rotation angle TolX            ....  1.000e-05
 DIIS Error             TolErr          ....  5.000e-07


Diagonalization of the overlap matrix:
Smallest eigenvalue                        ... 1.449e-05
Time for diagonalization                   ...    0.012 sec
Threshold for overlap eigenvalues          ... 1.000e-08
Number of eigenvalues below threshold      ... 0
Time for construction of square roots      ...    0.009 sec
Total time needed                          ...    0.022 sec

Time for model grid setup =    0.267 sec

------------------------------
INITIAL GUESS: MODEL POTENTIAL
------------------------------
Loading Hartree-Fock densities                     ... done
Calculating cut-offs                               ... done
Initializing the effective Hamiltonian             ... done
Setting up the integral package (SHARK)            ... done
Starting the Coulomb interaction                   ... done (   0.2 sec)
Reading the grid                                   ... done
Mapping shells                                     ... done
Starting the XC term evaluation                    ... done (   0.2 sec)
  promolecular density results
     # of electrons  =    102.997026150
     EX              =    -82.687092654
     EC              =     -3.475142167
     EX+EC           =    -86.162234821
Transforming the Hamiltonian                       ... done (   0.0 sec)
Diagonalizing the Hamiltonian                      ... done (   0.0 sec)
Back transforming the eigenvectors                 ... done (   0.0 sec)
Now organizing SCF variables                       ... done
                      ------------------
                      INITIAL GUESS DONE (   0.7 sec)
                      ------------------
-------------------
DFT GRID GENERATION
-------------------

General Integration Accuracy     IntAcc      ... 4.388
Radial Grid Type                 RadialGrid  ... OptM3 with GC (2021)
Angular Grid (max. ang.)         AngularGrid ... 4 (Lebedev-302)
Angular grid pruning method      GridPruning ... 4 (adaptive)
Weight generation scheme         WeightScheme... Becke
Basis function cutoff            BFCut       ... 1.0000e-11
Integration weight cutoff        WCut        ... 1.0000e-14
Angular grids for H and He will be reduced by one unit
Partially contracted basis set               ... off
Rotationally invariant grid construction     ... off

Total number of grid points                  ...   138254
Total number of batches                      ...     2175
Average number of points per batch           ...       63
Average number of grid points per atom       ...     4460
Time for grid setup =    1.045 sec

--------------------
COSX GRID GENERATION
--------------------

GRIDX 1
-------
General Integration Accuracy     IntAcc      ... 3.816
Radial Grid Type                 RadialGrid  ... OptM3 with GC (2021)
Angular Grid (max. ang.)         AngularGrid ... 1 (Lebedev-50)
Angular grid pruning method      GridPruning ... 4 (adaptive)
Weight generation scheme         WeightScheme... Becke
Basis function cutoff            BFCut       ... 1.0000e-11
Integration weight cutoff        WCut        ... 1.0000e-14
Angular grids for H and He will be reduced by one unit
Partially contracted basis set               ... on
Rotationally invariant grid construction     ... off

Total number of grid points                  ...    17671
Total number of batches                      ...      293
Average number of points per batch           ...       60
Average number of grid points per atom       ...      570
UseSFitting                                  ... on

GRIDX 2
-------
General Integration Accuracy     IntAcc      ... 4.020
Radial Grid Type                 RadialGrid  ... OptM3 with GC (2021)
Angular Grid (max. ang.)         AngularGrid ... 2 (Lebedev-110)
Angular grid pruning method      GridPruning ... 4 (adaptive)
Weight generation scheme         WeightScheme... Becke
Basis function cutoff            BFCut       ... 1.0000e-11
Integration weight cutoff        WCut        ... 1.0000e-14
Angular grids for H and He will be reduced by one unit
Partially contracted basis set               ... on
Rotationally invariant grid construction     ... off

Total number of grid points                  ...    39522
Total number of batches                      ...      634
Average number of points per batch           ...       62
Average number of grid points per atom       ...     1275
UseSFitting                                  ... on

GRIDX 3
-------
General Integration Accuracy     IntAcc      ... 4.338
Radial Grid Type                 RadialGrid  ... OptM3 with GC (2021)
Angular Grid (max. ang.)         AngularGrid ... 3 (Lebedev-194)
Angular grid pruning method      GridPruning ... 4 (adaptive)
Weight generation scheme         WeightScheme... Becke
Basis function cutoff            BFCut       ... 1.0000e-11
Integration weight cutoff        WCut        ... 1.0000e-14
Angular grids for H and He will be reduced by one unit
Partially contracted basis set               ... on
Rotationally invariant grid construction     ... off

Total number of grid points                  ...    85187
Total number of batches                      ...     1348
Average number of points per batch           ...       63
Average number of grid points per atom       ...     2748
UseSFitting                                  ... on

Time for X-Grid setup             =    1.364 sec


--------------------
CPCM SOLVATION MODEL
--------------------
CPCM parameters:
  Epsilon                                         ...       9.8629
  Refrac                                          ...       1.4295
  Rsolv                                           ...       1.3000
  Surface type                                    ... GAUSSIAN VDW
  Epsilon function type                           ...         CPCM
Radii:
 Radius for C  used is    3.8550 Bohr (=   2.0400 Ang.)
 Radius for H  used is    2.4944 Bohr (=   1.3200 Ang.)
 Radius for O  used is    3.4469 Bohr (=   1.8240 Ang.)
 Radius for N  used is    3.5149 Bohr (=   1.8600 Ang.)
Calculating surface                               ...        done! (  0.0s)
GEPOL surface points                              ...         1603
GEPOL Volume                                      ...    1593.5889
GEPOL Surface-area                                ...     856.9885
Calculating surface distance matrix               ...        done! (  0.0s)
Performing Cholesky decomposition & store         ...        done! (  0.1s)
Overall time for CPCM initialization              ...                 0.1s
--------------
SCF ITERATIONS
--------------
ITER       Energy         Delta-E        Max-DP      RMS-DP      [F,P]     Damp
               ***  Starting incremental Fock matrix formation  ***
  0   -629.5727366421   0.000000000000 0.08749734  0.00227066  0.2609431 0.7000
  1   -629.7347015065  -0.161964864446 0.07343616  0.00163916  0.1017337 0.7000
                               ***Turning on DIIS***
  2   -629.7954401313  -0.060738624748 0.19629218  0.00296987  0.0348058 0.0000
  3   -629.8947495285  -0.099309397205 0.08328087  0.00114421  0.0525033 0.0000
  4   -629.9149418943  -0.020192365835 0.02133026  0.00044959  0.0112427 0.0000
  5   -629.9162343161  -0.001292421766 0.02255484  0.00022518  0.0041768 0.0000
                      *** Initiating the SOSCF procedure ***
                           *** Shutting down DIIS ***
                      *** Re-Reading the Fockian *** 
                      *** Removing any level shift *** 
ITER      Energy       Delta-E        Grad      Rot      Max-DP    RMS-DP
  6   -629.91631147  -0.0000771561  0.000213  0.000213  0.008168  0.000146
               *** Restarting incremental Fock matrix formation ***
  7   -629.91626926   0.0000422115  0.000225  0.000871  0.002686  0.000060
  8   -629.91626334   0.0000059223  0.000430  0.000605  0.001051  0.000023
  9   -629.91627256  -0.0000092242  0.000045  0.000129  0.000661  0.000011
 10   -629.91627228   0.0000002849  0.000084  0.000085  0.000552  0.000007
 11   -629.91627268  -0.0000004008  0.000004  0.000006  0.001115  0.000007
 12   -629.91627270  -0.0000000240  0.000005  0.000003  0.000960  0.000006
                  ***Gradient check signals convergence***
              ***Rediagonalizing the Fockian in SOSCF/NRSCF***

               *****************************************************
               *                     SUCCESS                       *
               *           SCF CONVERGED AFTER  13 CYCLES          *
               *****************************************************

Old exchange energy                            =    -16.789790850 Eh
New exchange energy                            =    -16.789794031 Eh
Exchange energy change after final integration =     -0.000003182 Eh
Total energy after final integration           =   -629.916275846 Eh
Final COS-X integration done in                =    13.144 sec

----------------
TOTAL SCF ENERGY
----------------

Total Energy       :         -629.91627585 Eh          -17140.89329 eV

Components:
Nuclear Repulsion  :          917.65798522 Eh           24970.74327 eV
Electronic Energy  :        -1547.57426107 Eh          -42111.63656 eV
One Electron Energy:        -2662.16952342 Eh          -72441.31558 eV
Two Electron Energy:         1114.59526235 Eh           30329.67902 eV
Max COSX asymmetry :            0.00001659 Eh               0.00045 eV
CPCM Dielectric    :           -0.09491884 Eh              -2.58287 eV

Virial components:
Potential Energy   :        -1256.03796254 Eh          -34178.53056 eV
Kinetic Energy     :          626.12168670 Eh           17037.63727 eV
Virial Ratio       :            2.00606047


DFT components:
N(Alpha)           :       51.000007176125 electrons
N(Beta)            :       51.000007176125 electrons
N(Total)           :      102.000014352250 electrons
E(X)               :      -66.688086039053 Eh       
E(C)               :       -4.057722913947 Eh       
E(XC)              :      -70.745808953000 Eh       
DFET-embed. en.    :        0.000000000000 Eh       
CPCM Solvation Model Properties:
Surface-charge          :           -1.02563784
Charge-correction       :            0.00268166 Eh               0.07297 eV
Free-energy (cav+disp)  :  This term is not implemented in the current solvation scheme

---------------
SCF CONVERGENCE
---------------

  Last Energy change         ...    3.7753e-08  Tolerance :   1.0000e-08
  Last MAX-Density change    ...    3.9968e-15  Tolerance :   1.0000e-07
  Last RMS-Density change    ...    4.6195e-17  Tolerance :   5.0000e-09
  Last Orbital Gradient      ...    5.3448e-07  Tolerance :   1.0000e-05
  Last Orbital Rotation      ...    1.6140e-06  Tolerance :   1.0000e-05

             **** THE GBW FILE WAS UPDATED (Nke_octanol.gbw) ****
             **** DENSITY Nke_octanol.scfp WAS UPDATED ****
             **** ENERGY FILE WAS UPDATED (Nke_octanol.en.tmp) ****
             **** THE GBW FILE WAS UPDATED (Nke_octanol.gbw) ****
             **** DENSITY Nke_octanol.scfp WAS UPDATED ****
----------------
ORBITAL ENERGIES
----------------

  NO   OCC          E(Eh)            E(eV) 
   0   2.0000     -19.152363      -521.1623 
   1   2.0000     -19.148473      -521.0564 
   2   2.0000     -14.430212      -392.6660 
   3   2.0000     -14.394581      -391.6965 
   4   2.0000     -14.387550      -391.5051 
   5   2.0000     -10.316154      -280.7168 
   6   2.0000     -10.312761      -280.6245 
   7   2.0000     -10.254653      -279.0433 
   8   2.0000     -10.248345      -278.8717 
   9   2.0000     -10.243068      -278.7281 
  10   2.0000     -10.221446      -278.1397 
  11   2.0000     -10.216741      -278.0117 
  12   2.0000     -10.193556      -277.3807 
  13   2.0000      -1.080600       -29.4046 
  14   2.0000      -1.064651       -28.9706 
  15   2.0000      -0.998739       -27.1771 
  16   2.0000      -0.961846       -26.1732 
  17   2.0000      -0.958989       -26.0954 
  18   2.0000      -0.795853       -21.6563 
  19   2.0000      -0.776676       -21.1344 
  20   2.0000      -0.743074       -20.2201 
  21   2.0000      -0.733468       -19.9587 
  22   2.0000      -0.701190       -19.0804 
  23   2.0000      -0.669936       -18.2299 
  24   2.0000      -0.609609       -16.5883 
  25   2.0000      -0.578220       -15.7342 
  26   2.0000      -0.572657       -15.5828 
  27   2.0000      -0.557166       -15.1613 
  28   2.0000      -0.534152       -14.5350 
  29   2.0000      -0.528731       -14.3875 
  30   2.0000      -0.512619       -13.9491 
  31   2.0000      -0.494821       -13.4648 
  32   2.0000      -0.488563       -13.2945 
  33   2.0000      -0.476460       -12.9651 
  34   2.0000      -0.470377       -12.7996 
  35   2.0000      -0.449615       -12.2346 
  36   2.0000      -0.438229       -11.9248 
  37   2.0000      -0.432095       -11.7579 
  38   2.0000      -0.424475       -11.5505 
  39   2.0000      -0.421849       -11.4791 
  40   2.0000      -0.416385       -11.3304 
  41   2.0000      -0.416103       -11.3227 
  42   2.0000      -0.410308       -11.1650 
  43   2.0000      -0.396021       -10.7763 
  44   2.0000      -0.393322       -10.7028 
  45   2.0000      -0.388487       -10.5713 
  46   2.0000      -0.373639       -10.1672 
  47   2.0000      -0.301266        -8.1979 
  48   2.0000      -0.289078        -7.8662 
  49   2.0000      -0.276570        -7.5258 
  50   2.0000      -0.270530        -7.3615 
  51   0.0000      -0.020400        -0.5551 
  52   0.0000      -0.012242        -0.3331 
  53   0.0000      -0.003482        -0.0947 
  54   0.0000       0.003601         0.0980 
  55   0.0000       0.008453         0.2300 
  56   0.0000       0.011090         0.3018 
  57   0.0000       0.024811         0.6751 
  58   0.0000       0.029931         0.8145 
  59   0.0000       0.034613         0.9419 
  60   0.0000       0.036963         1.0058 
  61   0.0000       0.045118         1.2277 
  62   0.0000       0.052079         1.4171 
  63   0.0000       0.054193         1.4747 
  64   0.0000       0.060119         1.6359 
  65   0.0000       0.063587         1.7303 
  66   0.0000       0.067452         1.8355 
  67   0.0000       0.078876         2.1463 
  68   0.0000       0.081225         2.2102 
  69   0.0000       0.088103         2.3974 
  70   0.0000       0.091382         2.4866 
  71   0.0000       0.098585         2.6826 
  72   0.0000       0.099568         2.7094 
  73   0.0000       0.101252         2.7552 
  74   0.0000       0.103714         2.8222 
  75   0.0000       0.115818         3.1516 
  76   0.0000       0.122801         3.3416 
  77   0.0000       0.124883         3.3982 
  78   0.0000       0.129319         3.5190 
  79   0.0000       0.131046         3.5659 
  80   0.0000       0.140813         3.8317 
  81   0.0000       0.147147         4.0041 
  82   0.0000       0.148635         4.0446 
  83   0.0000       0.154674         4.2089 
  84   0.0000       0.157609         4.2888 
  85   0.0000       0.163299         4.4436 
  86   0.0000       0.175544         4.7768 
  87   0.0000       0.176956         4.8152 
  88   0.0000       0.181078         4.9274 
  89   0.0000       0.184401         5.0178 
  90   0.0000       0.190372         5.1803 
  91   0.0000       0.191429         5.2090 
  92   0.0000       0.194973         5.3055 
  93   0.0000       0.200767         5.4631 
  94   0.0000       0.204067         5.5529 
  95   0.0000       0.210811         5.7364 
  96   0.0000       0.214996         5.8503 
  97   0.0000       0.221406         6.0248 
  98   0.0000       0.225578         6.1383 
  99   0.0000       0.237296         6.4572 
 100   0.0000       0.241341         6.5672 
 101   0.0000       0.245719         6.6864 
 102   0.0000       0.249876         6.7995 
 103   0.0000       0.253019         6.8850 
 104   0.0000       0.258172         7.0252 
 105   0.0000       0.266949         7.2641 
 106   0.0000       0.275568         7.4986 
 107   0.0000       0.278728         7.5846 
 108   0.0000       0.281475         7.6593 
 109   0.0000       0.287172         7.8144 
 110   0.0000       0.290987         7.9182 
 111   0.0000       0.298118         8.1122 
 112   0.0000       0.299535         8.1508 
 113   0.0000       0.306955         8.3527 
 114   0.0000       0.309995         8.4354 
 115   0.0000       0.314914         8.5692 
 116   0.0000       0.322108         8.7650 
 117   0.0000       0.330136         8.9835 
 118   0.0000       0.335747         9.1362 
 119   0.0000       0.349971         9.5232 
 120   0.0000       0.353789         9.6271 
 121   0.0000       0.366004         9.9595 
 122   0.0000       0.369665        10.0591 
 123   0.0000       0.374320        10.1858 
 124   0.0000       0.390170        10.6171 
 125   0.0000       0.402276        10.9465 
 126   0.0000       0.407869        11.0987 
 127   0.0000       0.423099        11.5131 
 128   0.0000       0.434944        11.8354 
 129   0.0000       0.445896        12.1335 
 130   0.0000       0.459554        12.5051 
 131   0.0000       0.465422        12.6648 
 132   0.0000       0.480453        13.0738 
 133   0.0000       0.504604        13.7310 
 134   0.0000       0.523976        14.2581 
 135   0.0000       0.619640        16.8613 
 136   0.0000       0.632635        17.2149 
 137   0.0000       0.644725        17.5439 
 138   0.0000       0.657523        17.8921 
 139   0.0000       0.664027        18.0691 
 140   0.0000       0.671080        18.2610 
 141   0.0000       0.688364        18.7313 
 142   0.0000       0.699827        19.0432 
 143   0.0000       0.706753        19.2317 
 144   0.0000       0.711956        19.3733 
 145   0.0000       0.723077        19.6759 
 146   0.0000       0.731662        19.9095 
 147   0.0000       0.744712        20.2646 
 148   0.0000       0.760283        20.6883 
 149   0.0000       0.781369        21.2621 
 150   0.0000       0.788339        21.4518 
 151   0.0000       0.802804        21.8454 
 152   0.0000       0.811286        22.0762 
 153   0.0000       0.819266        22.2934 
 154   0.0000       0.832444        22.6520 
 155   0.0000       0.873338        23.7647 
 156   0.0000       0.878862        23.9151 
 157   0.0000       0.886868        24.1329 
 158   0.0000       0.897219        24.4146 
 159   0.0000       0.903621        24.5888 
 160   0.0000       0.937523        25.5113 
 161   0.0000       0.945400        25.7257 
 162   0.0000       0.954709        25.9789 
 163   0.0000       0.964654        26.2496 
 164   0.0000       0.971392        26.4329 
 165   0.0000       0.986414        26.8417 
 166   0.0000       0.989748        26.9324 
 167   0.0000       0.998749        27.1773 
 168   0.0000       1.001722        27.2582 
 169   0.0000       1.012508        27.5517 
 170   0.0000       1.026799        27.9406 
 171   0.0000       1.046155        28.4673 
 172   0.0000       1.054697        28.6998 
 173   0.0000       1.065408        28.9912 
 174   0.0000       1.076839        29.3023 
 175   0.0000       1.088955        29.6320 
 176   0.0000       1.106546        30.1106 
 177   0.0000       1.108734        30.1702 
 178   0.0000       1.130343        30.7582 
 179   0.0000       1.145127        31.1605 
 180   0.0000       1.147520        31.2256 
 181   0.0000       1.166222        31.7345 
 182   0.0000       1.176772        32.0216 
 183   0.0000       1.200865        32.6772 
 184   0.0000       1.220000        33.1979 
 185   0.0000       1.243050        33.8251 
 186   0.0000       1.259850        34.2823 
 187   0.0000       1.289242        35.0821 
 188   0.0000       1.300471        35.3876 
 189   0.0000       1.307506        35.5791 
 190   0.0000       1.331587        36.2343 
 191   0.0000       1.341532        36.5049 
 192   0.0000       1.375271        37.4230 
 193   0.0000       1.395241        37.9664 
 194   0.0000       1.399128        38.0722 
 195   0.0000       1.400457        38.1084 
 196   0.0000       1.416561        38.5466 
 197   0.0000       1.434102        39.0239 
 198   0.0000       1.450301        39.4647 
 199   0.0000       1.465653        39.8824 
 200   0.0000       1.489803        40.5396 
 201   0.0000       1.517200        41.2851 
 202   0.0000       1.530027        41.6341 
 203   0.0000       1.548035        42.1242 
 204   0.0000       1.553261        42.2664 
 205   0.0000       1.597145        43.4605 
 206   0.0000       1.627461        44.2855 
 207   0.0000       1.651873        44.9497 
 208   0.0000       1.681792        45.7639 
 209   0.0000       1.726938        46.9924 
 210   0.0000       1.749566        47.6081 
 211   0.0000       1.786176        48.6043 
 212   0.0000       1.793562        48.8053 
 213   0.0000       1.801112        49.0108 
 214   0.0000       1.821104        49.5548 
 215   0.0000       1.848400        50.2975 
 216   0.0000       1.853849        50.4458 
 217   0.0000       1.870761        50.9060 
 218   0.0000       1.898682        51.6658 
 219   0.0000       1.903604        51.7997 
 220   0.0000       1.921000        52.2731 
 221   0.0000       1.926546        52.4240 
 222   0.0000       1.941230        52.8236 
 223   0.0000       1.948647        53.0254 
 224   0.0000       1.973444        53.7001 
 225   0.0000       1.990164        54.1551 
 226   0.0000       2.002917        54.5021 
 227   0.0000       2.024641        55.0933 
 228   0.0000       2.036540        55.4171 
 229   0.0000       2.043878        55.6168 
 230   0.0000       2.058004        56.0011 
 231   0.0000       2.074342        56.4457 
 232   0.0000       2.102592        57.2144 
 233   0.0000       2.110999        57.4432 
 234   0.0000       2.144816        58.3634 
 235   0.0000       2.163854        58.8815 
 236   0.0000       2.184866        59.4532 
 237   0.0000       2.208517        60.0968 
 238   0.0000       2.240667        60.9716 
 239   0.0000       2.259626        61.4876 
 240   0.0000       2.264707        61.6258 
 241   0.0000       2.282976        62.1229 
 242   0.0000       2.311128        62.8890 
 243   0.0000       2.322789        63.2063 
 244   0.0000       2.341962        63.7280 
 245   0.0000       2.360233        64.2252 
 246   0.0000       2.378992        64.7357 
 247   0.0000       2.394207        65.1497 
 248   0.0000       2.419930        65.8496 
 249   0.0000       2.453451        66.7618 
 250   0.0000       2.459678        66.9312 
 251   0.0000       2.477909        67.4273 
 252   0.0000       2.488719        67.7215 
 253   0.0000       2.518547        68.5332 
 254   0.0000       2.584197        70.3196 
 255   0.0000       2.601766        70.7976 
 256   0.0000       2.616032        71.1859 
 257   0.0000       2.621535        71.3356 
 258   0.0000       2.631994        71.6202 
 259   0.0000       2.665850        72.5415 
 260   0.0000       2.698910        73.4411 
 261   0.0000       2.723306        74.1049 
 262   0.0000       2.784033        75.7574 
 263   0.0000       2.821994        76.7904 
 264   0.0000       2.940503        80.0152 
 265   0.0000       2.966732        80.7289 
 266   0.0000       3.095084        84.2215 
 267   0.0000       3.155441        85.8639 
 268   0.0000       3.192152        86.8629 
 269   0.0000       3.223452        87.7146 

                    ********************************
                    * MULLIKEN POPULATION ANALYSIS *
                    ********************************

-----------------------
MULLIKEN ATOMIC CHARGES
-----------------------
   0 C :   -1.068473
   1 H :    0.254855
   2 H :    0.261333
   3 H :    0.247632
   4 C :    0.923688
   5 O :   -0.548636
   6 N :   -0.140189
   7 C :   -0.829269
   8 H :    0.276485
   9 H :    0.261076
  10 C :   -0.451356
  11 H :    0.254284
  12 H :    0.256117
  13 C :   -0.090374
  14 H :    0.260291
  15 H :    0.263300
  16 C :    0.585896
  17 N :    0.007389
  18 O :   -0.637803
  19 C :   -0.550255
  20 H :    0.236541
  21 H :    0.241389
  22 H :    0.250538
  23 C :   -0.555627
  24 H :    0.242390
  25 H :    0.259326
  26 H :    0.233587
  27 N :   -1.059740
  28 H :    0.505663
  29 H :    0.524131
  30 H :    0.585814
Sum of atomic charges:    1.0000000

--------------------------------
MULLIKEN REDUCED ORBITAL CHARGES
--------------------------------
  0 C s       :     3.818146  s :     3.818146
      pz      :     1.102996  p :     3.219049
      px      :     1.108764
      py      :     1.007289
      dz2     :     0.002539  d :     0.031279
      dxz     :     0.008112
      dyz     :     0.009185
      dx2y2   :     0.005390
      dxy     :     0.006052
  1 H s       :     0.745145  s :     0.745145
  2 H s       :     0.738667  s :     0.738667
  3 H s       :     0.752368  s :     0.752368
  4 C s       :     2.845775  s :     2.845775
      pz      :     0.710216  p :     2.117488
      px      :     0.733408
      py      :     0.673864
      dz2     :     0.020825  d :     0.113049
      dxz     :     0.029107
      dyz     :     0.011759
      dx2y2   :     0.019879
      dxy     :     0.031478
  5 O s       :     3.936078  s :     3.936078
      pz      :     1.644558  p :     4.587204
      px      :     1.304890
      py      :     1.637756
      dz2     :     0.003138  d :     0.025354
      dxz     :     0.007025
      dyz     :     0.001569
      dx2y2   :     0.006817
      dxy     :     0.006805
  6 N s       :     3.217004  s :     3.217004
      pz      :     1.310543  p :     3.887177
      px      :     1.176297
      py      :     1.400337
      dz2     :     0.006557  d :     0.036008
      dxz     :     0.008516
      dyz     :     0.005937
      dx2y2   :     0.006563
      dxy     :     0.008436
  7 C s       :     3.930138  s :     3.930138
      pz      :     0.952611  p :     2.846905
      px      :     1.049373
      py      :     0.844921
      dz2     :     0.006618  d :     0.052227
      dxz     :     0.011071
      dyz     :     0.012217
      dx2y2   :     0.009913
      dxy     :     0.012408
  8 H s       :     0.723515  s :     0.723515
  9 H s       :     0.738924  s :     0.738924
 10 C s       :     3.503315  s :     3.503315
      pz      :     1.140455  p :     2.893918
      px      :     0.797012
      py      :     0.956452
      dz2     :     0.012138  d :     0.054123
      dxz     :     0.009016
      dyz     :     0.008499
      dx2y2   :     0.011676
      dxy     :     0.012794
 11 H s       :     0.745716  s :     0.745716
 12 H s       :     0.743883  s :     0.743883
 13 C s       :     3.249829  s :     3.249829
      pz      :     0.739295  p :     2.791797
      px      :     1.092569
      py      :     0.959933
      dz2     :     0.011833  d :     0.048748
      dxz     :     0.005730
      dyz     :     0.014658
      dx2y2   :     0.008400
      dxy     :     0.008127
 14 H s       :     0.739709  s :     0.739709
 15 H s       :     0.736700  s :     0.736700
 16 C s       :     3.268558  s :     3.268558
      pz      :     0.695830  p :     2.038123
      px      :     0.742634
      py      :     0.599659
      dz2     :     0.014424  d :     0.107423
      dxz     :     0.025811
      dyz     :     0.012805
      dx2y2   :     0.027952
      dxy     :     0.026431
 17 N s       :     3.226689  s :     3.226689
      pz      :     1.397222  p :     3.727300
      px      :     1.099669
      py      :     1.230409
      dz2     :     0.005544  d :     0.038622
      dxz     :     0.007756
      dyz     :     0.005270
      dx2y2   :     0.009495
      dxy     :     0.010556
 18 O s       :     3.866110  s :     3.866110
      pz      :     1.583957  p :     4.750237
      px      :     1.499237
      py      :     1.667043
      dz2     :     0.004412  d :     0.021457
      dxz     :     0.005225
      dyz     :     0.002704
      dx2y2   :     0.003778
      dxy     :     0.005339
 19 C s       :     3.449804  s :     3.449804
      pz      :     0.999599  p :     3.053612
      px      :     1.163581
      py      :     0.890432
      dz2     :     0.008304  d :     0.046838
      dxz     :     0.008466
      dyz     :     0.013233
      dx2y2   :     0.007547
      dxy     :     0.009289
 20 H s       :     0.763459  s :     0.763459
 21 H s       :     0.758611  s :     0.758611
 22 H s       :     0.749462  s :     0.749462
 23 C s       :     3.430479  s :     3.430479
      pz      :     1.092536  p :     3.078541
      px      :     0.895604
      py      :     1.090402
      dz2     :     0.013307  d :     0.046607
      dxz     :     0.007468
      dyz     :     0.005336
      dx2y2   :     0.008839
      dxy     :     0.011657
 24 H s       :     0.757610  s :     0.757610
 25 H s       :     0.740674  s :     0.740674
 26 H s       :     0.766413  s :     0.766413
 27 N s       :     3.856281  s :     3.856281
      pz      :     1.267504  p :     4.170223
      px      :     1.483340
      py      :     1.419379
      dz2     :     0.008484  d :     0.033236
      dxz     :     0.003401
      dyz     :     0.008699
      dx2y2   :     0.002025
      dxy     :     0.010628
 28 H s       :     0.494337  s :     0.494337
 29 H s       :     0.475869  s :     0.475869
 30 H s       :     0.414186  s :     0.414186


                     *******************************
                     * LOEWDIN POPULATION ANALYSIS *
                     *******************************

----------------------
LOEWDIN ATOMIC CHARGES
----------------------
   0 C :   -0.468065
   1 H :    0.222578
   2 H :    0.224631
   3 H :    0.219826
   4 C :    0.121436
   5 O :   -0.395913
   6 N :   -0.325656
   7 C :   -0.207635
   8 H :    0.254297
   9 H :    0.249434
  10 C :   -0.244358
  11 H :    0.240149
  12 H :    0.232800
  13 C :   -0.248148
  14 H :    0.227376
  15 H :    0.233291
  16 C :    0.124959
  17 N :   -0.290387
  18 O :   -0.495687
  19 C :   -0.343449
  20 H :    0.212819
  21 H :    0.216570
  22 H :    0.233564
  23 C :   -0.357311
  24 H :    0.218360
  25 H :    0.229811
  26 H :    0.220578
  27 N :   -0.432958
  28 H :    0.367912
  29 H :    0.356729
  30 H :    0.402447

-------------------------------
LOEWDIN REDUCED ORBITAL CHARGES
-------------------------------
  0 C s       :     2.989049  s :     2.989049
      pz      :     1.156586  p :     3.417782
      px      :     1.153254
      py      :     1.107942
      dz2     :     0.004687  d :     0.061234
      dxz     :     0.015306
      dyz     :     0.018073
      dx2y2   :     0.010447
      dxy     :     0.012720
  1 H s       :     0.777422  s :     0.777422
  2 H s       :     0.775369  s :     0.775369
  3 H s       :     0.780174  s :     0.780174
  4 C s       :     2.794742  s :     2.794742
      pz      :     0.896397  p :     2.823201
      px      :     0.999077
      py      :     0.927727
      dz2     :     0.046262  d :     0.260620
      dxz     :     0.070290
      dyz     :     0.025973
      dx2y2   :     0.044425
      dxy     :     0.073671
  5 O s       :     3.538861  s :     3.538861
      pz      :     1.654490  p :     4.801026
      px      :     1.493337
      py      :     1.653198
      dz2     :     0.007332  d :     0.056027
      dxz     :     0.014877
      dyz     :     0.002490
      dx2y2   :     0.017035
      dxy     :     0.014292
  6 N s       :     3.105465  s :     3.105465
      pz      :     1.397213  p :     4.126008
      px      :     1.303953
      py      :     1.424843
      dz2     :     0.015899  d :     0.094183
      dxz     :     0.023508
      dyz     :     0.016810
      dx2y2   :     0.016893
      dxy     :     0.021074
  7 C s       :     2.890200  s :     2.890200
      pz      :     1.084260  p :     3.207886
      px      :     1.112546
      py      :     1.011080
      dz2     :     0.012939  d :     0.109549
      dxz     :     0.022597
      dyz     :     0.026796
      dx2y2   :     0.020921
      dxy     :     0.026296
  8 H s       :     0.745703  s :     0.745703
  9 H s       :     0.750566  s :     0.750566
 10 C s       :     2.905390  s :     2.905390
      pz      :     1.145269  p :     3.223249
      px      :     0.967726
      py      :     1.110254
      dz2     :     0.025074  d :     0.115720
      dxz     :     0.019294
      dyz     :     0.015773
      dx2y2   :     0.025227
      dxy     :     0.030351
 11 H s       :     0.759851  s :     0.759851
[...]
     24       0.000284   0.000011   0.000055
     25      -0.000232   0.000167  -0.000048
     26       0.000882  -0.000149   0.000053
     27      -0.000671  -0.000414  -0.000040
     28       0.000192   0.000379   0.000038
     29       0.000019   0.000155  -0.000034
     30      -0.000019  -0.000210   0.000145
     31      -0.000015  -0.000124   0.000465
     32       0.000012   0.000355   0.000000
     33       0.000238   0.001809  -0.002003
     34       0.000282   0.000933  -0.001098
     35      -0.000154  -0.001079   0.000962
     36      -0.000003  -0.001051  -0.000227
     37      -0.000015   0.001369   0.000508
     38      -0.000036   0.001557   0.001104
     39       0.000001   0.000804  -0.000578
     40       0.000014   0.000873  -0.000536
     41      -0.000018  -0.000389   0.000526
     42       0.000161  -0.005974   0.000200
     43       0.000045  -0.000970   0.000480
     44       0.000106  -0.002242  -0.000039
     45      -0.000107  -0.007231   0.007360
     46      -0.000178  -0.008732   0.009743
     47       0.000154   0.010601  -0.011163
     48      -0.000705   0.000474  -0.000022
     49       0.000467  -0.000155   0.000029
     50       0.000802  -0.000459   0.000024
     51      -0.000202  -0.000212   0.000007
     52      -0.000111  -0.000066  -0.000003
     53      -0.000021   0.000098  -0.000007
     54      -0.000193  -0.000569   0.000048
     55      -0.000687   0.000033  -0.000007
     56      -0.000493   0.000232  -0.000013
     57      -0.074564   0.000013  -0.000002
     58      -0.000845   0.000072   0.000001
     59       0.052161   0.000026  -0.000002
     60       0.009181  -0.000111  -0.000009
     61       0.171975  -0.000438  -0.000005
     62      -0.117814   0.000196  -0.000004
     63       0.166015  -0.000426   0.000027
     64      -0.038747  -0.000023  -0.000005
     65       0.109719  -0.000248   0.000006
     66       0.722796   0.000067  -0.000017
     67      -0.112553   0.000113  -0.000007
     68      -0.609667   0.000037  -0.000023
     69      -0.000183   0.000043  -0.000001
     70      -0.001678  -0.000031   0.000003
     71       0.000141  -0.000040   0.000001
     72       0.000257   0.000081  -0.000004
     73       0.000374   0.000141  -0.000009
     74      -0.000230   0.000313  -0.000022
     75      -0.003154  -0.000360   0.000028
     76       0.003946   0.000329  -0.000024
     77      -0.002588  -0.000032   0.000011
     78       0.008746  -0.000286   0.000001
     79       0.011830  -0.000196  -0.000015
     80      -0.003889   0.000170  -0.000005
     81      -0.000185   0.053194   0.007751
     82      -0.000059  -0.006432  -0.075501
     83      -0.000094  -0.028532   0.029405
     84      -0.000131  -0.269826   0.295426
     85      -0.000211  -0.487167   0.499427
     86       0.000192   0.406811  -0.425539
     87      -0.000189  -0.417690  -0.411862
     88       0.000222   0.586236   0.552492
     89      -0.000002   0.004876   0.012633
     90       0.002953  -0.037022   0.006409
     91       0.000803  -0.013175  -0.009121
     92       0.001119  -0.023029   0.006380


-----------
IR SPECTRUM
-----------

 Mode   freq       eps      Int      T**2         TX        TY        TZ
       cm**-1   L/(mol*cm) km/mol    a.u.
----------------------------------------------------------------------------
  6:     34.34   0.002256   11.40  0.020499  ( 0.015135  0.114161 -0.085070)
  7:     59.22   0.000478    2.42  0.002520  (-0.027273  0.018518 -0.037853)
  8:     83.84   0.002371   11.98  0.008825  (-0.051752  0.076895 -0.015280)
  9:     96.25   0.001059    5.35  0.003433  ( 0.002157  0.037260 -0.045171)
 10:     99.78   0.002534   12.80  0.007924  (-0.032033  0.062042  0.055214)
 11:    118.05   0.000746    3.77  0.001973  (-0.004775 -0.010504 -0.042888)
 12:    146.69   0.001014    5.12  0.002157  (-0.011499 -0.016373  0.041907)
 13:    158.22   0.000201    1.02  0.000396  ( 0.004753  0.017766  0.007623)
 14:    178.73   0.001409    7.12  0.002460  ( 0.031349  0.033529  0.018789)
 15:    200.12   0.008384   42.37  0.013074  ( 0.105753  0.042088  0.010894)
 16:    235.69   0.011018   55.68  0.014589  ( 0.115424 -0.028134  0.021777)
 17:    249.97   0.001262    6.38  0.001576  ( 0.038499  0.004480 -0.008581)
 18:    289.21   0.002179   11.01  0.002352  ( 0.020121  0.044103 -0.001287)
 19:    318.05   0.002878   14.55  0.002824  (-0.027373  0.040125 -0.021559)
 20:    343.08   0.001456    7.36  0.001324  ( 0.005886  0.000758 -0.035901)
 21:    384.96   0.002923   14.77  0.002369  ( 0.042673 -0.000504  0.023406)
 22:    412.41   0.008255   41.72  0.006247  (-0.056116 -0.054778  0.009851)
 23:    420.12   0.002539   12.83  0.001886  ( 0.037597  0.021480  0.003283)
 24:    452.13   0.001003    5.07  0.000692  (-0.017579  0.018616  0.006067)
 25:    491.74   0.001128    5.70  0.000716  (-0.012139 -0.003925  0.023520)
 26:    532.17   0.005085   25.70  0.002982  ( 0.042770  0.027478 -0.019934)
 27:    570.23   0.004617   23.33  0.002527  ( 0.037746 -0.013000  0.030542)
 28:    606.80   0.001117    5.64  0.000574  ( 0.018513 -0.014948 -0.002871)
 29:    613.44   0.003062   15.47  0.001558  ( 0.022000  0.017224 -0.027872)
 30:    640.73   0.005724   28.92  0.002788  (-0.032351 -0.041208 -0.006557)
 31:    760.84   0.000441    2.23  0.000181  (-0.013080 -0.002653  0.001631)
 32:    824.89   0.009398   47.49  0.003555  ( 0.053959 -0.015852 -0.019810)
 33:    854.88   0.004068   20.56  0.001485  ( 0.027655  0.026715 -0.002568)
 34:    896.43   0.006012   30.38  0.002093  (-0.045684 -0.002390  0.000417)
 35:    953.47   0.002821   14.26  0.000923  ( 0.018313  0.005229  0.023677)
 36:    969.77   0.002570   12.99  0.000827  ( 0.021336  0.018238  0.006256)
 37:    989.83   0.003966   20.04  0.001250  (-0.028324  0.009033 -0.019142)
 38:   1015.11   0.007923   40.04  0.002436  (-0.033328  0.023498 -0.027801)
 39:   1049.85   0.005433   27.46  0.001615  ( 0.004837  0.005685 -0.039488)
 40:   1064.94   0.002236   11.30  0.000655  (-0.007408  0.019721  0.014538)
 41:   1082.55   0.006122   30.94  0.001765  ( 0.032902 -0.010349 -0.023979)
 42:   1091.16   0.008107   40.97  0.002319  ( 0.001638  0.039228 -0.027878)
 43:   1125.26   0.000792    4.00  0.000220  (-0.013981  0.002019  0.004469)
 44:   1143.77   0.019782   99.97  0.005397  ( 0.070800  0.008548  0.017651)
 45:   1171.46   0.002969   15.00  0.000791  ( 0.015254  0.017986 -0.015320)
 46:   1184.16   0.025123  126.96  0.006621  (-0.034319 -0.069976  0.023373)
 47:   1188.90   0.005726   28.94  0.001503  ( 0.029984 -0.003548  0.024320)
 48:   1236.16   0.007695   38.89  0.001943  (-0.030193  0.013373 -0.029190)
 49:   1278.47   0.012182   61.56  0.002974  (-0.033984 -0.042149 -0.006489)
 50:   1308.47   0.014636   73.97  0.003491  (-0.021239  0.037708 -0.040221)
 51:   1348.47   0.005741   29.01  0.001329  (-0.002379  0.019683 -0.030587)
 52:   1362.59   0.005276   26.66  0.001208  ( 0.023297  0.024680  0.007521)
 53:   1385.52   0.013603   68.75  0.003064  (-0.032302 -0.031706  0.031863)
 54:   1412.14   0.003021   15.27  0.000668  (-0.014643 -0.004437 -0.020819)
 55:   1414.24   0.004113   20.79  0.000908  (-0.028780 -0.007600  0.004648)
 56:   1429.65   0.009078   45.88  0.001982  ( 0.002000 -0.038809  0.021711)
 57:   1445.17   0.010714   54.14  0.002314  ( 0.043526  0.016129 -0.012606)
 58:   1455.96   0.015010   75.86  0.003217  (-0.008434  0.055964 -0.003760)
 59:   1464.48   0.030863  155.97  0.006577  ( 0.050899 -0.032499  0.054126)
 60:   1478.43   0.004559   23.04  0.000962  ( 0.012182  0.014560  0.024534)
 61:   1482.10   0.021781  110.07  0.004586  ( 0.034258  0.016175 -0.056132)
 62:   1493.98   0.017136   86.60  0.003579  (-0.007110  0.047486 -0.035692)
 63:   1498.88   0.007113   35.95  0.001481  (-0.021368 -0.008101  0.030964)
 64:   1500.76   0.004500   22.74  0.000936  (-0.012906  0.004048 -0.027435)
 65:   1505.85   0.001146    5.79  0.000237  (-0.002511 -0.013960  0.006024)
 66:   1511.86   0.000440    2.23  0.000091  (-0.007929  0.003245  0.004182)
 67:   1514.84   0.002208   11.16  0.000455  ( 0.008537 -0.012872  0.014710)
 68:   1518.20   0.001961    9.91  0.000403  (-0.018074  0.007784  0.003979)
 69:   1544.25   0.021853  110.44  0.004416  ( 0.019479 -0.051689 -0.036945)
 70:   1563.21   0.093226  471.13  0.018611  (-0.111790 -0.002702  0.078143)
 71:   1653.10   0.105037  530.81  0.019828  (-0.132337 -0.037215  0.030503)
 72:   1676.83   0.112724  569.66  0.020978  ( 0.114190 -0.023942  0.085824)
 73:   1696.56   0.032641  164.95  0.006004  (-0.068159  0.004436  0.036586)
 74:   1699.34   0.020629  104.25  0.003788  (-0.040667 -0.043829 -0.014613)
 75:   2943.99   0.304667  1539.66  0.032295  (-0.171139 -0.046205 -0.029520)
 76:   3052.23   0.008054   40.70  0.000823  ( 0.002810 -0.025042 -0.013726)
 77:   3057.11   0.007180   36.29  0.000733  ( 0.026161  0.006799 -0.001526)
 78:   3063.21   0.000768    3.88  0.000078  ( 0.008522  0.002282 -0.000628)
 79:   3070.03   0.005991   30.27  0.000609  (-0.011845 -0.008533 -0.019895)
 80:   3090.38   0.001788    9.03  0.000181  (-0.006151 -0.007388  0.009387)
 81:   3111.06   0.005974   30.19  0.000599  (-0.009482  0.015984 -0.015932)
 82:   3115.03   0.002089   10.56  0.000209  ( 0.004663  0.007421 -0.011510)
 83:   3125.12   0.001579    7.98  0.000158  (-0.007184  0.008010  0.006472)
 84:   3134.37   0.003026   15.29  0.000301  ( 0.002857 -0.010866  0.013231)
 85:   3144.53   0.001129    5.70  0.000112  ( 0.008709  0.003140 -0.005127)
 86:   3163.83   0.000349    1.77  0.000034  (-0.002310  0.001721 -0.005115)
 87:   3165.94   0.002558   12.93  0.000252  (-0.007909 -0.009280 -0.010174)
 88:   3167.56   0.001768    8.94  0.000174  ( 0.004850 -0.008186  0.009148)
 89:   3180.19   0.001721    8.70  0.000169  ( 0.010773  0.007217 -0.000857)
 90:   3195.12   0.000566    2.86  0.000055  (-0.002487  0.003623  0.006001)
 91:   3462.23   0.022927  115.86  0.002066  (-0.041966  0.005212  0.016677)
 92:   3521.95   0.023907  120.81  0.002118  (-0.006151  0.043007 -0.015194)

* The epsilon (eps) is given for a Dirac delta lineshape.
** The dipole moment derivative (T) already includes vibrational overlap.

The first frequency considered to be a vibration is 6
The total number of vibrations considered is 87


--------------------------
THERMOCHEMISTRY AT 298.15K
--------------------------

Temperature         ... 298.15 K
Pressure            ... 1.00 atm
Total Mass          ... 188.25 AMU

Throughout the following assumptions are being made:
  (1) The electronic state is orbitally nondegenerate
  (2) There are no thermally accessible electronically excited states
  (3) Hindered rotations indicated by low frequency modes are not
      treated as such but are treated as vibrations and this may
      cause some error
  (4) All equations used are the standard statistical mechanics
      equations for an ideal gas
  (5) All vibrations are strictly harmonic

freq.      34.34  E(vib)   ...       0.54 
freq.      59.22  E(vib)   ...       0.51 
freq.      83.84  E(vib)   ...       0.48 
freq.      96.25  E(vib)   ...       0.47 
freq.      99.78  E(vib)   ...       0.46 
freq.     118.05  E(vib)   ...       0.44 
freq.     146.69  E(vib)   ...       0.41 
freq.     158.22  E(vib)   ...       0.39 
freq.     178.73  E(vib)   ...       0.37 
freq.     200.12  E(vib)   ...       0.35 
freq.     235.69  E(vib)   ...       0.32 
freq.     249.97  E(vib)   ...       0.31 
freq.     289.21  E(vib)   ...       0.27 
freq.     318.05  E(vib)   ...       0.25 
freq.     343.08  E(vib)   ...       0.23 
freq.     384.96  E(vib)   ...       0.20 
freq.     412.41  E(vib)   ...       0.19 
freq.     420.12  E(vib)   ...       0.18 
freq.     452.13  E(vib)   ...       0.16 
freq.     491.74  E(vib)   ...       0.14 
freq.     532.17  E(vib)   ...       0.13 
freq.     570.23  E(vib)   ...       0.11 
freq.     606.80  E(vib)   ...       0.10 
freq.     613.44  E(vib)   ...       0.10 
freq.     640.73  E(vib)   ...       0.09 
freq.     760.84  E(vib)   ...       0.06 
freq.     824.89  E(vib)   ...       0.04 
freq.     854.88  E(vib)   ...       0.04 
freq.     896.43  E(vib)   ...       0.03 
freq.     953.47  E(vib)   ...       0.03 
freq.     969.77  E(vib)   ...       0.03 
freq.     989.83  E(vib)   ...       0.02 
freq.    1015.11  E(vib)   ...       0.02 
freq.    1049.85  E(vib)   ...       0.02 
freq.    1064.94  E(vib)   ...       0.02 
freq.    1082.55  E(vib)   ...       0.02 
freq.    1091.16  E(vib)   ...       0.02 
freq.    1125.26  E(vib)   ...       0.01 
freq.    1143.77  E(vib)   ...       0.01 
freq.    1171.46  E(vib)   ...       0.01 
freq.    1184.16  E(vib)   ...       0.01 
freq.    1188.90  E(vib)   ...       0.01 
freq.    1236.16  E(vib)   ...       0.01 
freq.    1278.47  E(vib)   ...       0.01 
freq.    1308.47  E(vib)   ...       0.01 
freq.    1348.47  E(vib)   ...       0.01 
freq.    1362.59  E(vib)   ...       0.01 
freq.    1385.52  E(vib)   ...       0.00 
freq.    1412.14  E(vib)   ...       0.00 
freq.    1414.24  E(vib)   ...       0.00 
freq.    1429.65  E(vib)   ...       0.00 
freq.    1445.17  E(vib)   ...       0.00 
freq.    1455.96  E(vib)   ...       0.00 
freq.    1464.48  E(vib)   ...       0.00 
freq.    1478.43  E(vib)   ...       0.00 
freq.    1482.10  E(vib)   ...       0.00 
freq.    1493.98  E(vib)   ...       0.00 
freq.    1498.88  E(vib)   ...       0.00 
freq.    1500.76  E(vib)   ...       0.00 
freq.    1505.85  E(vib)   ...       0.00 
freq.    1511.86  E(vib)   ...       0.00 
freq.    1514.84  E(vib)   ...       0.00 
freq.    1518.20  E(vib)   ...       0.00 
freq.    1544.25  E(vib)   ...       0.00 
freq.    1563.21  E(vib)   ...       0.00 
freq.    1653.10  E(vib)   ...       0.00 
freq.    1676.83  E(vib)   ...       0.00 
freq.    1696.56  E(vib)   ...       0.00 
freq.    1699.34  E(vib)   ...       0.00 
freq.    2943.99  E(vib)   ...       0.00 
freq.    3052.23  E(vib)   ...       0.00 
freq.    3057.11  E(vib)   ...       0.00 
freq.    3063.21  E(vib)   ...       0.00 
freq.    3070.03  E(vib)   ...       0.00 
freq.    3090.38  E(vib)   ...       0.00 
freq.    3111.06  E(vib)   ...       0.00 
freq.    3115.03  E(vib)   ...       0.00 
freq.    3125.12  E(vib)   ...       0.00 
freq.    3134.37  E(vib)   ...       0.00 
freq.    3144.53  E(vib)   ...       0.00 
freq.    3163.83  E(vib)   ...       0.00 
freq.    3165.94  E(vib)   ...       0.00 
freq.    3167.56  E(vib)   ...       0.00 
freq.    3180.19  E(vib)   ...       0.00 
freq.    3195.12  E(vib)   ...       0.00 
freq.    3462.23  E(vib)   ...       0.00 
freq.    3521.95  E(vib)   ...       0.00 

------------
INNER ENERGY
------------

The inner energy is: U= E(el) + E(ZPE) + E(vib) + E(rot) + E(trans)
    E(el)   - is the total energy from the electronic structure calculation
              = E(kin-el) + E(nuc-el) + E(el-el) + E(nuc-nuc)
    E(ZPE)  - the the zero temperature vibrational energy from the frequency calculation
    E(vib)  - the the finite temperature correction to E(ZPE) due to population
              of excited vibrational states
    E(rot)  - is the rotational thermal energy
    E(trans)- is the translational thermal energy

Summary of contributions to the inner energy U:
Electronic energy                ...   -629.97593488 Eh
Zero point energy                ...      0.27735934 Eh     174.05 kcal/mol
Thermal vibrational correction   ...      0.01229795 Eh       7.72 kcal/mol
Thermal rotational correction    ...      0.00141627 Eh       0.89 kcal/mol
Thermal translational correction ...      0.00141627 Eh       0.89 kcal/mol
-----------------------------------------------------------------------
Total thermal energy                   -629.68344504 Eh


Summary of corrections to the electronic energy:
(perhaps to be used in another calculation)
Total thermal correction                  0.01513049 Eh       9.49 kcal/mol
Non-thermal (ZPE) correction              0.27735934 Eh     174.05 kcal/mol
-----------------------------------------------------------------------
Total correction                          0.29248983 Eh     183.54 kcal/mol


--------
ENTHALPY
--------

The enthalpy is H = U + kB*T
                kB is Boltzmann's constant
Total free energy                 ...   -629.68344504 Eh 
Thermal Enthalpy correction       ...      0.00094421 Eh       0.59 kcal/mol
-----------------------------------------------------------------------
Total Enthalpy                    ...   -629.68250084 Eh


Note: Only C1 symmetry has been detected, increase convergence thresholds 
      if your molecule has a higher symmetry. Symmetry factor of 1.0 is   
      used for the rotational entropy correction. 
 

Note: Rotational entropy computed according to Herzberg 
Infrared and Raman Spectra, Chapter V,1, Van Nostrand Reinhold, 1945 
Point Group:  C1, Symmetry Number:   1  
Rotational constants in cm-1:     0.036829     0.018193     0.015301 

Vibrational entropy computed according to the QRRHO of S. Grimme
Chem.Eur.J. 2012 18 9955


-------
ENTROPY
-------

The entropy contributions are T*S = T*(S(el)+S(vib)+S(rot)+S(trans))
     S(el)   - electronic entropy
     S(vib)  - vibrational entropy
     S(rot)  - rotational entropy
     S(trans)- translational entropy
The entropies will be listed as multiplied by the temperature to get
units of energy

Electronic entropy                ...      0.00000000 Eh      0.00 kcal/mol
Vibrational entropy               ...      0.02186773 Eh     13.72 kcal/mol
Rotational entropy                ...      0.01493419 Eh      9.37 kcal/mol
Translational entropy             ...      0.01976718 Eh     12.40 kcal/mol
-----------------------------------------------------------------------
Final entropy term                ...      0.05656911 Eh     35.50 kcal/mol

In case the symmetry of your molecule has not been determined correctly
or in case you have a reason to use a different symmetry number we print 
out the resulting rotational entropy values for sn=1,12 :
 --------------------------------------------------------
|  sn= 1 | S(rot)=       0.01493419 Eh      9.37 kcal/mol|
|  sn= 2 | S(rot)=       0.01427974 Eh      8.96 kcal/mol|
|  sn= 3 | S(rot)=       0.01389691 Eh      8.72 kcal/mol|
|  sn= 4 | S(rot)=       0.01362528 Eh      8.55 kcal/mol|
|  sn= 5 | S(rot)=       0.01341459 Eh      8.42 kcal/mol|
|  sn= 6 | S(rot)=       0.01324245 Eh      8.31 kcal/mol|
|  sn= 7 | S(rot)=       0.01309690 Eh      8.22 kcal/mol|
|  sn= 8 | S(rot)=       0.01297083 Eh      8.14 kcal/mol|
|  sn= 9 | S(rot)=       0.01285962 Eh      8.07 kcal/mol|
|  sn=10 | S(rot)=       0.01276014 Eh      8.01 kcal/mol|
|  sn=11 | S(rot)=       0.01267015 Eh      7.95 kcal/mol|
|  sn=12 | S(rot)=       0.01258799 Eh      7.90 kcal/mol|
 --------------------------------------------------------


-------------------
GIBBS FREE ENERGY
-------------------

The Gibbs free energy is G = H - T*S

Total enthalpy                    ...   -629.68250084 Eh 
Total entropy correction          ...     -0.05656911 Eh    -35.50 kcal/mol
-----------------------------------------------------------------------
Final Gibbs free energy         ...   -629.73906995 Eh

For completeness - the Gibbs free energy minus the electronic energy
G-E(el)                           ...      0.23686493 Eh    148.63 kcal/mol


Timings for individual modules:

Sum of individual times         ...     3314.259 sec (=  55.238 min)
GTO integral calculation        ...       30.564 sec (=   0.509 min)   0.9 %
SCF iterations                  ...     1829.529 sec (=  30.492 min)  55.2 %
SCF Gradient evaluation         ...      521.150 sec (=   8.686 min)  15.7 %
Geometry relaxation             ...        1.650 sec (=   0.027 min)   0.0 %
Analytical frequency calculation...      931.367 sec (=  15.523 min)  28.1 %
                             ****ORCA TERMINATED NORMALLY****
TOTAL RUN TIME: 0 days 0 hours 55 minutes 24 seconds 47 msec
