
                                 *****************
                                 * O   R   C   A *
                                 *****************

                                            #,                                       
                                            ###                                      
                                            ####                                     
                                            #####                                    
                                            ######                                   
                                           ########,                                 
                                     ,,################,,,,,                         
                               ,,#################################,,                 
                          ,,##########################################,,             
                       ,#########################################, ''#####,          
                    ,#############################################,,   '####,        
                  ,##################################################,,,,####,       
                ,###########''''           ''''###############################       
              ,#####''   ,,,,##########,,,,          '''####'''          '####       
            ,##' ,,,,###########################,,,                        '##       
           ' ,,###''''                  '''############,,,                           
         ,,##''                                '''############,,,,        ,,,,,,###''
      ,#''                                            '''#######################'''  
     '                                                          ''''####''''         
             ,#######,   #######,   ,#######,      ##                                
            ,#'     '#,  ##    ##  ,#'     '#,    #''#        ######   ,####,        
            ##       ##  ##   ,#'  ##            #'  '#       #        #'  '#        
            ##       ##  #######   ##           ,######,      #####,   #    #        
            '#,     ,#'  ##    ##  '#,     ,#' ,#      #,         ##   #,  ,#        
             '#######'   ##     ##  '#######'  #'      '#     #####' # '####'        



                  #######################################################
                  #                        -***-                        #
                  #          Department of theory and spectroscopy      #
                  #    Directorship and core code : Frank Neese         #
                  #        Max Planck Institute fuer Kohlenforschung    #
                  #                Kaiser Wilhelm Platz 1               #
                  #                 D-45470 Muelheim/Ruhr               #
                  #                      Germany                        #
                  #                                                     #
                  #                  All rights reserved                #
                  #                        -***-                        #
                  #######################################################


                         Program Version 5.0.4 -  RELEASE  -


 With contributions from (in alphabetic order):
   Daniel Aravena         : Magnetic Suceptibility
   Michael Atanasov       : Ab Initio Ligand Field Theory (pilot matlab implementation)
   Alexander A. Auer      : GIAO ZORA, VPT2 properties, NMR spectrum
   Ute Becker             : Parallelization
   Giovanni Bistoni       : ED, misc. LED, open-shell LED, HFLD
   Martin Brehm           : Molecular dynamics
   Dmytro Bykov           : SCF Hessian
   Vijay G. Chilkuri      : MRCI spin determinant printing, contributions to CSF-ICE
   Dipayan Datta          : RHF DLPNO-CCSD density
   Achintya Kumar Dutta   : EOM-CC, STEOM-CC
   Dmitry Ganyushin       : Spin-Orbit,Spin-Spin,Magnetic field MRCI
   Miquel Garcia          : C-PCM and meta-GGA Hessian, CC/C-PCM, Gaussian charge scheme
   Yang Guo               : DLPNO-NEVPT2, F12-NEVPT2, CIM, IAO-localization
   Andreas Hansen         : Spin unrestricted coupled pair/coupled cluster methods
   Benjamin Helmich-Paris : MC-RPA, TRAH-SCF, COSX integrals
   Lee Huntington         : MR-EOM, pCC
   Robert Izsak           : Overlap fitted RIJCOSX, COSX-SCS-MP3, EOM
   Marcus Kettner         : VPT2
   Christian Kollmar      : KDIIS, OOCD, Brueckner-CCSD(T), CCSD density, CASPT2, CASPT2-K
   Simone Kossmann        : Meta GGA functionals, TD-DFT gradient, OOMP2, MP2 Hessian
   Martin Krupicka        : Initial AUTO-CI
   Lucas Lang             : DCDCAS
   Marvin Lechner         : AUTO-CI (C++ implementation), FIC-MRCC
   Dagmar Lenk            : GEPOL surface, SMD
   Dimitrios Liakos       : Extrapolation schemes; Compound Job, initial MDCI parallelization
   Dimitrios Manganas     : Further ROCIS development; embedding schemes
   Dimitrios Pantazis     : SARC Basis sets
   Anastasios Papadopoulos: AUTO-CI, single reference methods and gradients
   Taras Petrenko         : DFT Hessian,TD-DFT gradient, ASA, ECA, R-Raman, ABS, FL, XAS/XES, NRVS
   Peter Pinski           : DLPNO-MP2, DLPNO-MP2 Gradient
   Christoph Reimann      : Effective Core Potentials
   Marius Retegan         : Local ZFS, SOC
   Christoph Riplinger    : Optimizer, TS searches, QM/MM, DLPNO-CCSD(T), (RO)-DLPNO pert. Triples
   Tobias Risthaus        : Range-separated hybrids, TD-DFT gradient, RPA, STAB
   Michael Roemelt        : Original ROCIS implementation
   Masaaki Saitow         : Open-shell DLPNO-CCSD energy and density
   Barbara Sandhoefer     : DKH picture change effects
   Avijit Sen             : IP-ROCIS
   Kantharuban Sivalingam : CASSCF convergence, NEVPT2, FIC-MRCI
   Bernardo de Souza      : ESD, SOC TD-DFT
   Georgi Stoychev        : AutoAux, RI-MP2 NMR, DLPNO-MP2 response
   Willem Van den Heuvel  : Paramagnetic NMR
   Boris Wezisla          : Elementary symmetry handling
   Frank Wennmohs         : Technical directorship


 We gratefully acknowledge several colleagues who have allowed us to
 interface, adapt or use parts of their codes:
   Stefan Grimme, W. Hujo, H. Kruse, P. Pracht,  : VdW corrections, initial TS optimization,
                  C. Bannwarth, S. Ehlert          DFT functionals, gCP, sTDA/sTD-DF
   Ed Valeev, F. Pavosevic, A. Kumar             : LibInt (2-el integral package), F12 methods
   Garnet Chan, S. Sharma, J. Yang, R. Olivares  : DMRG
   Ulf Ekstrom                                   : XCFun DFT Library
   Mihaly Kallay                                 : mrcc  (arbitrary order and MRCC methods)
   Jiri Pittner, Ondrej Demel                    : Mk-CCSD
   Frank Weinhold                                : gennbo (NPA and NBO analysis)
   Christopher J. Cramer and Donald G. Truhlar   : smd solvation model
   Lars Goerigk                                  : TD-DFT with DH, B97 family of functionals
   V. Asgeirsson, H. Jonsson                     : NEB implementation
   FAccTs GmbH                                   : IRC, NEB, NEB-TS, DLPNO-Multilevel, CI-OPT
                                                   MM, QMMM, 2- and 3-layer-ONIOM, Crystal-QMMM,
                                                   LR-CPCM, SF, NACMEs, symmetry and pop. for TD-DFT,
                                                   nearIR, NL-DFT gradient (VV10), updates on ESD,
                                                   ML-optimized integration grids
   S Lehtola, MJT Oliveira, MAL Marques          : LibXC Library
   Liviu Ungur et al                             : ANISO software


 Your calculation uses the libint2 library for the computation of 2-el integrals
 For citations please refer to: http://libint.valeyev.net

 Your ORCA version has been built with support for libXC version: 5.1.0
 For citations please refer to: https://tddft.org/programs/libxc/

 This ORCA versions uses:
   CBLAS   interface :  Fast vector & matrix operations
   LAPACKE interface :  Fast linear algebra routines
   SCALAPACK package :  Parallel linear algebra routines
   Shared memory     :  Shared parallel matrices
   BLAS/LAPACK       :  OpenBLAS 0.3.15  USE64BITINT DYNAMIC_ARCH NO_AFFINITY SkylakeX SINGLE_THREADED
        Core in use  :  SkylakeX
   Copyright (c) 2011-2014, The OpenBLAS Project




***************************************
The coordinates will be read from file: /users/fjb15167/WWenergy/structures/Nfp.xyz
***************************************


Your calculation utilizes the atom-pairwise dispersion correction
based on tight binding partial charges (D4)
Cite in your paper:
E.Caldeweyher, C.Bannwarth, S.Grimme, J.Chem.Phys., (2017), 147, 034112.
E.Caldeweyher, S.Ehlert, A.Hansen, H.Neugebauer, S.Grimme, J.Chem.Phys., (2018), in progress.
   

================================================================================

----- Orbital basis set information -----
Your calculation utilizes the basis: 6-31G(d)
   H-He, Li-Ne : W. J. Hehre, R. Ditchfield and J.A. Pople, J. Chem. Phys. 56, 2257 (1972).
                 Note: He and Ne are unpublished basis sets taken from the Gaussian program.
                 Note: Li and B from J. D. Dill and J. A. Pople, J. Chem. Phys. 62, 2921 (1975).
   Na - Ar     : M. M. Francl, W. J. Pietro, W. J. Hehre, J. S. Binkley, M. S. Gordon, 
                 D. J. DeFrees and J. A. Pople, J. Chem. Phys. 77, 3654 (1982).
   K - Zn      : V. A. Rassolov, J. A. Pople, M. A. Ratner, and T. L. Windus, J. Chem. Phys. 109, 1223 (1998).

----- AuxJ basis set information -----
Your calculation utilizes the AutoAux generation procedure.
  G. L. Stoychev, A. A. Auer, F. Neese, J. Chem. Theory Comput. 13, 554 (2017)

----- AuxC basis set information -----
Your calculation utilizes the AutoAux generation procedure.
  G. L. Stoychev, A. A. Auer, F. Neese, J. Chem. Theory Comput. 13, 554 (2017)

----- AuxJK basis set information -----
Your calculation utilizes the AutoAux generation procedure.
  G. L. Stoychev, A. A. Auer, F. Neese, J. Chem. Theory Comput. 13, 554 (2017)

================================================================================
                                        WARNINGS
                       Please study these warnings very carefully!
================================================================================


WARNING: Geometry Optimization
  ===> : Switching off AutoStart
         For restart on a previous wavefunction, please use MOREAD

INFO   : the flag for use of the SHARK integral package has been found!

================================================================================
                                       INPUT FILE
================================================================================
NAME = Nfp_octanol.inp
|  1> ! OPT FREQ B3LYP 6-31G(d) D4 AUTOAUX
|  2> ! CPCM
|  3> 
|  4> %cpcm
|  5> epsilon 9.8629 
|  6> refrac  1.4295 
|  7> end
|  8> 
|  9> %PAL NPROCS 4 END
| 10> 
| 11> %maxcore 3375
| 12> 
| 13> *xyzfile 0 1 /users/fjb15167/WWenergy/structures/Nfp.xyz
| 14> 
| 15>                          ****END OF INPUT****
================================================================================

                       *****************************
                       * Geometry Optimization Run *
                       *****************************

Geometry optimization settings:
Update method            Update   .... BFGS
Choice of coordinates    CoordSys .... Z-matrix Internals
Initial Hessian          InHess   .... Almoef's Model

Convergence Tolerances:
Energy Change            TolE     ....  5.0000e-06 Eh
Max. Gradient            TolMAXG  ....  3.0000e-04 Eh/bohr
RMS Gradient             TolRMSG  ....  1.0000e-04 Eh/bohr
Max. Displacement        TolMAXD  ....  4.0000e-03 bohr
RMS Displacement         TolRMSD  ....  2.0000e-03 bohr
Strict Convergence                ....  False
------------------------------------------------------------------------------
                        ORCA OPTIMIZATION COORDINATE SETUP
------------------------------------------------------------------------------

The optimization will be done in new redundant internal coordinates
Making redundant internal coordinates   ...  (new redundants) done
Evaluating the initial hessian          ...  (Almloef) done
Evaluating the coordinates              ...  done
Calculating the B-matrix                .... done
Calculating the G-matrix                .... done
Diagonalizing the G-matrix              .... done
Small eigenvalue found = 2.875e-03
Small eigenvalue found = 5.228e-03
Small eigenvalue found = 1.052e-02
Small eigenvalue found = 1.267e-02
Small eigenvalue found = 1.464e-02
Small eigenvalue found = 2.125e-02
The first mode is                       ....   89
The number of degrees of freedom        ....  117

    -----------------------------------------------------------------
                    Redundant Internal Coordinates


    -----------------------------------------------------------------
         Definition                    Initial Value    Approx d2E/dq
    -----------------------------------------------------------------
      1. B(H   1,C   0)                  1.0929         0.356308   
      2. B(H   2,C   0)                  1.0943         0.354510   
      3. B(H   3,C   0)                  1.0886         0.362003   
      4. B(C   4,C   0)                  1.5155         0.393980   
      5. B(O   5,C   4)                  1.2395         0.972610   
      6. B(N   6,C   4)                  1.3721         0.597633   
      7. B(C   7,N   6)                  1.4608         0.431512   
      8. B(H   8,C   7)                  1.0956         0.352828   
      9. B(H   9,C   7)                  1.0903         0.359659   
     10. B(C  10,N   6)                  1.4635         0.427122   
     11. B(H  11,C  10)                  1.0946         0.354042   
     12. B(H  12,C  10)                  1.0950         0.353555   
     13. B(C  13,C  10)                  1.5291         0.374852   
     14. B(H  14,C  13)                  1.0916         0.358000   
     15. B(H  15,C  13)                  1.0971         0.350857   
     16. B(C  16,C   7)                  1.5259         0.379294   
     17. B(N  17,C  16)                  1.3640         0.615634   
     18. B(O  18,C  16)                  1.2422         0.963206   
     19. B(C  19,N  17)                  1.4563         0.438689   
     20. B(H  20,C  19)                  1.0971         0.350805   
     21. B(H  21,C  19)                  1.0937         0.355264   
     22. B(H  22,C  19)                  1.0878         0.363047   
     23. B(C  23,N  17)                  1.4565         0.438316   
     24. B(H  24,C  23)                  1.0968         0.351268   
     25. B(H  25,C  23)                  1.0885         0.362064   
     26. B(H  26,C  23)                  1.0933         0.355756   
     27. B(C  27,C  13)                  1.5341         0.367972   
     28. B(H  28,C  27)                  1.0972         0.350661   
     29. B(H  29,C  27)                  1.0974         0.350380   
     30. B(C  30,C  27)                  1.5055         0.408802   
     31. B(C  31,C  30)                  1.4038         0.593839   
     32. B(C  32,C  30)                  1.3987         0.605176   
     33. B(C  33,C  31)                  1.3949         0.613582   
     34. B(H  34,H  24)                  2.7401         0.000161   
     35. B(H  34,C  31)                  1.0902         0.359854   
     36. B(C  35,C  32)                  1.3974         0.608083   
     37. B(H  36,C  32)                  1.0896         0.360644   
     38. B(C  37,C  35)                  1.3961         0.610853   
     39. B(C  37,C  33)                  1.3979         0.606837   
     40. B(H  38,C  33)                  1.0879         0.362875   
     41. B(H  39,C  35)                  1.0873         0.363638   
     42. B(H  40,C  37)                  1.0878         0.362969   
     43. A(H   1,C   0,H   2)          108.0852         0.289645   
     44. A(H   2,C   0,C   4)          110.8826         0.326327   
     45. A(H   1,C   0,C   4)          112.2672         0.326599   
     46. A(H   1,C   0,H   3)          109.5316         0.290597   
     47. A(H   2,C   0,H   3)          108.8838         0.290366   
     48. A(H   3,C   0,C   4)          107.1420         0.327453   
     49. A(C   0,C   4,O   5)          121.0209         0.430982   
     50. A(C   0,C   4,N   6)          116.9438         0.395290   
     51. A(O   5,C   4,N   6)          122.0322         0.461712   
     52. A(C   7,N   6,C  10)          115.9003         0.376389   
     53. A(C   4,N   6,C  10)          124.8043         0.398374   
     54. A(C   4,N   6,C   7)          119.2539         0.399091   
     55. A(H   8,C   7,C  16)          105.4316         0.324042   
     56. A(N   6,C   7,C  16)          111.2875         0.371088   
     57. A(N   6,C   7,H   9)          107.8145         0.330057   
     58. A(H   8,C   7,H   9)          109.0308         0.289854   
     59. A(N   6,C   7,H   8)          109.5302         0.329013   
     60. A(H   9,C   7,C  16)          113.6776         0.325064   
     61. A(H  12,C  10,C  13)          108.9772         0.323525   
     62. A(H  11,C  10,C  13)          111.1197         0.323598   
     63. A(N   6,C  10,C  13)          113.1015         0.369686   
     64. A(H  11,C  10,H  12)          107.0604         0.289233   
     65. A(N   6,C  10,H  11)          109.8007         0.328645   
     66. A(N   6,C  10,H  12)          106.4954         0.328570   
     67. A(H  14,C  13,H  15)          106.6864         0.289390   
     68. A(H  15,C  13,C  27)          109.8992         0.322139   
     69. A(C  10,C  13,H  15)          110.5138         0.323119   
     70. A(C  10,C  13,H  14)          108.8137         0.324189   
     71. A(H  14,C  13,C  27)          108.2757         0.323205   
     72. A(C  10,C  13,C  27)          112.4527         0.362626   
     73. A(N  17,C  16,O  18)          122.4283         0.463400   
     74. A(C   7,C  16,O  18)          119.3897         0.427310   
     75. A(C   7,C  16,N  17)          118.1714         0.394714   
     76. A(C  16,N  17,C  19)          124.7115         0.402348   
     77. A(C  19,N  17,C  23)          115.5896         0.379158   
     78. A(C  16,N  17,C  23)          117.5912         0.402288   
     79. A(H  21,C  19,H  22)          108.7532         0.290594   
     80. A(H  20,C  19,H  22)          108.4628         0.290019   
     81. A(N  17,C  19,H  22)          111.8409         0.331473   
     82. A(H  20,C  19,H  21)          108.3478         0.289035   
     83. A(N  17,C  19,H  21)          108.9333         0.330286   
     84. A(N  17,C  19,H  20)          110.4256         0.329598   
     85. A(H  25,C  23,H  26)          110.0741         0.290534   
     86. A(H  24,C  23,H  26)          109.0488         0.289158   
     87. A(N  17,C  23,H  26)          108.7174         0.330316   
     88. A(H  24,C  23,H  25)          108.9400         0.289955   
     89. A(N  17,C  23,H  25)          108.7626         0.331277   
     90. A(N  17,C  23,H  24)          111.2906         0.329623   
     91. A(H  29,C  27,C  30)          109.1645         0.327685   
     92. A(H  28,C  27,C  30)          110.4745         0.327728   
     93. A(C  13,C  27,C  30)          110.6722         0.368049   
     94. A(H  28,C  27,H  29)          107.0838         0.288391   
     95. A(C  13,C  27,H  29)          108.6937         0.322067   
     96. A(C  13,C  27,H  28)          110.6553         0.322110   
     97. A(C  31,C  30,C  32)          118.8613         0.428849   
     98. A(C  27,C  30,C  32)          121.9821         0.401309   
     99. A(C  27,C  30,C  31)          119.0820         0.399975   
    100. A(C  33,C  31,H  34)          120.3175         0.352247   
    101. A(C  30,C  31,H  34)          119.1006         0.350306   
    102. A(C  30,C  31,C  33)          120.5806         0.429912   
    103. A(C  35,C  32,H  36)          119.7833         0.351842   
    104. A(C  30,C  32,H  36)          119.5214         0.351557   
    105. A(C  30,C  32,C  35)          120.6915         0.430677   
    106. A(C  37,C  33,H  38)          120.0448         0.352087   
    107. A(C  31,C  33,H  38)          119.8516         0.352746   
    108. A(C  31,C  33,C  37)          120.1028         0.431586   
    109. A(C  37,C  35,H  39)          120.0779         0.352605   
    110. A(C  32,C  35,H  39)          119.8795         0.352334   
    111. A(C  32,C  35,C  37)          120.0426         0.431400   
    112. A(C  35,C  37,H  40)          120.0935         0.352495   
    113. A(C  33,C  37,H  40)          120.1862         0.352102   
    114. A(C  33,C  37,C  35)          119.7187         0.431241   
    115. D(N   6,C   4,C   0,H   1)     52.7816         0.011536   
    116. D(O   5,C   4,C   0,H   1)   -127.8410         0.011536   
    117. D(O   5,C   4,C   0,H   2)    111.1451         0.011536   
    118. D(N   6,C   4,C   0,H   2)    -68.2323         0.011536   
    119. D(O   5,C   4,C   0,H   3)     -7.5523         0.011536   
    120. D(N   6,C   4,C   0,H   3)    173.0703         0.011536   
    121. D(C   7,N   6,C   4,C   0)    175.2400         0.028763   
    122. D(C   7,N   6,C   4,O   5)     -4.1306         0.028763   
    123. D(C  10,N   6,C   4,C   0)     -2.3151         0.028763   
    124. D(C  10,N   6,C   4,O   5)    178.3143         0.028763   
    125. D(H   9,C   7,N   6,C  10)    178.0436         0.015875   
    126. D(H   9,C   7,N   6,C   4)      0.2752         0.015875   
    127. D(H   8,C   7,N   6,C  10)     59.5284         0.015875   
    128. D(C  16,C   7,N   6,C   4)    125.5788         0.015875   
    129. D(C  16,C   7,N   6,C  10)    -56.6528         0.015875   
    130. D(H   8,C   7,N   6,C   4)   -118.2400         0.015875   
    131. D(C  13,C  10,N   6,C   7)     91.8810         0.015554   
    132. D(C  13,C  10,N   6,C   4)    -90.4903         0.015554   
    133. D(H  12,C  10,N   6,C   7)    -27.7911         0.015554   
    134. D(H  12,C  10,N   6,C   4)    149.8376         0.015554   
    135. D(H  11,C  10,N   6,C   7)   -143.3740         0.015554   
    136. D(H  11,C  10,N   6,C   4)     34.2547         0.015554   
    137. D(H  15,C  13,C  10,H  12)   -168.5671         0.011216   
    138. D(C  27,C  13,C  10,H  11)     72.3886         0.011216   
    139. D(H  15,C  13,C  10,H  11)    -50.8303         0.011216   
    140. D(H  15,C  13,C  10,N   6)     73.1957         0.011216   
    141. D(H  14,C  13,C  10,H  12)     74.6025         0.011216   
    142. D(C  27,C  13,C  10,N   6)   -163.5855         0.011216   
    143. D(H  14,C  13,C  10,H  11)   -167.6607         0.011216   
    144. D(C  27,C  13,C  10,H  12)    -45.3482         0.011216   
    145. D(H  14,C  13,C  10,N   6)    -43.6348         0.011216   
    146. D(O  18,C  16,C   7,H   9)   -139.6925         0.010738   
    147. D(O  18,C  16,C   7,H   8)    -20.3250         0.010738   
    148. D(O  18,C  16,C   7,N   6)     98.3444         0.010738   
    149. D(N  17,C  16,C   7,H   9)     41.4603         0.010738   
    150. D(N  17,C  16,C   7,H   8)    160.8278         0.010738   
    151. D(N  17,C  16,C   7,N   6)    -80.5028         0.010738   
    152. D(C  23,N  17,C  16,O  18)     -3.2413         0.030656   
    153. D(C  23,N  17,C  16,C   7)    175.5687         0.030656   
    154. D(C  19,N  17,C  16,O  18)   -165.9628         0.030656   
    155. D(C  19,N  17,C  16,C   7)     12.8472         0.030656   
    156. D(H  22,C  19,N  17,C  16)    -20.7003         0.016410   
    157. D(H  21,C  19,N  17,C  23)     56.0278         0.016410   
    158. D(H  21,C  19,N  17,C  16)   -140.9420         0.016410   
    159. D(H  20,C  19,N  17,C  23)    -62.8447         0.016410   
    160. D(H  22,C  19,N  17,C  23)    176.2694         0.016410   
    161. D(H  20,C  19,N  17,C  16)    100.1855         0.016410   
    162. D(H  26,C  23,N  17,C  19)    -45.6811         0.016382   
    163. D(H  26,C  23,N  17,C  16)    150.0254         0.016382   
    164. D(H  25,C  23,N  17,C  19)   -165.5382         0.016382   
    165. D(H  25,C  23,N  17,C  16)     30.1683         0.016382   
    166. D(H  24,C  23,N  17,C  19)     74.4432         0.016382   
    167. D(H  24,C  23,N  17,C  16)    -89.8503         0.016382   
    168. D(C  30,C  27,C  13,H  15)    -70.8284         0.010832   
    169. D(C  30,C  27,C  13,H  14)     45.3476         0.010832   
    170. D(C  30,C  27,C  13,C  10)    165.6095         0.010832   
    171. D(H  29,C  27,C  13,H  15)    169.2985         0.010832   
    172. D(H  29,C  27,C  13,H  14)    -74.5255         0.010832   
    173. D(H  29,C  27,C  13,C  10)     45.7364         0.010832   
    174. D(H  28,C  27,C  13,H  15)     51.9766         0.010832   
    175. D(H  28,C  27,C  13,H  14)    168.1526         0.010832   
    176. D(H  28,C  27,C  13,C  10)    -71.5854         0.010832   
    177. D(C  31,C  30,C  27,C  13)    -74.7789         0.012380   
    178. D(C  32,C  30,C  27,H  29)   -138.3647         0.012380   
    179. D(C  32,C  30,C  27,H  28)    -20.8651         0.012380   
    180. D(C  32,C  30,C  27,C  13)    102.0450         0.012380   
    181. D(C  31,C  30,C  27,H  29)     44.8114         0.012380   
    182. D(C  31,C  30,C  27,H  28)    162.3110         0.012380   
    183. D(H  34,C  31,C  30,C  32)   -179.9138         0.024284   
    184. D(H  34,C  31,C  30,C  27)     -2.9898         0.024284   
    185. D(C  33,C  31,C  30,C  32)      0.5044         0.024284   
    186. D(C  33,C  31,C  30,C  27)    177.4283         0.024284   
    187. D(H  36,C  32,C  30,C  31)   -179.8016         0.025271   
    188. D(H  36,C  32,C  30,C  27)      3.3677         0.025271   
    189. D(C  35,C  32,C  30,C  31)     -0.5208         0.025271   
    190. D(C  35,C  32,C  30,C  27)   -177.3514         0.025271   
    191. D(H  38,C  33,C  31,H  34)     -0.3039         0.026019   
    192. D(H  38,C  33,C  31,C  30)    179.2728         0.026019   
    193. D(C  37,C  33,C  31,H  34)   -179.9554         0.026019   
    194. D(C  37,C  33,C  31,C  30)     -0.3786         0.026019   
    195. D(H  39,C  35,C  32,H  36)     -0.3198         0.025528   
    196. D(H  39,C  35,C  32,C  30)   -179.5988         0.025528   
    197. D(C  37,C  35,C  32,H  36)    179.6906         0.025528   
    198. D(C  37,C  35,C  32,C  30)      0.4116         0.025528   
    199. D(H  40,C  37,C  35,H  39)      0.1992         0.025775   
    200. D(H  40,C  37,C  35,C  32)   -179.8113         0.025775   
    201. D(C  33,C  37,C  35,H  39)    179.7349         0.025775   
    202. D(C  33,C  37,C  35,C  32)     -0.2755         0.025775   
    203. D(H  40,C  37,C  33,H  38)      0.1445         0.025418   
    204. D(H  40,C  37,C  33,C  31)    179.7953         0.025418   
    205. D(C  35,C  37,C  33,H  38)   -179.3908         0.025418   
    206. D(C  35,C  37,C  33,C  31)      0.2599         0.025418   
    -----------------------------------------------------------------

Number of atoms                         .... 41
Number of degrees of freedom            .... 206

         *************************************************************
         *                GEOMETRY OPTIMIZATION CYCLE   1            *
         *************************************************************
---------------------------------
CARTESIAN COORDINATES (ANGSTROEM)
---------------------------------
  C      2.880000   -2.686000   -0.892000
  H      1.841000   -2.823000   -1.202000
  H      3.083000   -3.378000   -0.069000
  H      3.542000   -2.923000   -1.723000
  C      3.173000   -1.257000   -0.481000
  O      4.126000   -0.634000   -0.971000
  N      2.346000   -0.699000    0.461000
  C      2.644000    0.637000    0.971000
  H      2.832000    0.584000    2.049000
  H      3.545000    0.992000    0.470000
  C      1.185000   -1.365000    1.053000
  H      1.383000   -2.437000    1.152000
  H      1.079000   -0.963000    2.066000
  C     -0.110000   -1.113000    0.280000
  H     -0.160000   -0.056000    0.012000
  H     -0.112000   -1.677000   -0.661000
  C      1.447000    1.570000    0.813000
  N      1.230000    2.138000   -0.408000
  O      0.697000    1.769000    1.783000
  C      1.885000    1.727000   -1.642000
  H      1.220000    1.085000   -2.233000
  H      2.119000    2.617000   -2.233000
  H      2.807000    1.183000   -1.449000
  C      0.030000    2.947000   -0.572000
  H     -0.818000    2.338000   -0.908000
  H     -0.219000    3.402000    0.385000
  H      0.229000    3.723000   -1.316000
  C     -1.359000   -1.461000    1.100000
  H     -1.458000   -2.548000    1.212000
  H     -1.246000   -1.042000    2.108000
  C     -2.593000   -0.883000    0.460000
  C     -2.834000    0.496000    0.565000
  C     -3.474000   -1.667000   -0.292000
  C     -3.939000    1.073000   -0.061000
  H     -2.149000    1.111000    1.149000
  C     -4.582000   -1.092000   -0.920000
  H     -3.299000   -2.739000   -0.378000
  C     -4.815000    0.280000   -0.808000
  H     -4.121000    2.141000    0.038000
  H     -5.262000   -1.715000   -1.496000
  H     -5.679000    0.728000   -1.294000

----------------------------
CARTESIAN COORDINATES (A.U.)
----------------------------
  NO LB      ZA    FRAG     MASS         X           Y           Z
   0 C     6.0000    0    12.011    5.442411   -5.075804   -1.685636
   1 H     1.0000    0     1.008    3.478986   -5.334697   -2.271451
   2 H     1.0000    0     1.008    5.826026   -6.383495   -0.130391
   3 H     1.0000    0     1.008    6.693410   -5.523669   -3.255998
   4 C     6.0000    0    12.011    5.996101   -2.375386   -0.908958
   5 O     8.0000    0    15.999    7.797010   -1.198086   -1.834924
   6 N     7.0000    0    14.007    4.433298   -1.320919    0.871164
   7 C     6.0000    0    12.011    4.996436    1.203756    1.834924
   8 H     1.0000    0     1.008    5.351704    1.103600    3.872049
   9 H     1.0000    0     1.008    6.699079    1.874608    0.888171
  10 C     6.0000    0    12.011    2.239325   -2.579476    1.989882
  11 H     1.0000    0     1.008    2.613491   -4.605263    2.176965
  12 H     1.0000    0     1.008    2.039014   -1.819806    3.904174
  13 C     6.0000    0    12.011   -0.207870   -2.103265    0.529123
  14 H     1.0000    0     1.008   -0.302356   -0.105825    0.022677
  15 H     1.0000    0     1.008   -0.211649   -3.169071   -1.249109
  16 C     6.0000    0    12.011    2.734434    2.966870    1.536347
  17 N     7.0000    0    14.007    2.324363    4.040234   -0.771008
  18 O     8.0000    0    15.999    1.317139    3.342926    3.369382
  19 C     6.0000    0    12.011    3.562134    3.263557   -3.102930
  20 H     1.0000    0     1.008    2.305466    2.050353   -4.219758
  21 H     1.0000    0     1.008    4.004330    4.945413   -4.219758
  22 H     1.0000    0     1.008    5.304461    2.235546   -2.738213
  23 C     6.0000    0    12.011    0.056692    5.569023   -1.080923
  24 H     1.0000    0     1.008   -1.545796    4.418180   -1.715871
  25 H     1.0000    0     1.008   -0.413850    6.428848    0.727545
  26 H     1.0000    0     1.008    0.432747    7.035450   -2.486880
  27 C     6.0000    0    12.011   -2.568138   -2.760890    2.078699
  28 H     1.0000    0     1.008   -2.755221   -4.815022    2.290348
  29 H     1.0000    0     1.008   -2.354599   -1.969095    3.983543
  30 C     6.0000    0    12.011   -4.900060   -1.668628    0.869274
  31 C     6.0000    0    12.011   -5.355484    0.937304    1.067695
  32 C     6.0000    0    12.011   -6.564909   -3.150173   -0.551800
  33 C     6.0000    0    12.011   -7.443631    2.027676   -0.115273
  34 H     1.0000    0     1.008   -4.061021    2.099486    2.171295
  35 C     6.0000    0    12.011   -8.658725   -2.063581   -1.738548
  36 H     1.0000    0     1.008   -6.234207   -5.175960   -0.714316
  37 C     6.0000    0    12.011   -9.099031    0.529123   -1.526899
  38 H     1.0000    0     1.008   -7.787561    4.045904    0.071810
  39 H     1.0000    0     1.008   -9.943739   -3.240880   -2.827030
  40 H     1.0000    0     1.008  -10.731755    1.375721   -2.445306

--------------------------------
INTERNAL COORDINATES (ANGSTROEM)
--------------------------------
 C      0   0   0     0.000000000000     0.00000000     0.00000000
 H      1   0   0     1.092881512333     0.00000000     0.00000000
 H      1   2   0     1.094258653153   108.08521166     0.00000000
 H      1   2   3     1.088565110593   109.53158262   118.49642396
 C      1   2   3     1.515523341952   112.26715846   237.39034462
 O      5   1   2     1.239531363056   121.02089056   232.15898185
 N      5   1   2     1.372099486189   116.94382541    52.78161388
 C      7   5   1     1.460753230358   119.25390073   175.23997517
 H      8   7   5     1.095553284875   109.53015465   241.75999047
 H      8   7   5     1.090333435239   107.81453232     0.27520697
 C      7   5   1     1.463537153611   124.80425596   357.68491201
 H     11   7   5     1.094618198277   109.80072121    34.25472847
 H     11   7   5     1.094992694040   106.49543829   149.83762991
 C     11   7   5     1.529070959766   113.10151801   269.50969844
 H     14  11   7     1.091591956731   108.81368491   316.36521448
 H     14  11   7     1.097078392823   110.51379756    73.19566555
 C      8   7   5     1.525864345216   111.28750865   125.57876149
 N     17   8   7     1.364021260831   118.17144450   279.49716252
 O     17   8   7     1.242175913468   119.38966009    98.34435100
 C     18  17   8     1.456263025693   124.71154744    12.84717318
 H     20  18  17     1.097118954353   110.42562231   100.18553891
 H     20  18  17     1.093680483505   108.93327909   219.05800149
 H     20  18  17     1.087781687656   111.84089339   339.29968891
 C     18  17   8     1.456494764838   117.59122936   175.56868851
 H     24  18  17     1.096759317262   111.29063361   270.14968229
 H     24  18  17     1.088519636938   108.76257298    30.16834564
 H     24  18  17     1.093303708948   108.71742588   150.02543134
 C     14  11   7     1.534113750672   112.45274159   196.41452278
 H     28  14  11     1.097230149057   110.65529858   288.41455273
 H     28  14  11     1.097448859856   108.69365228    45.73640475
 C     28  14  11     1.505470026271   110.67215215   165.60949910
 C     31  28  14     1.403832967272   119.08203609   285.22109037
 C     31  28  14     1.398685454275   121.98210181   102.04497288
 C     32  31  28     1.394930105776   120.58056588   177.42834026
 H     32  31  28     1.090186222624   119.10056521   357.01021723
 C     33  31  28     1.397380764144   120.69147146   182.64855671
 H     33  31  28     1.089589372195   119.52138584     3.36772382
 C     36  33  31     1.396143617254   120.04259802     0.41164501
 H     34  32  31     1.087910382339   119.85155876   179.27283681
 H     36  33  31     1.087338493754   119.87946291   180.40123708
 H     38  36  33     1.087840061774   120.09350490   180.18873247

---------------------------
INTERNAL COORDINATES (A.U.)
---------------------------
 C      0   0   0     0.000000000000     0.00000000     0.00000000
 H      1   0   0     2.065246755136     0.00000000     0.00000000
 H      1   2   0     2.067849174133   108.08521166     0.00000000
 H      1   2   3     2.057089937962   109.53158262   118.49642396
 C      1   2   3     2.863924065854   112.26715846   237.39034462
 O      5   1   2     2.342374810582   121.02089056   232.15898185
 N      5   1   2     2.592892257391   116.94382541    52.78161388
 C      7   5   1     2.760423554617   119.25390073   175.23997517
 H      8   7   5     2.070295673531   109.53015465   241.75999047
 H      8   7   5     2.060431587259   107.81453232     0.27520697
 C      7   5   1     2.765684407144   124.80425596   357.68491201
 H     11   7   5     2.068528615951   109.80072121    34.25472847
 H     11   7   5     2.069236310379   106.49543829   149.83762991
 C     11   7   5     2.889525353290   113.10151801   269.50969844
 H     14  11   7     2.062809848213   108.81368491   316.36521448
 H     14  11   7     2.073177709879   110.51379756    73.19566555
 C      8   7   5     2.883465729972   111.28750865   125.57876149
 N     17   8   7     2.577626623817   118.17144450   279.49716252
 O     17   8   7     2.347372286608   119.38966009    98.34435100
 C     18  17   8     2.751938297515   124.71154744    12.84717318
 H     20  18  17     2.073254360061   110.42562231   100.18553891
 H     20  18  17     2.066756591839   108.93327909   219.05800149
 H     20  18  17     2.055609483165   111.84089339   339.29968891
 C     18  17   8     2.752376221034   117.59122936   175.56868851
 H     24  18  17     2.072574744451   111.29063361   270.14968229
 H     24  18  17     2.057004005209   108.76257298    30.16834564
 H     24  18  17     2.066044591113   108.71742588   150.02543134
 C     14  11   7     2.899054847052   112.45274159   196.41452278
 H     28  14  11     2.073464487600   110.65529858   288.41455273
 H     28  14  11     2.073877791113   108.69365228    45.73640475
 C     28  14  11     2.844926052479   110.67215215   165.60949910
 C     31  28  14     2.652859845914   119.08203609   285.22109037
 C     31  28  14     2.643132456079   121.98210181   102.04497288
 C     32  31  28     2.636035875878   120.58056588   177.42834026
 H     32  31  28     2.060153395734   119.10056521   357.01021723
 C     33  31  28     2.640666949042   120.69147146   182.64855671
 H     33  31  28     2.059025511879   119.52138584     3.36772382
 C     36  33  31     2.638329080233   120.04259802     0.41164501
 H     34  32  31     2.055852680869   119.85155876   179.27283681
 H     36  33  31     2.054771968066   119.87946291   180.40123708
 H     38  36  33     2.055719794260   120.09350490   180.18873247

---------------------
BASIS SET INFORMATION
---------------------
There are 4 groups of distinct atoms

 Group   1 Type C   : 10s4p1d contracted to 3s2p1d pattern {631/31/1}
 Group   2 Type H   : 4s contracted to 2s pattern {31}
 Group   3 Type O   : 10s4p1d contracted to 3s2p1d pattern {631/31/1}
 Group   4 Type N   : 10s4p1d contracted to 3s2p1d pattern {631/31/1}

Atom   0C    basis set group =>   1
Atom   1H    basis set group =>   2
Atom   2H    basis set group =>   2
Atom   3H    basis set group =>   2
Atom   4C    basis set group =>   1
Atom   5O    basis set group =>   3
Atom   6N    basis set group =>   4
Atom   7C    basis set group =>   1
Atom   8H    basis set group =>   2
Atom   9H    basis set group =>   2
Atom  10C    basis set group =>   1
Atom  11H    basis set group =>   2
Atom  12H    basis set group =>   2
Atom  13C    basis set group =>   1
Atom  14H    basis set group =>   2
Atom  15H    basis set group =>   2
Atom  16C    basis set group =>   1
Atom  17N    basis set group =>   4
Atom  18O    basis set group =>   3
Atom  19C    basis set group =>   1
Atom  20H    basis set group =>   2
Atom  21H    basis set group =>   2
Atom  22H    basis set group =>   2
Atom  23C    basis set group =>   1
Atom  24H    basis set group =>   2
Atom  25H    basis set group =>   2
Atom  26H    basis set group =>   2
Atom  27C    basis set group =>   1
Atom  28H    basis set group =>   2
Atom  29H    basis set group =>   2
Atom  30C    basis set group =>   1
Atom  31C    basis set group =>   1
Atom  32C    basis set group =>   1
Atom  33C    basis set group =>   1
Atom  34H    basis set group =>   2
Atom  35C    basis set group =>   1
Atom  36H    basis set group =>   2
Atom  37C    basis set group =>   1
Atom  38H    basis set group =>   2
Atom  39H    basis set group =>   2
Atom  40H    basis set group =>   2
---------------------------------
AUXILIARY/J BASIS SET INFORMATION
---------------------------------
There are 4 groups of distinct atoms

 Group   1 Type C   : 13s11p10d2f contracted to 13s11p10d2f pattern {1111111111111/11111111111/1111111111/11}
 Group   2 Type H   : 9s2p contracted to 9s2p pattern {111111111/11}
 Group   3 Type O   : 14s11p10d2f contracted to 14s11p10d2f pattern {11111111111111/11111111111/1111111111/11}
 Group   4 Type N   : 14s11p10d2f contracted to 14s11p10d2f pattern {11111111111111/11111111111/1111111111/11}

Atom   0C    basis set group =>   1
Atom   1H    basis set group =>   2
Atom   2H    basis set group =>   2
Atom   3H    basis set group =>   2
Atom   4C    basis set group =>   1
Atom   5O    basis set group =>   3
Atom   6N    basis set group =>   4
Atom   7C    basis set group =>   1
Atom   8H    basis set group =>   2
Atom   9H    basis set group =>   2
Atom  10C    basis set group =>   1
Atom  11H    basis set group =>   2
Atom  12H    basis set group =>   2
Atom  13C    basis set group =>   1
Atom  14H    basis set group =>   2
Atom  15H    basis set group =>   2
Atom  16C    basis set group =>   1
Atom  17N    basis set group =>   4
Atom  18O    basis set group =>   3
Atom  19C    basis set group =>   1
Atom  20H    basis set group =>   2
Atom  21H    basis set group =>   2
Atom  22H    basis set group =>   2
Atom  23C    basis set group =>   1
Atom  24H    basis set group =>   2
Atom  25H    basis set group =>   2
Atom  26H    basis set group =>   2
Atom  27C    basis set group =>   1
Atom  28H    basis set group =>   2
Atom  29H    basis set group =>   2
Atom  30C    basis set group =>   1
Atom  31C    basis set group =>   1
Atom  32C    basis set group =>   1
Atom  33C    basis set group =>   1
Atom  34H    basis set group =>   2
Atom  35C    basis set group =>   1
Atom  36H    basis set group =>   2
Atom  37C    basis set group =>   1
Atom  38H    basis set group =>   2
Atom  39H    basis set group =>   2
Atom  40H    basis set group =>   2
---------------------------------
AUXILIARY/C BASIS SET INFORMATION
---------------------------------
There are 4 groups of distinct atoms

 Group   1 Type C   : 13s11p10d2f contracted to 13s11p10d2f pattern {1111111111111/11111111111/1111111111/11}
 Group   2 Type H   : 9s2p contracted to 9s2p pattern {111111111/11}
 Group   3 Type O   : 14s11p10d2f contracted to 14s11p10d2f pattern {11111111111111/11111111111/1111111111/11}
 Group   4 Type N   : 14s11p10d2f contracted to 14s11p10d2f pattern {11111111111111/11111111111/1111111111/11}

Atom   0C    basis set group =>   1
Atom   1H    basis set group =>   2
Atom   2H    basis set group =>   2
Atom   3H    basis set group =>   2
Atom   4C    basis set group =>   1
Atom   5O    basis set group =>   3
Atom   6N    basis set group =>   4
Atom   7C    basis set group =>   1
Atom   8H    basis set group =>   2
Atom   9H    basis set group =>   2
Atom  10C    basis set group =>   1
Atom  11H    basis set group =>   2
Atom  12H    basis set group =>   2
Atom  13C    basis set group =>   1
Atom  14H    basis set group =>   2
Atom  15H    basis set group =>   2
Atom  16C    basis set group =>   1
Atom  17N    basis set group =>   4
Atom  18O    basis set group =>   3
Atom  19C    basis set group =>   1
Atom  20H    basis set group =>   2
Atom  21H    basis set group =>   2
Atom  22H    basis set group =>   2
Atom  23C    basis set group =>   1
Atom  24H    basis set group =>   2
Atom  25H    basis set group =>   2
Atom  26H    basis set group =>   2
Atom  27C    basis set group =>   1
Atom  28H    basis set group =>   2
Atom  29H    basis set group =>   2
Atom  30C    basis set group =>   1
Atom  31C    basis set group =>   1
Atom  32C    basis set group =>   1
Atom  33C    basis set group =>   1
Atom  34H    basis set group =>   2
Atom  35C    basis set group =>   1
Atom  36H    basis set group =>   2
Atom  37C    basis set group =>   1
Atom  38H    basis set group =>   2
Atom  39H    basis set group =>   2
Atom  40H    basis set group =>   2
----------------------------------
AUXILIARY/JK BASIS SET INFORMATION
----------------------------------
There are 4 groups of distinct atoms

 Group   1 Type C   : 13s11p10d2f contracted to 13s11p10d2f pattern {1111111111111/11111111111/1111111111/11}
 Group   2 Type H   : 9s2p contracted to 9s2p pattern {111111111/11}
 Group   3 Type O   : 14s11p10d2f contracted to 14s11p10d2f pattern {11111111111111/11111111111/1111111111/11}
 Group   4 Type N   : 14s11p10d2f contracted to 14s11p10d2f pattern {11111111111111/11111111111/1111111111/11}

Atom   0C    basis set group =>   1
Atom   1H    basis set group =>   2
Atom   2H    basis set group =>   2
Atom   3H    basis set group =>   2
Atom   4C    basis set group =>   1
Atom   5O    basis set group =>   3
Atom   6N    basis set group =>   4
Atom   7C    basis set group =>   1
Atom   8H    basis set group =>   2
Atom   9H    basis set group =>   2
Atom  10C    basis set group =>   1
Atom  11H    basis set group =>   2
Atom  12H    basis set group =>   2
Atom  13C    basis set group =>   1
Atom  14H    basis set group =>   2
Atom  15H    basis set group =>   2
Atom  16C    basis set group =>   1
Atom  17N    basis set group =>   4
Atom  18O    basis set group =>   3
Atom  19C    basis set group =>   1
Atom  20H    basis set group =>   2
Atom  21H    basis set group =>   2
Atom  22H    basis set group =>   2
Atom  23C    basis set group =>   1
Atom  24H    basis set group =>   2
Atom  25H    basis set group =>   2
Atom  26H    basis set group =>   2
Atom  27C    basis set group =>   1
Atom  28H    basis set group =>   2
Atom  29H    basis set group =>   2
Atom  30C    basis set group =>   1
Atom  31C    basis set group =>   1
Atom  32C    basis set group =>   1
Atom  33C    basis set group =>   1
Atom  34H    basis set group =>   2
Atom  35C    basis set group =>   1
Atom  36H    basis set group =>   2
Atom  37C    basis set group =>   1
Atom  38H    basis set group =>   2
Atom  39H    basis set group =>   2
Atom  40H    basis set group =>   2


           ************************************************************
           *        Program running with 4 parallel MPI-processes     *
           *              working on a common directory               *
           ************************************************************
------------------------------------------------------------------------------
                           ORCA GTO INTEGRAL CALCULATION
                           -- RI-GTO INTEGRALS CHOSEN --
------------------------------------------------------------------------------
------------------------------------------------------------------------------
                   ___                                                        
                  /   \      - P O W E R E D   B Y -                         
                 /     \                                                     
                 |  |  |   _    _      __       _____    __    __             
                 |  |  |  | |  | |    /  \     |  _  \  |  |  /  |          
                  \  \/   | |  | |   /    \    | | | |  |  | /  /          
                 / \  \   | |__| |  /  /\  \   | |_| |  |  |/  /          
                |  |  |   |  __  | /  /__\  \  |    /   |      \           
                |  |  |   | |  | | |   __   |  |    \   |  |\   \          
                \     /   | |  | | |  |  |  |  | |\  \  |  | \   \       
                 \___/    |_|  |_| |__|  |__|  |_| \__\ |__|  \__/        
                                                                              
                      - O R C A' S   B I G   F R I E N D -                    
                                      &                                       
                       - I N T E G R A L  F E E D E R -                       
                                                                              
 v1 FN, 2020, v2 2021                                                         
------------------------------------------------------------------------------


Reading SHARK input file Nfp_octanol.SHARKINP.tmp ... ok
----------------------
SHARK INTEGRAL PACKAGE
----------------------

Number of atoms                             ...     41
Number of basis functions                   ...    310
Number of shells                            ...    158
Maximum angular momentum                    ...      2
Integral batch strategy                     ... SHARK/LIBINT Hybrid
RI-J (if used) integral strategy            ... SPLIT-RIJ (Revised 2003 algorithm where possible)
Printlevel                                  ...      1
Contraction scheme used                     ... SEGMENTED contraction
Coulomb Range Separation                    ... NOT USED
Exchange Range Separation                   ... NOT USED
Finite Nucleus Model                        ... NOT USED
Auxiliary Coulomb fitting basis             ... AVAILABLE
   # of basis functions in Aux-J            ...   2424
   # of shells in Aux-J                     ...    930
   Maximum angular momentum in Aux-J        ...      3
Auxiliary J/K fitting basis                 ... AVAILABLE
   # of basis functions in Aux-JK           ...   2424
   # of shells in Aux-JK                    ...    930
   Maximum angular momentum in Aux-JK       ...      3
Auxiliary Correlation fitting basis         ... AVAILABLE
   # of basis functions in Aux-C            ...   2424
   # of shells in Aux-C                     ...    930
   Maximum angular momentum in Aux-C        ...      3
Auxiliary 'external' fitting basis          ... NOT available
Integral threshold                          ...     2.500000e-11
Primitive cut-off                           ...     2.500000e-12
Primitive pair pre-selection threshold      ...     2.500000e-12

Calculating pre-screening integrals         ... done (  0.1 sec) Dimension = 158
Organizing shell pair data                  ... done (  0.7 sec)
Shell pair information
Total number of shell pairs                 ...     12561
Shell pairs after pre-screening             ...      9842
Total number of primitive shell pairs       ...     70216
Primitive shell pairs kept                  ...     30690
          la=0 lb=0:   3892 shell pairs
          la=1 lb=0:   3228 shell pairs
          la=1 lb=1:    674 shell pairs
          la=2 lb=0:   1342 shell pairs
          la=2 lb=1:    584 shell pairs
          la=2 lb=2:    122 shell pairs

Calculating one electron integrals          ... done (  0.0 sec)
Calculating RI/J V-Matrix + Cholesky decomp.... done (  0.4 sec)
Calculating RI/JK V-Matrix + Cholesky decomp... done (  0.4 sec)
Calculating RI/C V-Matrix + Cholesky decomp.... done (  0.4 sec)
Calculating Nuclear repulsion               ... done (  0.0 sec) ENN=   1484.343940768778 Eh

SHARK setup successfully completed in   2.5 seconds

Maximum memory used throughout the entire GTOINT-calculation: 49.3 MB


           ************************************************************
           *        Program running with 4 parallel MPI-processes     *
           *              working on a common directory               *
           ************************************************************
-------------------------------------------------------------------------------
                                 ORCA SCF
-------------------------------------------------------------------------------

------------
SCF SETTINGS
------------
Hamiltonian:
 Density Functional     Method          .... DFT(GTOs)
 Exchange Functional    Exchange        .... B88
   X-Alpha parameter    XAlpha          ....  0.666667
   Becke's b parameter  XBeta           ....  0.004200
 Correlation Functional Correlation     .... LYP
 LDA part of GGA corr.  LDAOpt          .... VWN-5
 Gradients option       PostSCFGGA      .... off
 Hybrid DFT is turned on
   Fraction HF Exchange ScalHFX         ....  0.200000
   Scaling of DF-GGA-X  ScalDFX         ....  0.720000
   Scaling of DF-GGA-C  ScalDFC         ....  0.810000
   Scaling of DF-LDA-C  ScalLDAC        ....  1.000000
   Perturbative correction              ....  0.000000
   Density functional embedding theory  .... OFF
   NL short-range parameter             ....  4.800000
 RI-approximation to the Coulomb term is turned on
   Number of AuxJ basis functions       .... 2424
   RIJ-COSX (HFX calculated with COS-X)).... on


General Settings:
 Integral files         IntName         .... Nfp_octanol
 Hartree-Fock type      HFTyp           .... RHF
 Total Charge           Charge          ....    0
 Multiplicity           Mult            ....    1
 Number of Electrons    NEL             ....  142
 Basis Dimension        Dim             ....  310
 Nuclear Repulsion      ENuc            ....   1484.3439407688 Eh

Convergence Acceleration:
 DIIS                   CNVDIIS         .... on
   Start iteration      DIISMaxIt       ....    12
   Startup error        DIISStart       ....  0.200000
   # of expansion vecs  DIISMaxEq       ....     5
   Bias factor          DIISBfac        ....   1.050
   Max. coefficient     DIISMaxC        ....  10.000
 Trust-Rad. Augm. Hess. CNVTRAH         .... auto
   Auto Start mean grad. ratio tolernc. ....  1.125000
   Auto Start start iteration           ....    20
   Auto Start num. interpolation iter.  ....    10
   Max. Number of Micro iterations      ....    16
   Max. Number of Macro iterations      .... Maxiter - #DIIS iter
   Number of Davidson start vectors     ....     2
   Converg. threshold I  (grad. norm)   ....   1.000e-05
   Converg. threshold II (energy diff.) ....   1.000e-08
   Grad. Scal. Fac. for Micro threshold ....   0.100
   Minimum threshold for Micro iter.    ....   0.010
   NR start threshold (gradient norm)   ....   0.001
   Initial trust radius                 ....   0.400
   Minimum AH scaling param. (alpha)    ....   1.000
   Maximum AH scaling param. (alpha)    .... 1000.000
   Orbital update algorithm             .... Taylor
   White noise on init. David. guess    .... on
   Maximum white noise                  ....   0.010
   Quad. conv. algorithm                .... NR
 SOSCF                  CNVSOSCF        .... on
   Start iteration      SOSCFMaxIt      ....   150
   Startup grad/error   SOSCFStart      ....  0.003300
 Level Shifting         CNVShift        .... on
   Level shift para.    LevelShift      ....    0.2500
   Turn off err/grad.   ShiftErr        ....    0.0010
 Zerner damping         CNVZerner       .... off
 Static damping         CNVDamp         .... on
   Fraction old density DampFac         ....    0.7000
   Max. Damping (<1)    DampMax         ....    0.9800
   Min. Damping (>=0)   DampMin         ....    0.0000
   Turn off err/grad.   DampErr         ....    0.1000
 Fernandez-Rico         CNVRico         .... off

SCF Procedure:
 Maximum # iterations   MaxIter         ....   125
 SCF integral mode      SCFMode         .... Direct
   Integral package                     .... SHARK and LIBINT hybrid scheme
 Reset frequency        DirectResetFreq ....    20
 Integral Threshold     Thresh          ....  2.500e-11 Eh
 Primitive CutOff       TCut            ....  2.500e-12 Eh

Convergence Tolerance:
 Convergence Check Mode ConvCheckMode   .... Total+1el-Energy
 Convergence forced     ConvForced      .... 0
 Energy Change          TolE            ....  1.000e-08 Eh
 1-El. energy change                    ....  1.000e-05 Eh
 Orbital Gradient       TolG            ....  1.000e-05
 Orbital Rotation angle TolX            ....  1.000e-05
 DIIS Error             TolErr          ....  5.000e-07


Diagonalization of the overlap matrix:
Smallest eigenvalue                        ... 4.776e-04
Time for diagonalization                   ...    0.015 sec
Threshold for overlap eigenvalues          ... 1.000e-08
Number of eigenvalues below threshold      ... 0
Time for construction of square roots      ...    0.008 sec
Total time needed                          ...    0.024 sec

Time for model grid setup =    0.421 sec

------------------------------
INITIAL GUESS: MODEL POTENTIAL
------------------------------
Loading Hartree-Fock densities                     ... done
Calculating cut-offs                               ... done
Initializing the effective Hamiltonian             ... done
Setting up the integral package (SHARK)            ... done
Starting the Coulomb interaction                   ... done (   0.3 sec)
Reading the grid                                   ... done
Mapping shells                                     ... done
Starting the XC term evaluation                    ... done (   0.2 sec)
  promolecular density results
     # of electrons  =    141.985489876
     EX              =   -113.225750626
     EC              =     -4.768849756
     EX+EC           =   -117.994600382
Transforming the Hamiltonian                       ... done (   0.0 sec)
Diagonalizing the Hamiltonian                      ... done (   0.0 sec)
Back transforming the eigenvectors                 ... done (   0.0 sec)
Now organizing SCF variables                       ... done
                      ------------------
                      INITIAL GUESS DONE (   1.0 sec)
                      ------------------
-------------------
DFT GRID GENERATION
-------------------

General Integration Accuracy     IntAcc      ... 4.388
Radial Grid Type                 RadialGrid  ... OptM3 with GC (2021)
Angular Grid (max. ang.)         AngularGrid ... 4 (Lebedev-302)
Angular grid pruning method      GridPruning ... 4 (adaptive)
Weight generation scheme         WeightScheme... Becke
Basis function cutoff            BFCut       ... 1.0000e-11
Integration weight cutoff        WCut        ... 1.0000e-14
Angular grids for H and He will be reduced by one unit
Partially contracted basis set               ... off
Rotationally invariant grid construction     ... off

Total number of grid points                  ...   182996
Total number of batches                      ...     2880
Average number of points per batch           ...       63
Average number of grid points per atom       ...     4463
Time for grid setup =    1.753 sec

--------------------
COSX GRID GENERATION
--------------------

GRIDX 1
-------
General Integration Accuracy     IntAcc      ... 3.816
Radial Grid Type                 RadialGrid  ... OptM3 with GC (2021)
Angular Grid (max. ang.)         AngularGrid ... 1 (Lebedev-50)
Angular grid pruning method      GridPruning ... 4 (adaptive)
Weight generation scheme         WeightScheme... Becke
Basis function cutoff            BFCut       ... 1.0000e-11
Integration weight cutoff        WCut        ... 1.0000e-14
Angular grids for H and He will be reduced by one unit
Partially contracted basis set               ... on
Rotationally invariant grid construction     ... off

Total number of grid points                  ...    23264
Total number of batches                      ...      384
Average number of points per batch           ...       60
Average number of grid points per atom       ...      567
UseSFitting                                  ... on

GRIDX 2
-------
General Integration Accuracy     IntAcc      ... 4.020
Radial Grid Type                 RadialGrid  ... OptM3 with GC (2021)
Angular Grid (max. ang.)         AngularGrid ... 2 (Lebedev-110)
Angular grid pruning method      GridPruning ... 4 (adaptive)
Weight generation scheme         WeightScheme... Becke
Basis function cutoff            BFCut       ... 1.0000e-11
Integration weight cutoff        WCut        ... 1.0000e-14
Angular grids for H and He will be reduced by one unit
Partially contracted basis set               ... on
Rotationally invariant grid construction     ... off

Total number of grid points                  ...    49302
Total number of batches                      ...      788
Average number of points per batch           ...       62
Average number of grid points per atom       ...     1202
UseSFitting                                  ... on

GRIDX 3
-------
General Integration Accuracy     IntAcc      ... 4.338
Radial Grid Type                 RadialGrid  ... OptM3 with GC (2021)
Angular Grid (max. ang.)         AngularGrid ... 3 (Lebedev-194)
Angular grid pruning method      GridPruning ... 4 (adaptive)
Weight generation scheme         WeightScheme... Becke
Basis function cutoff            BFCut       ... 1.0000e-11
Integration weight cutoff        WCut        ... 1.0000e-14
Angular grids for H and He will be reduced by one unit
Partially contracted basis set               ... on
Rotationally invariant grid construction     ... off

Total number of grid points                  ...   107267
Total number of batches                      ...     1700
Average number of points per batch           ...       63
Average number of grid points per atom       ...     2616
UseSFitting                                  ... on

Time for X-Grid setup             =    1.888 sec


--------------------
CPCM SOLVATION MODEL
--------------------
CPCM parameters:
  Epsilon                                         ...       9.8629
  Refrac                                          ...       1.4295
  Rsolv                                           ...       1.3000
  Surface type                                    ... GAUSSIAN VDW
  Epsilon function type                           ...         CPCM
Radii:
 Radius for C  used is    3.8550 Bohr (=   2.0400 Ang.)
 Radius for H  used is    2.4944 Bohr (=   1.3200 Ang.)
 Radius for O  used is    3.4469 Bohr (=   1.8240 Ang.)
 Radius for N  used is    3.5149 Bohr (=   1.8600 Ang.)
Calculating surface                               ...        done! (  0.0s)
GEPOL surface points                              ...         2132
GEPOL Volume                                      ...    2276.7350
GEPOL Surface-area                                ...    1165.8870
Calculating surface distance matrix               ...        done! (  0.0s)
Performing Cholesky decomposition & store         ...        done! (  0.2s)
Overall time for CPCM initialization              ...                 0.2s
--------------
SCF ITERATIONS
--------------
ITER       Energy         Delta-E        Max-DP      RMS-DP      [F,P]     Damp
               ***  Starting incremental Fock matrix formation  ***
  0   -843.7802221520   0.000000000000 0.09534290  0.00177898  0.2725048 0.7000
  1   -844.0183809628  -0.238158810800 0.05395390  0.00121912  0.1091863 0.7000
                               ***Turning on DIIS***
  2   -844.1143483956  -0.095967432751 0.06356577  0.00196861  0.0377538 0.0000
  3   -844.2645217925  -0.150173396983 0.03719717  0.00083680  0.0530618 0.0000
  4   -844.2960338342  -0.031512041690 0.00916115  0.00027688  0.0109007 0.0000
  5   -844.2981425426  -0.002108708324 0.00426380  0.00008681  0.0066281 0.0000
                      *** Initiating the SOSCF procedure ***
                           *** Shutting down DIIS ***
                      *** Re-Reading the Fockian *** 
                      *** Removing any level shift *** 
ITER      Energy       Delta-E        Grad      Rot      Max-DP    RMS-DP
  6   -844.29831031  -0.0001677660  0.000285  0.000285  0.001426  0.000038
               *** Restarting incremental Fock matrix formation ***
  7   -844.29838905  -0.0000787418  0.000268  0.001070  0.001945  0.000024
  8   -844.29838150   0.0000075482  0.000517  0.000757  0.001266  0.000016
  9   -844.29839329  -0.0000117844  0.000060  0.000161  0.000398  0.000005
 10   -844.29839284   0.0000004444  0.000117  0.000106  0.000272  0.000003
 11   -844.29839344  -0.0000005989  0.000004  0.000007  0.000025  0.000001
 12   -844.29839344   0.0000000021  0.000004  0.000004  0.000014  0.000000
                  ***Gradient check signals convergence***
              ***Rediagonalizing the Fockian in SOSCF/NRSCF***

               *****************************************************
               *                     SUCCESS                       *
               *           SCF CONVERGED AFTER  13 CYCLES          *
               *****************************************************

Old exchange energy                            =    -23.084714245 Eh
New exchange energy                            =    -23.084723511 Eh
Exchange energy change after final integration =     -0.000009266 Eh
Total energy after final integration           =   -844.298402693 Eh
Final COS-X integration done in                =    16.618 sec

----------------
TOTAL SCF ENERGY
----------------

Total Energy       :         -844.29840269 Eh          -22974.52754 eV

Components:
Nuclear Repulsion  :         1484.34394077 Eh           40391.05207 eV
Electronic Energy  :        -2328.64234346 Eh          -63365.57961 eV
One Electron Energy:        -4094.97232901 Eh         -111429.86206 eV
Two Electron Energy:         1766.32998555 Eh           48064.28245 eV
Max COSX asymmetry :            0.00000308 Eh               0.00008 eV
CPCM Dielectric    :           -0.01823170 Eh              -0.49611 eV

Virial components:
Potential Energy   :        -1683.65544614 Eh          -45814.59386 eV
Kinetic Energy     :          839.35704345 Eh           22840.06632 eV
Virial Ratio       :            2.00588708


DFT components:
N(Alpha)           :       71.000070334986 electrons
N(Beta)            :       71.000070334986 electrons
N(Total)           :      142.000140669972 electrons
E(X)               :      -91.627193756447 Eh       
E(C)               :       -5.620937180353 Eh       
E(XC)              :      -97.248130936800 Eh       
DFET-embed. en.    :        0.000000000000 Eh       
CPCM Solvation Model Properties:
Surface-charge          :           -0.02390240
Charge-correction       :           -0.00018726 Eh              -0.00510 eV
Free-energy (cav+disp)  :  This term is not implemented in the current solvation scheme

---------------
SCF CONVERGENCE
---------------

  Last Energy change         ...    1.2201e-08  Tolerance :   1.0000e-08
  Last MAX-Density change    ...    3.1086e-15  Tolerance :   1.0000e-07
  Last RMS-Density change    ...    3.8102e-17  Tolerance :   5.0000e-09
  Last Orbital Gradient      ...    3.4905e-07  Tolerance :   1.0000e-05
  Last Orbital Rotation      ...    1.2837e-06  Tolerance :   1.0000e-05

             **** THE GBW FILE WAS UPDATED (Nfp_octanol.gbw) ****
             **** DENSITY Nfp_octanol.scfp WAS UPDATED ****
             **** ENERGY FILE WAS UPDATED (Nfp_octanol.en.tmp) ****
             **** THE GBW FILE WAS UPDATED (Nfp_octanol.gbw) ****
             **** DENSITY Nfp_octanol.scfp WAS UPDATED ****
----------------
ORBITAL ENERGIES
----------------

  NO   OCC          E(Eh)            E(eV) 
   0   2.0000     -19.109665      -520.0004 
   1   2.0000     -19.109470      -519.9951 
   2   2.0000     -14.360255      -390.7624 
   3   2.0000     -14.359283      -390.7360 
   4   2.0000     -10.283811      -279.8367 
   5   2.0000     -10.279629      -279.7229 
   6   2.0000     -10.210817      -277.8505 
   7   2.0000     -10.208621      -277.7907 
   8   2.0000     -10.198471      -277.5145 
   9   2.0000     -10.195080      -277.4222 
  10   2.0000     -10.183010      -277.0938 
  11   2.0000     -10.176624      -276.9200 
  12   2.0000     -10.176457      -276.9155 
  13   2.0000     -10.174846      -276.8716 
  14   2.0000     -10.174223      -276.8547 
  15   2.0000     -10.173148      -276.8254 
  16   2.0000     -10.172975      -276.8207 
  17   2.0000     -10.172477      -276.8072 
  18   2.0000     -10.171312      -276.7755 
  19   2.0000      -1.031984       -28.0817 
  20   2.0000      -1.024799       -27.8862 
  21   2.0000      -0.934115       -25.4186 
  22   2.0000      -0.927367       -25.2349 
  23   2.0000      -0.848750       -23.0957 
  24   2.0000      -0.792426       -21.5630 
  25   2.0000      -0.760155       -20.6849 
  26   2.0000      -0.741131       -20.1672 
  27   2.0000      -0.735301       -20.0085 
  28   2.0000      -0.718623       -19.5547 
  29   2.0000      -0.706897       -19.2356 
  30   2.0000      -0.678981       -18.4760 
  31   2.0000      -0.667381       -18.1604 
  32   2.0000      -0.611309       -16.6346 
  33   2.0000      -0.596147       -16.2220 
  34   2.0000      -0.568771       -15.4771 
  35   2.0000      -0.551138       -14.9972 
  36   2.0000      -0.536886       -14.6094 
  37   2.0000      -0.512255       -13.9392 
  38   2.0000      -0.500428       -13.6173 
  39   2.0000      -0.485955       -13.2235 
  40   2.0000      -0.479348       -13.0437 
  41   2.0000      -0.464650       -12.6438 
  42   2.0000      -0.459402       -12.5010 
  43   2.0000      -0.456169       -12.4130 
  44   2.0000      -0.448621       -12.2076 
  45   2.0000      -0.444361       -12.0917 
  46   2.0000      -0.428889       -11.6707 
  47   2.0000      -0.417426       -11.3587 
  48   2.0000      -0.410171       -11.1613 
  49   2.0000      -0.406373       -11.0580 
  50   2.0000      -0.402958       -10.9650 
  51   2.0000      -0.400352       -10.8941 
  52   2.0000      -0.395684       -10.7671 
  53   2.0000      -0.395005       -10.7486 
  54   2.0000      -0.390126       -10.6159 
  55   2.0000      -0.379357       -10.3228 
  56   2.0000      -0.373687       -10.1685 
  57   2.0000      -0.370469       -10.0810 
  58   2.0000      -0.364800        -9.9267 
  59   2.0000      -0.359330        -9.7779 
  60   2.0000      -0.346814        -9.4373 
  61   2.0000      -0.341195        -9.2844 
  62   2.0000      -0.334613        -9.1053 
  63   2.0000      -0.325843        -8.8666 
  64   2.0000      -0.322754        -8.7826 
  65   2.0000      -0.259985        -7.0745 
  66   2.0000      -0.252433        -6.8690 
  67   2.0000      -0.244914        -6.6644 
  68   2.0000      -0.241433        -6.5697 
  69   2.0000      -0.236642        -6.4394 
  70   2.0000      -0.229268        -6.2387 
  71   0.0000       0.002790         0.0759 
  72   0.0000       0.006770         0.1842 
  73   0.0000       0.013192         0.3590 
  74   0.0000       0.028091         0.7644 
  75   0.0000       0.089290         2.4297 
  76   0.0000       0.100565         2.7365 
  77   0.0000       0.104151         2.8341 
  78   0.0000       0.118532         3.2254 
  79   0.0000       0.128049         3.4844 
  80   0.0000       0.135423         3.6851 
  81   0.0000       0.145376         3.9559 
  82   0.0000       0.147728         4.0199 
  83   0.0000       0.152499         4.1497 
  84   0.0000       0.154277         4.1981 
  85   0.0000       0.159846         4.3496 
  86   0.0000       0.167557         4.5595 
  87   0.0000       0.171830         4.6757 
  88   0.0000       0.175311         4.7705 
  89   0.0000       0.178376         4.8539 
  90   0.0000       0.183643         4.9972 
  91   0.0000       0.188617         5.1325 
  92   0.0000       0.192535         5.2391 
  93   0.0000       0.193651         5.2695 
  94   0.0000       0.197911         5.3854 
  95   0.0000       0.202608         5.5132 
  96   0.0000       0.207547         5.6476 
  97   0.0000       0.223154         6.0723 
  98   0.0000       0.227152         6.1811 
  99   0.0000       0.233499         6.3538 
 100   0.0000       0.237572         6.4647 
 101   0.0000       0.245038         6.6678 
 102   0.0000       0.254333         6.9207 
 103   0.0000       0.265658         7.2289 
 104   0.0000       0.275116         7.4863 
 105   0.0000       0.285058         7.7568 
 106   0.0000       0.295591         8.0434 
 107   0.0000       0.315605         8.5880 
 108   0.0000       0.332283         9.0419 
 109   0.0000       0.340646         9.2694 
 110   0.0000       0.346476         9.4281 
 111   0.0000       0.357876         9.7383 
 112   0.0000       0.372259        10.1297 
 113   0.0000       0.381640        10.3849 
 114   0.0000       0.421154        11.4602 
 115   0.0000       0.470006        12.7895 
 116   0.0000       0.477671        12.9981 
 117   0.0000       0.497003        13.5241 
 118   0.0000       0.511736        13.9251 
 119   0.0000       0.518171        14.1002 
 120   0.0000       0.522370        14.2144 
 121   0.0000       0.529488        14.4081 
 122   0.0000       0.536382        14.5957 
 123   0.0000       0.543370        14.7858 
 124   0.0000       0.547175        14.8894 
 125   0.0000       0.562019        15.2933 
 126   0.0000       0.571469        15.5505 
 127   0.0000       0.577152        15.7051 
 128   0.0000       0.577791        15.7225 
 129   0.0000       0.597996        16.2723 
 130   0.0000       0.601985        16.3809 
 131   0.0000       0.604385        16.4461 
 132   0.0000       0.606616        16.5069 
 133   0.0000       0.614283        16.7155 
 134   0.0000       0.618188        16.8218 
 135   0.0000       0.621635        16.9155 
 136   0.0000       0.627371        17.0716 
 137   0.0000       0.638747        17.3812 
 138   0.0000       0.642512        17.4836 
 139   0.0000       0.646613        17.5952 
 140   0.0000       0.655924        17.8486 
 141   0.0000       0.667477        18.1630 
 142   0.0000       0.668458        18.1897 
 143   0.0000       0.682370        18.5682 
 144   0.0000       0.688110        18.7244 
 145   0.0000       0.703389        19.1402 
 146   0.0000       0.721272        19.6268 
 147   0.0000       0.728219        19.8158 
 148   0.0000       0.739111        20.1122 
 149   0.0000       0.752694        20.4818 
 150   0.0000       0.768665        20.9164 
 151   0.0000       0.776218        21.1220 
 152   0.0000       0.789991        21.4968 
 153   0.0000       0.805529        21.9196 
 154   0.0000       0.812798        22.1174 
 155   0.0000       0.822947        22.3935 
 156   0.0000       0.830274        22.5929 
 157   0.0000       0.831661        22.6307 
 158   0.0000       0.844049        22.9678 
 159   0.0000       0.846860        23.0442 
 160   0.0000       0.852294        23.1921 
 161   0.0000       0.856688        23.3117 
 162   0.0000       0.866407        23.5761 
 163   0.0000       0.872318        23.7370 
 164   0.0000       0.878253        23.8985 
 165   0.0000       0.883219        24.0336 
 166   0.0000       0.893912        24.3246 
 167   0.0000       0.903474        24.5848 
 168   0.0000       0.915159        24.9028 
 169   0.0000       0.919940        25.0328 
 170   0.0000       0.930005        25.3067 
 171   0.0000       0.935915        25.4675 
 172   0.0000       0.939984        25.5783 
 173   0.0000       0.946523        25.7562 
 174   0.0000       0.953184        25.9375 
 175   0.0000       0.954628        25.9767 
 176   0.0000       0.959670        26.1139 
 177   0.0000       0.966061        26.2879 
 178   0.0000       0.985261        26.8103 
 179   0.0000       0.995702        27.0944 
 180   0.0000       1.002815        27.2880 
 181   0.0000       1.016789        27.6682 
 182   0.0000       1.023074        27.8393 
 183   0.0000       1.025051        27.8931 
 184   0.0000       1.039202        28.2781 
 185   0.0000       1.050642        28.5894 
 186   0.0000       1.054628        28.6979 
 187   0.0000       1.075816        29.2744 
 188   0.0000       1.094011        29.7696 
 189   0.0000       1.110985        30.2314 
 190   0.0000       1.127964        30.6935 
 191   0.0000       1.136030        30.9130 
 192   0.0000       1.145555        31.1721 
 193   0.0000       1.157703        31.5027 
 194   0.0000       1.183329        32.2000 
 195   0.0000       1.197325        32.5809 
 196   0.0000       1.233895        33.5760 
 197   0.0000       1.236998        33.6604 
 198   0.0000       1.269197        34.5366 
 199   0.0000       1.272270        34.6202 
 200   0.0000       1.286689        35.0126 
 201   0.0000       1.297050        35.2945 
 202   0.0000       1.337137        36.3853 
 203   0.0000       1.358455        36.9654 
 204   0.0000       1.379529        37.5389 
 205   0.0000       1.383716        37.6528 
 206   0.0000       1.411457        38.4077 
 207   0.0000       1.424131        38.7526 
 208   0.0000       1.432633        38.9839 
 209   0.0000       1.442280        39.2464 
 210   0.0000       1.443545        39.2808 
 211   0.0000       1.458105        39.6771 
 212   0.0000       1.475878        40.1607 
 213   0.0000       1.484451        40.3940 
 214   0.0000       1.489586        40.5337 
 215   0.0000       1.497076        40.7375 
 216   0.0000       1.508836        41.0575 
 217   0.0000       1.521605        41.4050 
 218   0.0000       1.526457        41.5370 
 219   0.0000       1.565704        42.6050 
 220   0.0000       1.574855        42.8540 
 221   0.0000       1.637672        44.5633 
 222   0.0000       1.661434        45.2099 
 223   0.0000       1.714488        46.6536 
 224   0.0000       1.718535        46.7637 
 225   0.0000       1.746308        47.5194 
 226   0.0000       1.760853        47.9152 
 227   0.0000       1.782314        48.4992 
 228   0.0000       1.802497        49.0484 
 229   0.0000       1.811763        49.3006 
 230   0.0000       1.813864        49.3578 
 231   0.0000       1.828019        49.7429 
 232   0.0000       1.834478        49.9187 
 233   0.0000       1.849041        50.3150 
 234   0.0000       1.860971        50.6396 
 235   0.0000       1.871819        50.9348 
 236   0.0000       1.881438        51.1965 
 237   0.0000       1.900325        51.7105 
 238   0.0000       1.905857        51.8610 
 239   0.0000       1.922123        52.3036 
 240   0.0000       1.936771        52.7022 
 241   0.0000       1.946403        52.9643 
 242   0.0000       1.956002        53.2255 
 243   0.0000       1.957362        53.2625 
 244   0.0000       1.970082        53.6087 
 245   0.0000       1.977478        53.8099 
 246   0.0000       1.985505        54.0283 
 247   0.0000       1.993859        54.2557 
 248   0.0000       2.004950        54.5575 
 249   0.0000       2.025363        55.1129 
 250   0.0000       2.032847        55.3166 
 251   0.0000       2.056974        55.9731 
 252   0.0000       2.067161        56.2503 
 253   0.0000       2.068362        56.2830 
 254   0.0000       2.075940        56.4892 
 255   0.0000       2.091867        56.9226 
 256   0.0000       2.097206        57.0679 
 257   0.0000       2.104168        57.2573 
 258   0.0000       2.117040        57.6076 
 259   0.0000       2.143883        58.3380 
 260   0.0000       2.148927        58.4753 
 261   0.0000       2.161433        58.8156 
 262   0.0000       2.180898        59.3452 
 263   0.0000       2.195448        59.7412 
 264   0.0000       2.204505        59.9876 
 265   0.0000       2.233329        60.7720 
 266   0.0000       2.243454        61.0475 
 267   0.0000       2.262649        61.5698 
 268   0.0000       2.271360        61.8068 
 269   0.0000       2.285740        62.1981 
 270   0.0000       2.291654        62.3591 
 271   0.0000       2.313498        62.9535 
 272   0.0000       2.316257        63.0286 
 273   0.0000       2.336309        63.5742 
 274   0.0000       2.357970        64.1636 
 275   0.0000       2.367529        64.4237 
 276   0.0000       2.378887        64.7328 
 277   0.0000       2.402081        65.3640 
 278   0.0000       2.410886        65.6035 
 279   0.0000       2.419972        65.8508 
 280   0.0000       2.427139        66.0458 
 281   0.0000       2.465894        67.1004 
 282   0.0000       2.502929        68.1082 
 283   0.0000       2.537297        69.0434 
 284   0.0000       2.555422        69.5366 
 285   0.0000       2.568143        69.8827 
 286   0.0000       2.588589        70.4391 
 287   0.0000       2.606302        70.9211 
 288   0.0000       2.615421        71.1692 
 289   0.0000       2.628426        71.5231 
 290   0.0000       2.645298        71.9822 
 291   0.0000       2.667350        72.5823 
 292   0.0000       2.681269        72.9610 
 293   0.0000       2.699724        73.4632 
 294   0.0000       2.715998        73.9061 
 295   0.0000       2.732470        74.3543 
 296   0.0000       2.748607        74.7934 
 297   0.0000       2.752542        74.9005 
[...]
 10:     62.32   0.000652    3.29  0.003263  (-0.033689 -0.027636 -0.036940)
 11:     75.83   0.000424    2.14  0.001743  ( 0.011240 -0.039922 -0.004819)
 12:     85.33   0.000184    0.93  0.000674  (-0.000293 -0.023923 -0.010085)
 13:    101.36   0.000381    1.93  0.001173  (-0.001415 -0.031910 -0.012374)
 14:    114.72   0.002850   14.40  0.007751  (-0.044367  0.059885 -0.046871)
 15:    138.01   0.001012    5.12  0.002289  (-0.005685  0.047402  0.003085)
 16:    151.08   0.000232    1.17  0.000479  (-0.016776 -0.006484 -0.012489)
 17:    167.64   0.000142    0.72  0.000265  (-0.009291  0.012135  0.005619)
 18:    170.27   0.000112    0.57  0.000206  (-0.000702 -0.009499 -0.010737)
 19:    211.93   0.000031    0.16  0.000046  (-0.003417 -0.004605 -0.003620)
 20:    217.06   0.000513    2.59  0.000737  ( 0.019960  0.018281 -0.002129)
 21:    266.35   0.002249   11.36  0.002635  ( 0.020721  0.046960  0.000156)
 22:    274.70   0.001361    6.88  0.001546  (-0.004885 -0.033185  0.020510)
 23:    292.14   0.000355    1.79  0.000379  (-0.013769  0.012667  0.005397)
 24:    340.80   0.000192    0.97  0.000176  ( 0.002285 -0.010678 -0.007514)
 25:    352.71   0.002590   13.09  0.002291  ( 0.010791 -0.012954  0.044801)
 26:    386.08   0.001756    8.87  0.001419  ( 0.025387 -0.014656  0.023660)
 27:    417.39   0.000023    0.12  0.000017  (-0.000745  0.003932 -0.001129)
 28:    420.67   0.001849    9.34  0.001371  (-0.026008  0.024852 -0.008792)
 29:    432.96   0.000058    0.29  0.000042  (-0.001184  0.006304 -0.000594)
 30:    461.29   0.002650   13.39  0.001793  (-0.038832 -0.003287  0.016552)
 31:    491.77   0.004615   23.32  0.002928  (-0.023094 -0.045227 -0.018697)
 32:    519.98   0.003323   16.79  0.001994  ( 0.036158 -0.003839 -0.025922)
 33:    580.00   0.003151   15.93  0.001696  (-0.024554  0.030298 -0.013216)
 34:    587.03   0.000512    2.58  0.000272  (-0.015232 -0.000271  0.006311)
 35:    601.39   0.002358   11.91  0.001223  ( 0.032568 -0.012750  0.000423)
 36:    633.71   0.001230    6.22  0.000606  (-0.004057  0.003708 -0.023991)
 37:    636.05   0.003377   17.06  0.001657  (-0.009519 -0.002035 -0.039521)
 38:    701.23   0.000896    4.53  0.000399  (-0.011337 -0.010781  0.012403)
 39:    716.52   0.007700   38.91  0.003354  ( 0.034120  0.008905 -0.045937)
 40:    744.02   0.002077   10.50  0.000871  (-0.001895  0.029350 -0.002469)
 41:    763.85   0.002010   10.16  0.000821  (-0.003011 -0.015673  0.023800)
 42:    770.34   0.005794   29.28  0.002347  (-0.031080  0.000006  0.037163)
 43:    811.79   0.005587   28.23  0.002148  ( 0.004618  0.025738 -0.038260)
 44:    841.32   0.001241    6.27  0.000460  ( 0.004028  0.017236 -0.012123)
 45:    864.28   0.000208    1.05  0.000075  (-0.002301 -0.006206 -0.005581)
 46:    872.32   0.001245    6.29  0.000445  ( 0.007553 -0.010409 -0.016728)
 47:    927.60   0.000900    4.55  0.000303  (-0.008325 -0.005703  0.014178)
 48:    958.00   0.000406    2.05  0.000132  ( 0.005544  0.006456 -0.007734)
 49:    976.04   0.000053    0.27  0.000017  ( 0.003238  0.000170 -0.002514)
 50:    999.90   0.000250    1.26  0.000078  (-0.002911 -0.002731  0.007886)
 51:   1002.30   0.004378   22.13  0.001363  ( 0.006595 -0.012357  0.034162)
 52:   1012.04   0.007257   36.67  0.002238  ( 0.044823 -0.015009 -0.001798)
 53:   1015.29   0.000042    0.21  0.000013  ( 0.003036 -0.001616  0.001077)
 54:   1046.96   0.000284    1.44  0.000085  ( 0.008037 -0.004177  0.001614)
 55:   1053.39   0.003879   19.60  0.001149  ( 0.003192  0.003658  0.033551)
 56:   1056.02   0.002231   11.27  0.000659  (-0.021034  0.008968 -0.011680)
 57:   1060.23   0.003588   18.13  0.001056  ( 0.025477 -0.020156  0.000787)
 58:   1062.50   0.001725    8.72  0.000507  ( 0.009343 -0.007635  0.018999)
 59:   1087.97   0.004492   22.70  0.001288  (-0.018104  0.017110  0.025845)
 60:   1090.62   0.002392   12.09  0.000685  (-0.012703 -0.003839 -0.022548)
 61:   1127.34   0.002958   14.95  0.000819  (-0.003737 -0.027298  0.007723)
 62:   1135.61   0.000648    3.27  0.000178  ( 0.006353 -0.011406 -0.002739)
 63:   1165.63   0.009901   50.04  0.002651  ( 0.000058 -0.025603  0.044668)
 64:   1182.64   0.000027    0.14  0.000007  ( 0.000358  0.002616 -0.000525)
 65:   1184.37   0.001764    8.91  0.000465  ( 0.000421  0.011219 -0.018403)
 66:   1205.47   0.000262    1.33  0.000068  (-0.001537  0.000177 -0.008097)
 67:   1212.66   0.008685   43.89  0.002235  ( 0.003256  0.011886  0.045642)
 68:   1234.72   0.000101    0.51  0.000026  ( 0.004922 -0.000992  0.000629)
 69:   1243.75   0.008145   41.16  0.002044  ( 0.039298 -0.017327 -0.014110)
 70:   1284.13   0.020985  106.05  0.005100  (-0.008316  0.047932  0.052278)
 71:   1289.37   0.023788  120.21  0.005757  ( 0.048800 -0.056630 -0.012998)
 72:   1298.36   0.000469    2.37  0.000113  ( 0.006695 -0.003114  0.007624)
 73:   1315.85   0.001060    5.36  0.000251  ( 0.014023  0.006287 -0.003905)
 74:   1350.80   0.002539   12.83  0.000587  ( 0.011543 -0.017068 -0.012733)
 75:   1360.48   0.000166    0.84  0.000038  (-0.004567 -0.003337  0.002459)
 76:   1368.14   0.000055    0.28  0.000013  (-0.003327  0.000766 -0.000921)
 77:   1370.53   0.000236    1.19  0.000054  ( 0.001116  0.006124 -0.003871)
 78:   1389.52   0.002245   11.35  0.000504  (-0.018244 -0.003674  0.012563)
 79:   1411.31   0.004880   24.66  0.001079  ( 0.028143  0.016662  0.003069)
 80:   1422.84   0.007878   39.81  0.001728  ( 0.034909 -0.009434 -0.020497)
 81:   1443.36   0.018274   92.35  0.003951  (-0.023533  0.031313 -0.049158)
 82:   1458.38   0.012623   63.79  0.002701  (-0.024332  0.040002 -0.022557)
 83:   1476.05   0.045058  227.70  0.009526  (-0.063190  0.047980  0.056841)
 84:   1485.54   0.003670   18.55  0.000771  (-0.017623 -0.019845  0.008155)
 85:   1490.41   0.000754    3.81  0.000158  (-0.008604 -0.003372 -0.008517)
 86:   1497.98   0.002186   11.05  0.000455  ( 0.000104  0.018821  0.010060)
 87:   1500.76   0.001394    7.04  0.000290  (-0.003545  0.002325  0.016486)
 88:   1504.01   0.004504   22.76  0.000934  ( 0.003965  0.024427  0.017946)
 89:   1505.68   0.001372    6.93  0.000284  ( 0.014215 -0.008059  0.004153)
 90:   1512.67   0.000921    4.65  0.000190  ( 0.006614 -0.009887 -0.006966)
 91:   1518.08   0.003353   16.94  0.000689  ( 0.009223  0.024119 -0.004739)
 92:   1521.38   0.001953    9.87  0.000401  (-0.009373  0.013175  0.011793)
 93:   1530.20   0.006196   31.31  0.001264  ( 0.026603  0.020694 -0.011293)
 94:   1536.48   0.005506   27.83  0.001118  ( 0.000299  0.012747  0.030916)
 95:   1543.24   0.005003   25.28  0.001012  ( 0.026230 -0.009118  0.015505)
 96:   1554.67   0.015899   80.35  0.003191  ( 0.035008 -0.030764  0.031928)
 97:   1639.96   0.000278    1.40  0.000053  (-0.001115 -0.005694 -0.004386)
 98:   1661.14   0.002511   12.69  0.000472  (-0.020852  0.003576 -0.004905)
 99:   1705.98   0.163444  825.98  0.029898  (-0.119591 -0.024798  0.122396)
100:   1712.35   0.059182  299.08  0.010786  ( 0.012957  0.017076  0.101617)
101:   3032.07   0.004977   25.15  0.000512  ( 0.014998 -0.008533 -0.014646)
102:   3035.81   0.008536   43.14  0.000877  (-0.007563  0.010633 -0.026593)
103:   3036.73   0.015981   80.76  0.001642  (-0.024339  0.000215 -0.032401)
104:   3060.36   0.004023   20.33  0.000410  (-0.003247 -0.001374  0.019945)
105:   3065.97   0.000859    4.34  0.000087  ( 0.001804  0.007028  0.005901)
106:   3076.95   0.008634   43.63  0.000876  (-0.004609 -0.020642  0.020696)
107:   3080.84   0.006628   33.50  0.000671  ( 0.000836 -0.016587 -0.019889)
108:   3084.76   0.010513   53.13  0.001064  ( 0.006779  0.006909  0.031142)
109:   3097.01   0.010422   52.67  0.001050  ( 0.013767  0.027129 -0.011163)
110:   3108.32   0.006592   33.31  0.000662  (-0.008266 -0.022647  0.008978)
111:   3120.02   0.000148    0.75  0.000015  (-0.000823 -0.002506  0.002802)
112:   3131.93   0.002140   10.81  0.000213  (-0.008779  0.005177 -0.010457)
113:   3137.69   0.012924   65.31  0.001285  (-0.004970  0.034826  0.006913)
114:   3168.49   0.001406    7.11  0.000139  (-0.005585  0.010129 -0.002176)
115:   3171.69   0.002671   13.50  0.000263  ( 0.012290 -0.001874 -0.010404)
116:   3175.85   0.002288   11.56  0.000225  ( 0.012275 -0.000004  0.008610)
117:   3178.14   0.001743    8.81  0.000171  (-0.003512  0.012602 -0.000060)
118:   3188.83   0.001191    6.02  0.000117  (-0.004486  0.006307  0.007525)
119:   3189.12   0.002141   10.82  0.000209  ( 0.010733 -0.005776  0.007806)
120:   3193.96   0.000539    2.73  0.000053  (-0.001362 -0.007105  0.000594)
121:   3196.87   0.011796   59.61  0.001151  (-0.006121 -0.031538 -0.010925)
122:   3208.88   0.005477   27.68  0.000533  (-0.019627  0.006592 -0.010197)

* The epsilon (eps) is given for a Dirac delta lineshape.
** The dipole moment derivative (T) already includes vibrational overlap.

The first frequency considered to be a vibration is 6
The total number of vibrations considered is 117


--------------------------
THERMOCHEMISTRY AT 298.15K
--------------------------

Temperature         ... 298.15 K
Pressure            ... 1.00 atm
Total Mass          ... 262.35 AMU

Throughout the following assumptions are being made:
  (1) The electronic state is orbitally nondegenerate
  (2) There are no thermally accessible electronically excited states
  (3) Hindered rotations indicated by low frequency modes are not
      treated as such but are treated as vibrations and this may
      cause some error
  (4) All equations used are the standard statistical mechanics
      equations for an ideal gas
  (5) All vibrations are strictly harmonic

freq.      14.57  E(vib)   ...       0.57 
freq.      27.84  E(vib)   ...       0.55 
freq.      31.96  E(vib)   ...       0.55 
freq.      51.01  E(vib)   ...       0.52 
freq.      62.32  E(vib)   ...       0.51 
freq.      75.83  E(vib)   ...       0.49 
freq.      85.33  E(vib)   ...       0.48 
freq.     101.36  E(vib)   ...       0.46 
freq.     114.72  E(vib)   ...       0.44 
freq.     138.01  E(vib)   ...       0.42 
freq.     151.08  E(vib)   ...       0.40 
freq.     167.64  E(vib)   ...       0.38 
freq.     170.27  E(vib)   ...       0.38 
freq.     211.93  E(vib)   ...       0.34 
freq.     217.06  E(vib)   ...       0.34 
freq.     266.35  E(vib)   ...       0.29 
freq.     274.70  E(vib)   ...       0.28 
freq.     292.14  E(vib)   ...       0.27 
freq.     340.80  E(vib)   ...       0.23 
freq.     352.71  E(vib)   ...       0.22 
freq.     386.08  E(vib)   ...       0.20 
freq.     417.39  E(vib)   ...       0.18 
freq.     420.67  E(vib)   ...       0.18 
freq.     432.96  E(vib)   ...       0.17 
freq.     461.29  E(vib)   ...       0.16 
freq.     491.77  E(vib)   ...       0.14 
freq.     519.98  E(vib)   ...       0.13 
freq.     580.00  E(vib)   ...       0.11 
freq.     587.03  E(vib)   ...       0.10 
freq.     601.39  E(vib)   ...       0.10 
freq.     633.71  E(vib)   ...       0.09 
freq.     636.05  E(vib)   ...       0.09 
freq.     701.23  E(vib)   ...       0.07 
freq.     716.52  E(vib)   ...       0.07 
freq.     744.02  E(vib)   ...       0.06 
freq.     763.85  E(vib)   ...       0.06 
freq.     770.34  E(vib)   ...       0.05 
freq.     811.79  E(vib)   ...       0.05 
freq.     841.32  E(vib)   ...       0.04 
freq.     864.28  E(vib)   ...       0.04 
freq.     872.32  E(vib)   ...       0.04 
freq.     927.60  E(vib)   ...       0.03 
freq.     958.00  E(vib)   ...       0.03 
freq.     976.04  E(vib)   ...       0.03 
freq.     999.90  E(vib)   ...       0.02 
freq.    1002.30  E(vib)   ...       0.02 
freq.    1012.04  E(vib)   ...       0.02 
freq.    1015.29  E(vib)   ...       0.02 
freq.    1046.96  E(vib)   ...       0.02 
freq.    1053.39  E(vib)   ...       0.02 
freq.    1056.02  E(vib)   ...       0.02 
freq.    1060.23  E(vib)   ...       0.02 
freq.    1062.50  E(vib)   ...       0.02 
freq.    1087.97  E(vib)   ...       0.02 
freq.    1090.62  E(vib)   ...       0.02 
freq.    1127.34  E(vib)   ...       0.01 
freq.    1135.61  E(vib)   ...       0.01 
freq.    1165.63  E(vib)   ...       0.01 
freq.    1182.64  E(vib)   ...       0.01 
freq.    1184.37  E(vib)   ...       0.01 
freq.    1205.47  E(vib)   ...       0.01 
freq.    1212.66  E(vib)   ...       0.01 
freq.    1234.72  E(vib)   ...       0.01 
freq.    1243.75  E(vib)   ...       0.01 
freq.    1284.13  E(vib)   ...       0.01 
freq.    1289.37  E(vib)   ...       0.01 
freq.    1298.36  E(vib)   ...       0.01 
freq.    1315.85  E(vib)   ...       0.01 
freq.    1350.80  E(vib)   ...       0.01 
freq.    1360.48  E(vib)   ...       0.01 
freq.    1368.14  E(vib)   ...       0.01 
freq.    1370.53  E(vib)   ...       0.01 
freq.    1389.52  E(vib)   ...       0.00 
freq.    1411.31  E(vib)   ...       0.00 
freq.    1422.84  E(vib)   ...       0.00 
freq.    1443.36  E(vib)   ...       0.00 
freq.    1458.38  E(vib)   ...       0.00 
freq.    1476.05  E(vib)   ...       0.00 
freq.    1485.54  E(vib)   ...       0.00 
freq.    1490.41  E(vib)   ...       0.00 
freq.    1497.98  E(vib)   ...       0.00 
freq.    1500.76  E(vib)   ...       0.00 
freq.    1504.01  E(vib)   ...       0.00 
freq.    1505.68  E(vib)   ...       0.00 
freq.    1512.67  E(vib)   ...       0.00 
freq.    1518.08  E(vib)   ...       0.00 
freq.    1521.38  E(vib)   ...       0.00 
freq.    1530.20  E(vib)   ...       0.00 
freq.    1536.48  E(vib)   ...       0.00 
freq.    1543.24  E(vib)   ...       0.00 
freq.    1554.67  E(vib)   ...       0.00 
freq.    1639.96  E(vib)   ...       0.00 
freq.    1661.14  E(vib)   ...       0.00 
freq.    1705.98  E(vib)   ...       0.00 
freq.    1712.35  E(vib)   ...       0.00 
freq.    3032.07  E(vib)   ...       0.00 
freq.    3035.81  E(vib)   ...       0.00 
freq.    3036.73  E(vib)   ...       0.00 
freq.    3060.36  E(vib)   ...       0.00 
freq.    3065.97  E(vib)   ...       0.00 
freq.    3076.95  E(vib)   ...       0.00 
freq.    3080.84  E(vib)   ...       0.00 
freq.    3084.76  E(vib)   ...       0.00 
freq.    3097.01  E(vib)   ...       0.00 
freq.    3108.32  E(vib)   ...       0.00 
freq.    3120.02  E(vib)   ...       0.00 
freq.    3131.93  E(vib)   ...       0.00 
freq.    3137.69  E(vib)   ...       0.00 
freq.    3168.49  E(vib)   ...       0.00 
freq.    3171.69  E(vib)   ...       0.00 
freq.    3175.85  E(vib)   ...       0.00 
freq.    3178.14  E(vib)   ...       0.00 
freq.    3188.83  E(vib)   ...       0.00 
freq.    3189.12  E(vib)   ...       0.00 
freq.    3193.96  E(vib)   ...       0.00 
freq.    3196.87  E(vib)   ...       0.00 
freq.    3208.88  E(vib)   ...       0.00 

------------
INNER ENERGY
------------

The inner energy is: U= E(el) + E(ZPE) + E(vib) + E(rot) + E(trans)
    E(el)   - is the total energy from the electronic structure calculation
              = E(kin-el) + E(nuc-el) + E(el-el) + E(nuc-nuc)
    E(ZPE)  - the the zero temperature vibrational energy from the frequency calculation
    E(vib)  - the the finite temperature correction to E(ZPE) due to population
              of excited vibrational states
    E(rot)  - is the rotational thermal energy
    E(trans)- is the translational thermal energy

Summary of contributions to the inner energy U:
Electronic energy                ...   -844.37660348 Eh
Zero point energy                ...      0.35503559 Eh     222.79 kcal/mol
Thermal vibrational correction   ...      0.01721498 Eh      10.80 kcal/mol
Thermal rotational correction    ...      0.00141627 Eh       0.89 kcal/mol
Thermal translational correction ...      0.00141627 Eh       0.89 kcal/mol
-----------------------------------------------------------------------
Total thermal energy                   -844.00152038 Eh


Summary of corrections to the electronic energy:
(perhaps to be used in another calculation)
Total thermal correction                  0.02004752 Eh      12.58 kcal/mol
Non-thermal (ZPE) correction              0.35503559 Eh     222.79 kcal/mol
-----------------------------------------------------------------------
Total correction                          0.37508311 Eh     235.37 kcal/mol


--------
ENTHALPY
--------

The enthalpy is H = U + kB*T
                kB is Boltzmann's constant
Total free energy                 ...   -844.00152038 Eh 
Thermal Enthalpy correction       ...      0.00094421 Eh       0.59 kcal/mol
-----------------------------------------------------------------------
Total Enthalpy                    ...   -844.00057617 Eh


Note: Only C1 symmetry has been detected, increase convergence thresholds 
      if your molecule has a higher symmetry. Symmetry factor of 1.0 is   
      used for the rotational entropy correction. 
 

Note: Rotational entropy computed according to Herzberg 
Infrared and Raman Spectra, Chapter V,1, Van Nostrand Reinhold, 1945 
Point Group:  C1, Symmetry Number:   1  
Rotational constants in cm-1:     0.018401     0.007409     0.006228 

Vibrational entropy computed according to the QRRHO of S. Grimme
Chem.Eur.J. 2012 18 9955


-------
ENTROPY
-------

The entropy contributions are T*S = T*(S(el)+S(vib)+S(rot)+S(trans))
     S(el)   - electronic entropy
     S(vib)  - vibrational entropy
     S(rot)  - rotational entropy
     S(trans)- translational entropy
The entropies will be listed as multiplied by the temperature to get
units of energy

Electronic entropy                ...      0.00000000 Eh      0.00 kcal/mol
Vibrational entropy               ...      0.03138316 Eh     19.69 kcal/mol
Rotational entropy                ...      0.01611022 Eh     10.11 kcal/mol
Translational entropy             ...      0.02023727 Eh     12.70 kcal/mol
-----------------------------------------------------------------------
Final entropy term                ...      0.06773064 Eh     42.50 kcal/mol

In case the symmetry of your molecule has not been determined correctly
or in case you have a reason to use a different symmetry number we print 
out the resulting rotational entropy values for sn=1,12 :
 --------------------------------------------------------
|  sn= 1 | S(rot)=       0.01611022 Eh     10.11 kcal/mol|
|  sn= 2 | S(rot)=       0.01545576 Eh      9.70 kcal/mol|
|  sn= 3 | S(rot)=       0.01507293 Eh      9.46 kcal/mol|
|  sn= 4 | S(rot)=       0.01480130 Eh      9.29 kcal/mol|
|  sn= 5 | S(rot)=       0.01459062 Eh      9.16 kcal/mol|
|  sn= 6 | S(rot)=       0.01441847 Eh      9.05 kcal/mol|
|  sn= 7 | S(rot)=       0.01427292 Eh      8.96 kcal/mol|
|  sn= 8 | S(rot)=       0.01414685 Eh      8.88 kcal/mol|
|  sn= 9 | S(rot)=       0.01403564 Eh      8.81 kcal/mol|
|  sn=10 | S(rot)=       0.01393616 Eh      8.75 kcal/mol|
|  sn=11 | S(rot)=       0.01384617 Eh      8.69 kcal/mol|
|  sn=12 | S(rot)=       0.01376401 Eh      8.64 kcal/mol|
 --------------------------------------------------------


-------------------
GIBBS FREE ENERGY
-------------------

The Gibbs free energy is G = H - T*S

Total enthalpy                    ...   -844.00057617 Eh 
Total entropy correction          ...     -0.06773064 Eh    -42.50 kcal/mol
-----------------------------------------------------------------------
Final Gibbs free energy         ...   -844.06830681 Eh

For completeness - the Gibbs free energy minus the electronic energy
G-E(el)                           ...      0.30829668 Eh    193.46 kcal/mol


Timings for individual modules:

Sum of individual times         ...     3020.159 sec (=  50.336 min)
GTO integral calculation        ...       28.502 sec (=   0.475 min)   0.9 %
SCF iterations                  ...     1368.975 sec (=  22.816 min)  45.3 %
SCF Gradient evaluation         ...      442.643 sec (=   7.377 min)  14.7 %
Geometry relaxation             ...        1.617 sec (=   0.027 min)   0.1 %
Analytical frequency calculation...     1178.423 sec (=  19.640 min)  39.0 %
                             ****ORCA TERMINATED NORMALLY****
TOTAL RUN TIME: 0 days 0 hours 50 minutes 27 seconds 282 msec
