
                                 *****************
                                 * O   R   C   A *
                                 *****************

                                            #,                                       
                                            ###                                      
                                            ####                                     
                                            #####                                    
                                            ######                                   
                                           ########,                                 
                                     ,,################,,,,,                         
                               ,,#################################,,                 
                          ,,##########################################,,             
                       ,#########################################, ''#####,          
                    ,#############################################,,   '####,        
                  ,##################################################,,,,####,       
                ,###########''''           ''''###############################       
              ,#####''   ,,,,##########,,,,          '''####'''          '####       
            ,##' ,,,,###########################,,,                        '##       
           ' ,,###''''                  '''############,,,                           
         ,,##''                                '''############,,,,        ,,,,,,###''
      ,#''                                            '''#######################'''  
     '                                                          ''''####''''         
             ,#######,   #######,   ,#######,      ##                                
            ,#'     '#,  ##    ##  ,#'     '#,    #''#        ######   ,####,        
            ##       ##  ##   ,#'  ##            #'  '#       #        #'  '#        
            ##       ##  #######   ##           ,######,      #####,   #    #        
            '#,     ,#'  ##    ##  '#,     ,#' ,#      #,         ##   #,  ,#        
             '#######'   ##     ##  '#######'  #'      '#     #####' # '####'        



                  #######################################################
                  #                        -***-                        #
                  #          Department of theory and spectroscopy      #
                  #    Directorship and core code : Frank Neese         #
                  #        Max Planck Institute fuer Kohlenforschung    #
                  #                Kaiser Wilhelm Platz 1               #
                  #                 D-45470 Muelheim/Ruhr               #
                  #                      Germany                        #
                  #                                                     #
                  #                  All rights reserved                #
                  #                        -***-                        #
                  #######################################################


                         Program Version 5.0.4 -  RELEASE  -


 With contributions from (in alphabetic order):
   Daniel Aravena         : Magnetic Suceptibility
   Michael Atanasov       : Ab Initio Ligand Field Theory (pilot matlab implementation)
   Alexander A. Auer      : GIAO ZORA, VPT2 properties, NMR spectrum
   Ute Becker             : Parallelization
   Giovanni Bistoni       : ED, misc. LED, open-shell LED, HFLD
   Martin Brehm           : Molecular dynamics
   Dmytro Bykov           : SCF Hessian
   Vijay G. Chilkuri      : MRCI spin determinant printing, contributions to CSF-ICE
   Dipayan Datta          : RHF DLPNO-CCSD density
   Achintya Kumar Dutta   : EOM-CC, STEOM-CC
   Dmitry Ganyushin       : Spin-Orbit,Spin-Spin,Magnetic field MRCI
   Miquel Garcia          : C-PCM and meta-GGA Hessian, CC/C-PCM, Gaussian charge scheme
   Yang Guo               : DLPNO-NEVPT2, F12-NEVPT2, CIM, IAO-localization
   Andreas Hansen         : Spin unrestricted coupled pair/coupled cluster methods
   Benjamin Helmich-Paris : MC-RPA, TRAH-SCF, COSX integrals
   Lee Huntington         : MR-EOM, pCC
   Robert Izsak           : Overlap fitted RIJCOSX, COSX-SCS-MP3, EOM
   Marcus Kettner         : VPT2
   Christian Kollmar      : KDIIS, OOCD, Brueckner-CCSD(T), CCSD density, CASPT2, CASPT2-K
   Simone Kossmann        : Meta GGA functionals, TD-DFT gradient, OOMP2, MP2 Hessian
   Martin Krupicka        : Initial AUTO-CI
   Lucas Lang             : DCDCAS
   Marvin Lechner         : AUTO-CI (C++ implementation), FIC-MRCC
   Dagmar Lenk            : GEPOL surface, SMD
   Dimitrios Liakos       : Extrapolation schemes; Compound Job, initial MDCI parallelization
   Dimitrios Manganas     : Further ROCIS development; embedding schemes
   Dimitrios Pantazis     : SARC Basis sets
   Anastasios Papadopoulos: AUTO-CI, single reference methods and gradients
   Taras Petrenko         : DFT Hessian,TD-DFT gradient, ASA, ECA, R-Raman, ABS, FL, XAS/XES, NRVS
   Peter Pinski           : DLPNO-MP2, DLPNO-MP2 Gradient
   Christoph Reimann      : Effective Core Potentials
   Marius Retegan         : Local ZFS, SOC
   Christoph Riplinger    : Optimizer, TS searches, QM/MM, DLPNO-CCSD(T), (RO)-DLPNO pert. Triples
   Tobias Risthaus        : Range-separated hybrids, TD-DFT gradient, RPA, STAB
   Michael Roemelt        : Original ROCIS implementation
   Masaaki Saitow         : Open-shell DLPNO-CCSD energy and density
   Barbara Sandhoefer     : DKH picture change effects
   Avijit Sen             : IP-ROCIS
   Kantharuban Sivalingam : CASSCF convergence, NEVPT2, FIC-MRCI
   Bernardo de Souza      : ESD, SOC TD-DFT
   Georgi Stoychev        : AutoAux, RI-MP2 NMR, DLPNO-MP2 response
   Willem Van den Heuvel  : Paramagnetic NMR
   Boris Wezisla          : Elementary symmetry handling
   Frank Wennmohs         : Technical directorship


 We gratefully acknowledge several colleagues who have allowed us to
 interface, adapt or use parts of their codes:
   Stefan Grimme, W. Hujo, H. Kruse, P. Pracht,  : VdW corrections, initial TS optimization,
                  C. Bannwarth, S. Ehlert          DFT functionals, gCP, sTDA/sTD-DF
   Ed Valeev, F. Pavosevic, A. Kumar             : LibInt (2-el integral package), F12 methods
   Garnet Chan, S. Sharma, J. Yang, R. Olivares  : DMRG
   Ulf Ekstrom                                   : XCFun DFT Library
   Mihaly Kallay                                 : mrcc  (arbitrary order and MRCC methods)
   Jiri Pittner, Ondrej Demel                    : Mk-CCSD
   Frank Weinhold                                : gennbo (NPA and NBO analysis)
   Christopher J. Cramer and Donald G. Truhlar   : smd solvation model
   Lars Goerigk                                  : TD-DFT with DH, B97 family of functionals
   V. Asgeirsson, H. Jonsson                     : NEB implementation
   FAccTs GmbH                                   : IRC, NEB, NEB-TS, DLPNO-Multilevel, CI-OPT
                                                   MM, QMMM, 2- and 3-layer-ONIOM, Crystal-QMMM,
                                                   LR-CPCM, SF, NACMEs, symmetry and pop. for TD-DFT,
                                                   nearIR, NL-DFT gradient (VV10), updates on ESD,
                                                   ML-optimized integration grids
   S Lehtola, MJT Oliveira, MAL Marques          : LibXC Library
   Liviu Ungur et al                             : ANISO software


 Your calculation uses the libint2 library for the computation of 2-el integrals
 For citations please refer to: http://libint.valeyev.net

 Your ORCA version has been built with support for libXC version: 5.1.0
 For citations please refer to: https://tddft.org/programs/libxc/

 This ORCA versions uses:
   CBLAS   interface :  Fast vector & matrix operations
   LAPACKE interface :  Fast linear algebra routines
   SCALAPACK package :  Parallel linear algebra routines
   Shared memory     :  Shared parallel matrices
   BLAS/LAPACK       :  OpenBLAS 0.3.15  USE64BITINT DYNAMIC_ARCH NO_AFFINITY SkylakeX SINGLE_THREADED
        Core in use  :  SkylakeX
   Copyright (c) 2011-2014, The OpenBLAS Project




***************************************
The coordinates will be read from file: /users/fjb15167/WWenergy/structures/Nw.xyz
***************************************


Your calculation utilizes the atom-pairwise dispersion correction
based on tight binding partial charges (D4)
Cite in your paper:
E.Caldeweyher, C.Bannwarth, S.Grimme, J.Chem.Phys., (2017), 147, 034112.
E.Caldeweyher, S.Ehlert, A.Hansen, H.Neugebauer, S.Grimme, J.Chem.Phys., (2018), in progress.
   

================================================================================

----- Orbital basis set information -----
Your calculation utilizes the basis: 6-31G(d)
   H-He, Li-Ne : W. J. Hehre, R. Ditchfield and J.A. Pople, J. Chem. Phys. 56, 2257 (1972).
                 Note: He and Ne are unpublished basis sets taken from the Gaussian program.
                 Note: Li and B from J. D. Dill and J. A. Pople, J. Chem. Phys. 62, 2921 (1975).
   Na - Ar     : M. M. Francl, W. J. Pietro, W. J. Hehre, J. S. Binkley, M. S. Gordon, 
                 D. J. DeFrees and J. A. Pople, J. Chem. Phys. 77, 3654 (1982).
   K - Zn      : V. A. Rassolov, J. A. Pople, M. A. Ratner, and T. L. Windus, J. Chem. Phys. 109, 1223 (1998).

----- AuxJ basis set information -----
Your calculation utilizes the AutoAux generation procedure.
  G. L. Stoychev, A. A. Auer, F. Neese, J. Chem. Theory Comput. 13, 554 (2017)

----- AuxC basis set information -----
Your calculation utilizes the AutoAux generation procedure.
  G. L. Stoychev, A. A. Auer, F. Neese, J. Chem. Theory Comput. 13, 554 (2017)

----- AuxJK basis set information -----
Your calculation utilizes the AutoAux generation procedure.
  G. L. Stoychev, A. A. Auer, F. Neese, J. Chem. Theory Comput. 13, 554 (2017)

================================================================================
                                        WARNINGS
                       Please study these warnings very carefully!
================================================================================


WARNING: Geometry Optimization
  ===> : Switching off AutoStart
         For restart on a previous wavefunction, please use MOREAD

INFO   : the flag for use of the SHARK integral package has been found!

================================================================================
                                       INPUT FILE
================================================================================
NAME = Nw_water.inp
|  1> ! OPT FREQ B3LYP 6-31G(d) D4 AUTOAUX CPCM(water)
|  2> 
|  3> %PAL NPROCS 4 END
|  4> 
|  5> %maxcore 3375
|  6> 
|  7> *xyzfile 0 1 /users/fjb15167/WWenergy/structures/Nw.xyz
|  8> 
|  9>                          ****END OF INPUT****
================================================================================

                       *****************************
                       * Geometry Optimization Run *
                       *****************************

Geometry optimization settings:
Update method            Update   .... BFGS
Choice of coordinates    CoordSys .... Z-matrix Internals
Initial Hessian          InHess   .... Almoef's Model

Convergence Tolerances:
Energy Change            TolE     ....  5.0000e-06 Eh
Max. Gradient            TolMAXG  ....  3.0000e-04 Eh/bohr
RMS Gradient             TolRMSG  ....  1.0000e-04 Eh/bohr
Max. Displacement        TolMAXD  ....  4.0000e-03 bohr
RMS Displacement         TolRMSD  ....  2.0000e-03 bohr
Strict Convergence                ....  False
------------------------------------------------------------------------------
                        ORCA OPTIMIZATION COORDINATE SETUP
------------------------------------------------------------------------------

The optimization will be done in new redundant internal coordinates
Making redundant internal coordinates   ...  (new redundants) done
Evaluating the initial hessian          ...  (Almloef) done
Evaluating the coordinates              ...  done
Calculating the B-matrix                .... done
Calculating the G-matrix                .... done
Diagonalizing the G-matrix              .... done
Small eigenvalue found = 2.717e-03
Small eigenvalue found = 9.632e-03
Small eigenvalue found = 1.079e-02
Small eigenvalue found = 1.465e-02
Small eigenvalue found = 2.332e-02
Small eigenvalue found = 2.969e-02
The first mode is                       ....   89
The number of degrees of freedom        ....  111

    -----------------------------------------------------------------
                    Redundant Internal Coordinates


    -----------------------------------------------------------------
         Definition                    Initial Value    Approx d2E/dq
    -----------------------------------------------------------------
      1. B(O   4,C   0)                  1.2382         0.977244   
      2. B(C   5,C   0)                  1.5171         0.391642   
      3. B(C   5,H   3)                  1.0894         0.360933   
      4. B(C   5,H   1)                  1.0934         0.355677   
      5. B(C   5,H   2)                  1.0945         0.354244   
      6. B(N   6,C   0)                  1.3780         0.584786   
      7. B(C   7,N   6)                  1.4624         0.428876   
      8. B(H   8,C   7)                  1.0961         0.352125   
      9. B(H   9,C   7)                  1.0936         0.355400   
     10. B(C  10,N   6)                  1.4703         0.416593   
     11. B(H  11,C  10)                  1.1013         0.345455   
     12. B(H  12,C  10)                  1.0907         0.359147   
     13. B(C  13,C  10)                  1.4900         0.432639   
     14. B(C  14,C  13)                  1.3769         0.655496   
     15. B(H  15,C  14)                  1.0828         0.369765   
     16. B(N  16,C  14)                  1.3737         0.594195   
     17. B(H  17,N  16)                  1.0104         0.432131   
     18. B(C  18,N  16)                  1.3808         0.578910   
     19. B(C  19,C  18)                  1.4229         0.553645   
     20. B(C  19,C  13)                  1.4324         0.534632   
     21. B(C  20,C  19)                  1.4086         0.583518   
     22. B(H  21,C  20)                  1.0880         0.362708   
     23. B(C  22,C  20)                  1.3895         0.625862   
     24. B(H  23,C  22)                  1.0879         0.362945   
     25. B(C  24,C  18)                  1.4002         0.601896   
     26. B(H  25,C  24)                  1.0883         0.362312   
     27. B(C  26,C  24)                  1.3896         0.625698   
     28. B(C  26,C  22)                  1.4121         0.576073   
     29. B(H  27,C  26)                  1.0873         0.363684   
     30. B(C  28,C   7)                  1.5319         0.370930   
     31. B(O  29,C  28)                  1.2406         0.968807   
     32. B(N  30,C  28)                  1.3608         0.622989   
     33. B(C  31,N  30)                  1.4526         0.444583   
     34. B(H  32,C  31)                  1.0962         0.351927   
     35. B(H  33,C  31)                  1.0959         0.352345   
     36. B(H  34,C  31)                  1.0874         0.363572   
     37. B(C  35,N  30)                  1.4535         0.443197   
     38. B(H  36,C  26)                  3.0559         0.000263   
     39. B(H  36,C  35)                  1.0952         0.353263   
     40. B(H  37,C  35)                  1.0884         0.362200   
     41. B(H  38,C  35)                  1.0963         0.351911   
     42. A(C   5,C   0,N   6)          118.0110         0.393376   
     43. A(O   4,C   0,C   5)          120.2192         0.430889   
     44. A(O   4,C   0,N   6)          121.7427         0.460282   
     45. A(H   2,C   5,H   3)          109.1369         0.290197   
     46. A(C   0,C   5,H   3)          106.6231         0.326972   
     47. A(H   1,C   5,H   3)          109.0560         0.290381   
     48. A(C   0,C   5,H   2)          111.9522         0.325967   
     49. A(C   0,C   5,H   1)          111.8029         0.326183   
     50. A(H   1,C   5,H   2)          108.2081         0.289530   
     51. A(C   0,N   6,C  10)          123.3831         0.395121   
     52. A(C   7,N   6,C  10)          115.3295         0.374374   
     53. A(C   0,N   6,C   7)          118.1128         0.397141   
     54. A(N   6,C   7,H   8)          109.5414         0.328572   
     55. A(H   8,C   7,H   9)          108.4523         0.289223   
     56. A(N   6,C   7,C  28)          116.0395         0.369279   
     57. A(H   9,C   7,C  28)          110.8000         0.323243   
     58. A(N   6,C   7,H   9)          107.1134         0.329075   
     59. A(H   8,C   7,C  28)          104.7007         0.322753   
     60. A(H  12,C  10,C  13)          110.3344         0.332122   
     61. A(H  11,C  10,C  13)          109.4853         0.329993   
     62. A(N   6,C  10,C  13)          111.6497         0.377311   
     63. A(H  11,C  10,H  12)          107.3208         0.288832   
     64. A(N   6,C  10,H  12)          108.7017         0.328068   
     65. A(N   6,C  10,H  11)          109.2427         0.325974   
     66. A(C  10,C  13,C  19)          126.9971         0.396589   
     67. A(C  14,C  13,C  19)          106.7009         0.426919   
     68. A(C  10,C  13,C  14)          126.1242         0.411111   
     69. A(H  15,C  14,N  16)          120.5659         0.349790   
     70. A(C  13,C  14,N  16)          109.7770         0.432248   
     71. A(C  13,C  14,H  15)          129.6116         0.357862   
     72. A(H  17,N  16,C  18)          125.1016         0.354435   
     73. A(C  14,N  16,C  18)          109.3142         0.419983   
     74. A(C  14,N  16,H  17)          124.7872         0.356006   
     75. A(N  16,C  18,C  19)          107.0717         0.417433   
     76. A(C  19,C  18,C  24)          122.5214         0.423089   
     77. A(N  16,C  18,C  24)          130.3731         0.423704   
     78. A(C  18,C  19,C  20)          118.8010         0.420753   
     79. A(C  13,C  19,C  20)          134.1014         0.418139   
     80. A(C  13,C  19,C  18)          107.0964         0.414247   
     81. A(H  21,C  20,C  22)          120.4342         0.353904   
     82. A(C  19,C  20,C  22)          118.8568         0.430088   
     83. A(C  19,C  20,H  21)          120.7043         0.349737   
     84. A(H  23,C  22,C  26)          119.1456         0.349019   
     85. A(C  20,C  22,C  26)          121.2504         0.429098   
     86. A(C  20,C  22,H  23)          119.6040         0.353943   
     87. A(H  25,C  24,C  26)          121.1649         0.353823   
     88. A(C  18,C  24,C  26)          117.2651         0.432470   
     89. A(C  18,C  24,H  25)          121.5643         0.351508   
     90. A(C  24,C  26,H  27)          119.4036         0.354049   
     91. A(C  22,C  26,H  27)          119.2940         0.349138   
     92. A(C  22,C  26,C  24)          121.2924         0.429078   
     93. A(O  29,C  28,N  30)          122.9174         0.464900   
     94. A(C   7,C  28,N  30)          118.0532         0.393994   
     95. A(C   7,C  28,O  29)          119.0103         0.426049   
     96. A(C  28,N  30,C  35)          118.9026         0.403919   
     97. A(C  31,N  30,C  35)          115.4060         0.380766   
     98. A(C  28,N  30,C  31)          125.6319         0.404142   
     99. A(H  33,C  31,H  34)          108.1635         0.290284   
    100. A(H  32,C  31,H  34)          109.5990         0.290230   
    101. A(N  30,C  31,H  34)          111.5690         0.332286   
    102. A(H  32,C  31,H  33)          108.4745         0.288806   
    103. A(N  30,C  31,H  33)          108.2441         0.330565   
    104. A(N  30,C  31,H  32)          110.6959         0.330500   
    105. A(H  37,C  35,H  38)          109.5066         0.290056   
    106. A(H  36,C  35,H  38)          109.2039         0.288922   
    107. A(N  30,C  35,H  38)          110.2190         0.330327   
    108. A(H  36,C  35,H  37)          109.9974         0.290230   
    109. A(N  30,C  35,H  37)          108.2149         0.331906   
    110. A(N  30,C  35,H  36)          109.6868         0.330536   
    111. D(H   1,C   5,C   0,N   6)    -65.2372         0.011406   
    112. D(H   2,C   5,C   0,N   6)     56.3696         0.011406   
    113. D(H   1,C   5,C   0,O   4)    116.6220         0.011406   
    114. D(H   2,C   5,C   0,O   4)   -121.7712         0.011406   
    115. D(H   3,C   5,C   0,N   6)    175.6577         0.011406   
    116. D(H   3,C   5,C   0,O   4)     -2.4831         0.011406   
    117. D(C   7,N   6,C   0,O   4)    -10.8439         0.027458   
    118. D(C  10,N   6,C   0,C   5)     12.1492         0.027458   
    119. D(C  10,N   6,C   0,O   4)   -169.7399         0.027458   
    120. D(C   7,N   6,C   0,C   5)    171.0452         0.027458   
    121. D(C  28,C   7,N   6,C   0)    125.6817         0.015682   
    122. D(H   9,C   7,N   6,C   0)      1.3510         0.015682   
    123. D(H   9,C   7,N   6,C  10)    161.9222         0.015682   
    124. D(H   8,C   7,N   6,C   0)   -116.0815         0.015682   
    125. D(C  28,C   7,N   6,C  10)    -73.7470         0.015682   
    126. D(H   8,C   7,N   6,C  10)     44.4898         0.015682   
    127. D(C  13,C  10,N   6,C   7)     60.7083         0.014800   
    128. D(C  13,C  10,N   6,C   0)   -139.8623         0.014800   
    129. D(H  12,C  10,N   6,C   7)   -177.3484         0.014800   
    130. D(H  12,C  10,N   6,C   0)    -17.9190         0.014800   
    131. D(H  11,C  10,N   6,C   0)     98.8942         0.014800   
    132. D(H  11,C  10,N   6,C   7)    -60.5352         0.014800   
    133. D(C  19,C  13,C  10,H  12)    -52.0104         0.013820   
    134. D(C  19,C  13,C  10,H  11)   -169.9101         0.013820   
    135. D(C  19,C  13,C  10,N   6)     68.9873         0.013820   
    136. D(C  14,C  13,C  10,H  12)    133.4923         0.013820   
    137. D(C  14,C  13,C  10,H  11)     15.5926         0.013820   
    138. D(C  14,C  13,C  10,N   6)   -105.5100         0.013820   
    139. D(N  16,C  14,C  13,C  10)    176.5587         0.029953   
    140. D(H  15,C  14,C  13,C  19)   -176.3690         0.029953   
    141. D(H  15,C  14,C  13,C  10)     -0.9552         0.029953   
    142. D(N  16,C  14,C  13,C  19)      1.1449         0.029953   
    143. D(C  18,N  16,C  14,H  15)    175.7845         0.028410   
    144. D(C  18,N  16,C  14,C  13)     -1.9913         0.028410   
    145. D(H  17,N  16,C  14,H  15)      5.5910         0.028410   
    146. D(H  17,N  16,C  14,C  13)   -172.1847         0.028410   
    147. D(C  24,C  18,N  16,H  17)     -9.9706         0.026873   
    148. D(C  24,C  18,N  16,C  14)    179.8741         0.026873   
    149. D(C  19,C  18,N  16,H  17)    172.1445         0.026873   
    150. D(C  19,C  18,N  16,C  14)      1.9892         0.026873   
    151. D(C  20,C  19,C  18,C  24)      0.3185         0.020979   
    152. D(C  13,C  19,C  18,C  24)   -179.3500         0.020979   
    153. D(C  13,C  19,C  18,N  16)     -1.2610         0.020979   
    154. D(C  20,C  19,C  13,C  14)   -179.5091         0.019519   
    155. D(C  20,C  19,C  13,C  10)      5.1293         0.019519   
    156. D(C  20,C  19,C  18,N  16)    178.4075         0.020979   
    157. D(C  18,C  19,C  13,C  14)      0.0864         0.019519   
    158. D(C  18,C  19,C  13,C  10)   -175.2752         0.019519   
    159. D(C  22,C  20,C  19,C  18)      0.2026         0.023406   
    160. D(C  22,C  20,C  19,C  13)    179.7614         0.023406   
    161. D(H  21,C  20,C  19,C  18)   -179.0108         0.023406   
    162. D(H  21,C  20,C  19,C  13)      0.5480         0.023406   
    163. D(C  26,C  22,C  20,H  21)    179.3024         0.027136   
    164. D(C  26,C  22,C  20,C  19)      0.0868         0.027136   
    165. D(H  23,C  22,C  20,H  21)     -0.7763         0.027136   
    166. D(H  23,C  22,C  20,C  19)   -179.9919         0.027136   
    167. D(C  26,C  24,C  18,C  19)     -1.0993         0.024983   
    168. D(C  26,C  24,C  18,N  16)   -178.7012         0.024983   
    169. D(H  25,C  24,C  18,C  19)    179.7589         0.024983   
    170. D(H  25,C  24,C  18,N  16)      2.1570         0.024983   
    171. D(H  27,C  26,C  22,C  20)   -179.7627         0.024741   
    172. D(C  24,C  26,C  22,H  23)    179.1610         0.024741   
    173. D(C  24,C  26,C  22,C  20)     -0.9174         0.024741   
    174. D(H  27,C  26,C  24,H  25)     -0.6275         0.029474   
    175. D(H  27,C  26,C  24,C  18)   -179.7729         0.029474   
    176. D(C  22,C  26,C  24,H  25)   -179.4716         0.029474   
    177. D(C  22,C  26,C  24,C  18)      1.3830         0.029474   
    178. D(H  27,C  26,C  22,H  23)      0.3157         0.024741   
    179. D(N  30,C  28,C   7,H   9)     65.6435         0.010300   
    180. D(N  30,C  28,C   7,H   8)   -177.6320         0.010300   
    181. D(N  30,C  28,C   7,N   6)    -56.7641         0.010300   
    182. D(O  29,C  28,C   7,H   9)   -112.8138         0.010300   
    183. D(O  29,C  28,C   7,H   8)      3.9107         0.010300   
    184. D(O  29,C  28,C   7,N   6)    124.7786         0.010300   
    185. D(C  35,N  30,C  28,O  29)     -9.7597         0.031451   
    186. D(C  35,N  30,C  28,C   7)    171.8475         0.031451   
    187. D(C  31,N  30,C  28,O  29)    173.1818         0.031451   
    188. D(C  31,N  30,C  28,C   7)     -5.2110         0.031451   
    189. D(H  34,C  31,N  30,C  35)    165.6520         0.016857   
    190. D(H  34,C  31,N  30,C  28)    -17.1988         0.016857   
    191. D(H  33,C  31,N  30,C  35)     46.7541         0.016857   
    192. D(H  33,C  31,N  30,C  28)   -136.0967         0.016857   
    193. D(H  32,C  31,N  30,C  35)    -72.0100         0.016857   
    194. D(H  32,C  31,N  30,C  28)    105.1392         0.016857   
    195. D(H  38,C  35,N  30,C  31)    -62.3580         0.016751   
    196. D(H  38,C  35,N  30,C  28)    120.2885         0.016751   
    197. D(H  37,C  35,N  30,C  31)    177.9186         0.016751   
    198. D(H  37,C  35,N  30,C  28)      0.5651         0.016751   
    199. D(H  36,C  35,N  30,C  31)     57.9115         0.016751   
    200. D(H  36,C  35,N  30,C  28)   -119.4419         0.016751   
    -----------------------------------------------------------------

Number of atoms                         .... 39
Number of degrees of freedom            .... 200

         *************************************************************
         *                GEOMETRY OPTIMIZATION CYCLE   1            *
         *************************************************************
---------------------------------
CARTESIAN COORDINATES (ANGSTROEM)
---------------------------------
  C      3.318000    0.024000   -0.235000
  H      3.980000    0.956000   -2.085000
  H      3.118000    2.055000   -0.994000
  H      4.764000    1.513000   -0.590000
  O      4.002000   -0.436000    0.689000
  C      3.816000    1.213000   -1.035000
  N      2.078000   -0.491000   -0.545000
  C      1.679000   -1.751000    0.081000
  H      1.554000   -2.520000   -0.690000
  H      2.495000   -2.054000    0.743000
  C      1.331000   -0.127000   -1.758000
  H      1.475000   -0.908000   -2.521000
  H      1.745000    0.799000   -2.159000
  C     -0.124000    0.034000   -1.480000
  C     -1.120000   -0.850000   -1.830000
  H     -1.053000   -1.789000   -2.365000
  N     -2.326000   -0.408000   -1.343000
  H     -3.187000   -0.936000   -1.370000
  C     -2.130000    0.755000   -0.625000
  C     -0.745000    1.070000   -0.710000
  C     -0.276000    2.242000   -0.085000
  H      0.774000    2.521000   -0.144000
  C     -1.181000    3.047000    0.596000
  H     -0.832000    3.955000    1.083000
  C     -3.047000    1.569000    0.051000
  H     -4.104000    1.315000    0.103000
  C     -2.550000    2.709000    0.671000
  H     -3.231000    3.364000    1.209000
  C      0.345000   -1.735000    0.834000
  O     -0.528000   -2.562000    0.529000
  N      0.186000   -0.827000    1.835000
  C      1.213000    0.071000    2.334000
  H      1.038000    1.094000    1.981000
  H      1.168000    0.069000    3.429000
  H      2.207000   -0.253000    2.035000
  C     -1.126000   -0.672000    2.441000
  H     -1.479000    0.355000    2.299000
  H     -1.808000   -1.370000    1.959000
  H     -1.076000   -0.891000    3.514000

----------------------------
CARTESIAN COORDINATES (A.U.)
----------------------------
  NO LB      ZA    FRAG     MASS         X           Y           Z
   0 C     6.0000    0    12.011    6.270111    0.045353   -0.444086
   1 H     1.0000    0     1.008    7.521110    1.806578   -3.940079
   2 H     1.0000    0     1.008    5.892166    3.883387   -1.878388
   3 H     1.0000    0     1.008    9.002655    2.859156   -1.114938
   4 O     8.0000    0    15.999    7.562684   -0.823921    1.302021
   5 C     6.0000    0    12.011    7.211195    2.292238   -1.955867
   6 N     7.0000    0    14.007    3.926851   -0.927856   -1.029901
   7 C     6.0000    0    12.011    3.172850   -3.308910    0.153068
   8 H     1.0000    0     1.008    2.936634   -4.762110   -1.303911
   9 H     1.0000    0     1.008    4.714867   -3.881497    1.404067
  10 C     6.0000    0    12.011    2.515225   -0.239995   -3.322139
  11 H     1.0000    0     1.008    2.787346   -1.715871   -4.764000
  12 H     1.0000    0     1.008    3.297572    1.509891   -4.079919
  13 C     6.0000    0    12.011   -0.234326    0.064251   -2.796795
  14 C     6.0000    0    12.011   -2.116493   -1.606267   -3.458199
  15 H     1.0000    0     1.008   -1.989882   -3.380720   -4.469202
  16 N     7.0000    0    14.007   -4.395503   -0.771008   -2.537902
  17 H     1.0000    0     1.008   -6.022557   -1.768784   -2.588925
  18 C     6.0000    0    12.011   -4.025117    1.426743   -1.181079
  19 C     6.0000    0    12.011   -1.407846    2.022007   -1.341706
  20 C     6.0000    0    12.011   -0.521564    4.236766   -0.160627
  21 H     1.0000    0     1.008    1.462648    4.764000   -0.272121
  22 C     6.0000    0    12.011   -2.231767    5.757996    1.126277
  23 H     1.0000    0     1.008   -1.572252    7.473867    2.046573
  24 C     6.0000    0    12.011   -5.757996    2.964980    0.096376
  25 H     1.0000    0     1.008   -7.755436    2.484990    0.194642
  26 C     6.0000    0    12.011   -4.818802    5.119268    1.268006
  27 H     1.0000    0     1.008   -6.105705    6.357039    2.284679
  28 C     6.0000    0    12.011    0.651956   -3.278675    1.576032
  29 O     8.0000    0    15.999   -0.997775   -4.841478    0.999665
  30 N     7.0000    0    14.007    0.351489   -1.562804    3.467647
  31 C     6.0000    0    12.011    2.292238    0.134171    4.410621
  32 H     1.0000    0     1.008    1.961536    2.067360    3.743547
  33 H     1.0000    0     1.008    2.207200    0.130391    6.479871
  34 H     1.0000    0     1.008    4.170626   -0.478101    3.845593
  35 C     6.0000    0    12.011   -2.127832   -1.269896    4.612821
  36 H     1.0000    0     1.008   -2.794905    0.670853    4.344480
  37 H     1.0000    0     1.008   -3.416625   -2.588925    3.701973
  38 H     1.0000    0     1.008   -2.033345   -1.683746    6.640498

--------------------------------
INTERNAL COORDINATES (ANGSTROEM)
--------------------------------
 C      0   0   0     0.000000000000     0.00000000     0.00000000
 H      1   0   0     2.174711015285     0.00000000     0.00000000
 H      2   1   0     1.772322205469    66.04806609     0.00000000
 H      2   1   3     1.777619194316    63.45522798    67.25625916
 O      1   2   3     1.238237457033   128.74508568   245.66165388
 C      4   2   1     1.089370919384    35.54668729   320.10883170
 N      1   2   3     1.378014876552   104.04674954    92.01055946
 C      7   1   2     1.462421621831   118.11284795   145.13627104
 H      8   7   1     1.096096254897   109.54140020   243.91853752
 H      8   7   1     1.093576243341   107.11342935     1.35095514
 C      7   1   2     1.470331255194   123.38306088   346.24026642
 H     11   7   1     1.101301956777   109.24272790    98.89423151
 H     11   7   1     1.090721320962   108.70169754   342.08102903
 C     11   7   1     1.490043623522   111.64969521   220.13771112
 C     14  11   7     1.376942990832   126.12415632   254.49003157
 H     15  14  11     1.082790376758   129.61160595   359.04484520
 N     15  14  11     1.373669902124   109.77704755   176.55866857
 H     17  15  14     1.010363300996   124.78715160   187.81530014
 C     17  15  14     1.380763918996   109.31423648   358.00871789
 C     19  17  15     1.422910749134   107.07171350     1.98918190
 C     20  19  17     1.408605693585   118.80102392   178.40751944
 H     21  20  19     1.088035844998   120.70426259   180.98916555
 C     21  20  19     1.389536253575   118.85678180     0.20258828
 H     23  21  20     1.087857527436   119.60396020   180.00810737
 C     19  17  15     1.400164633177   130.37314781   179.87405699
 H     25  19  17     1.088333129148   121.56431145     2.15702402
 C     25  19  17     1.389607498541   117.26507946   181.29876780
 H     27  25  19     1.087304005327   119.40364994   180.22706735
 C      8   7   1     1.531933745304   116.03946266   125.68169654
 O     29   8   7     1.240597839753   119.01026123   124.77864212
 N     29   8   7     1.360788741870   118.05320068   303.23594299
 C     31  29   8     1.452630028603   125.63188885   354.78902196
 H     32  31  29     1.096249515393   110.69587549   105.13924386
 H     32  31  29     1.095926092399   108.24412620   223.90331220
 H     32  31  29     1.087388155168   111.56900827   342.80119653
 C     31  29   8     1.453480306024   118.90263443   171.84749903
 H     36  31  29     1.095217786561   109.68679769   240.55806123
 H     36  31  29     1.088417199423   108.21488289     0.56514748
 H     36  31  29     1.096261830039   110.21902771   120.28850892

---------------------------
INTERNAL COORDINATES (A.U.)
---------------------------
 C      0   0   0     0.000000000000     0.00000000     0.00000000
 H      1   0   0     4.109608239310     0.00000000     0.00000000
 H      2   1   0     3.349203589405    66.04806609     0.00000000
 H      2   1   3     3.359213447659    63.45522798    67.25625916
 O      1   2   3     2.339929682556   128.74508568   245.66165388
 C      4   2   1     2.058612695894    35.54668729   320.10883170
 N      1   2   3     2.604070725154   104.04674954    92.01055946
 C      7   1   2     2.763576357586   118.11284795   145.13627104
 H      8   7   1     2.071321738173   109.54140020   243.91853752
 H      8   7   1     2.066559606477   107.11342935     1.35095514
 C      7   1   2     2.778523398461   123.38306088   346.24026642
 H     11   7   1     2.081159089059   109.24272790    98.89423151
 H     11   7   1     2.061164585046   108.70169754   342.08102903
 C     11   7   1     2.815774376053   111.64969521   220.13771112
 C     14  11   7     2.602045154694   126.12415632   254.49003157
 H     15  14  11     2.046177272518   129.61160595   359.04484520
 N     15  14  11     2.595859913424   109.77704755   176.55866857
 H     17  15  14     1.909309934648   124.78715160   187.81530014
 C     17  15  14     2.609265662501   109.31423648   358.00871789
 C     19  17  15     2.688911628875   107.07171350     1.98918190
 C     20  19  17     2.661878991558   118.80102392   178.40751944
 H     21  20  19     2.056089770935   120.70426259   180.98916555
 C     21  20  19     2.625842972412   118.85678180     0.20258828
 H     23  21  20     2.055752799579   119.60396020   180.00810737
 C     19  17  15     2.645927699107   130.37314781   179.87405699
 H     25  19  17     2.056651556562   121.56431145     2.15702402
 C     25  19  17     2.625977605885   117.26507946   181.29876780
 H     27  25  19     2.054706794384   119.40364994   180.22706735
 C      8   7   1     2.894935233936   116.03946266   125.68169654
 O     29   8   7     2.344390159468   119.01026123   124.77864212
 N     29   8   7     2.571518048257   118.05320068   303.23594299
 C     31  29   8     2.745072927970   125.63188885   354.78902196
 H     32  31  29     2.071611358537   110.69587549   105.13924386
 H     32  31  29     2.071000177652   108.24412620   223.90331220
 H     32  31  29     2.054865814538   111.56900827   342.80119653
 C     31  29   8     2.746679719434   118.90263443   171.84749903
 H     36  31  29     2.069661673600   109.68679769   240.55806123
 H     36  31  29     2.056810426359   108.21488289     0.56514748
 H     36  31  29     2.071634629845   110.21902771   120.28850892

---------------------
BASIS SET INFORMATION
---------------------
There are 4 groups of distinct atoms

 Group   1 Type C   : 10s4p1d contracted to 3s2p1d pattern {631/31/1}
 Group   2 Type H   : 4s contracted to 2s pattern {31}
 Group   3 Type O   : 10s4p1d contracted to 3s2p1d pattern {631/31/1}
 Group   4 Type N   : 10s4p1d contracted to 3s2p1d pattern {631/31/1}

Atom   0C    basis set group =>   1
Atom   1H    basis set group =>   2
Atom   2H    basis set group =>   2
Atom   3H    basis set group =>   2
Atom   4O    basis set group =>   3
Atom   5C    basis set group =>   1
Atom   6N    basis set group =>   4
Atom   7C    basis set group =>   1
Atom   8H    basis set group =>   2
Atom   9H    basis set group =>   2
Atom  10C    basis set group =>   1
Atom  11H    basis set group =>   2
Atom  12H    basis set group =>   2
Atom  13C    basis set group =>   1
Atom  14C    basis set group =>   1
Atom  15H    basis set group =>   2
Atom  16N    basis set group =>   4
Atom  17H    basis set group =>   2
Atom  18C    basis set group =>   1
Atom  19C    basis set group =>   1
Atom  20C    basis set group =>   1
Atom  21H    basis set group =>   2
Atom  22C    basis set group =>   1
Atom  23H    basis set group =>   2
Atom  24C    basis set group =>   1
Atom  25H    basis set group =>   2
Atom  26C    basis set group =>   1
Atom  27H    basis set group =>   2
Atom  28C    basis set group =>   1
Atom  29O    basis set group =>   3
Atom  30N    basis set group =>   4
Atom  31C    basis set group =>   1
Atom  32H    basis set group =>   2
Atom  33H    basis set group =>   2
Atom  34H    basis set group =>   2
Atom  35C    basis set group =>   1
Atom  36H    basis set group =>   2
Atom  37H    basis set group =>   2
Atom  38H    basis set group =>   2
---------------------------------
AUXILIARY/J BASIS SET INFORMATION
---------------------------------
There are 4 groups of distinct atoms

 Group   1 Type C   : 13s11p10d2f contracted to 13s11p10d2f pattern {1111111111111/11111111111/1111111111/11}
 Group   2 Type H   : 9s2p contracted to 9s2p pattern {111111111/11}
 Group   3 Type O   : 14s11p10d2f contracted to 14s11p10d2f pattern {11111111111111/11111111111/1111111111/11}
 Group   4 Type N   : 14s11p10d2f contracted to 14s11p10d2f pattern {11111111111111/11111111111/1111111111/11}

Atom   0C    basis set group =>   1
Atom   1H    basis set group =>   2
Atom   2H    basis set group =>   2
Atom   3H    basis set group =>   2
Atom   4O    basis set group =>   3
Atom   5C    basis set group =>   1
Atom   6N    basis set group =>   4
Atom   7C    basis set group =>   1
Atom   8H    basis set group =>   2
Atom   9H    basis set group =>   2
Atom  10C    basis set group =>   1
Atom  11H    basis set group =>   2
Atom  12H    basis set group =>   2
Atom  13C    basis set group =>   1
Atom  14C    basis set group =>   1
Atom  15H    basis set group =>   2
Atom  16N    basis set group =>   4
Atom  17H    basis set group =>   2
Atom  18C    basis set group =>   1
Atom  19C    basis set group =>   1
Atom  20C    basis set group =>   1
Atom  21H    basis set group =>   2
Atom  22C    basis set group =>   1
Atom  23H    basis set group =>   2
Atom  24C    basis set group =>   1
Atom  25H    basis set group =>   2
Atom  26C    basis set group =>   1
Atom  27H    basis set group =>   2
Atom  28C    basis set group =>   1
Atom  29O    basis set group =>   3
Atom  30N    basis set group =>   4
Atom  31C    basis set group =>   1
Atom  32H    basis set group =>   2
Atom  33H    basis set group =>   2
Atom  34H    basis set group =>   2
Atom  35C    basis set group =>   1
Atom  36H    basis set group =>   2
Atom  37H    basis set group =>   2
Atom  38H    basis set group =>   2
---------------------------------
AUXILIARY/C BASIS SET INFORMATION
---------------------------------
There are 4 groups of distinct atoms

 Group   1 Type C   : 13s11p10d2f contracted to 13s11p10d2f pattern {1111111111111/11111111111/1111111111/11}
 Group   2 Type H   : 9s2p contracted to 9s2p pattern {111111111/11}
 Group   3 Type O   : 14s11p10d2f contracted to 14s11p10d2f pattern {11111111111111/11111111111/1111111111/11}
 Group   4 Type N   : 14s11p10d2f contracted to 14s11p10d2f pattern {11111111111111/11111111111/1111111111/11}

Atom   0C    basis set group =>   1
Atom   1H    basis set group =>   2
Atom   2H    basis set group =>   2
Atom   3H    basis set group =>   2
Atom   4O    basis set group =>   3
Atom   5C    basis set group =>   1
Atom   6N    basis set group =>   4
Atom   7C    basis set group =>   1
Atom   8H    basis set group =>   2
Atom   9H    basis set group =>   2
Atom  10C    basis set group =>   1
Atom  11H    basis set group =>   2
Atom  12H    basis set group =>   2
Atom  13C    basis set group =>   1
Atom  14C    basis set group =>   1
Atom  15H    basis set group =>   2
Atom  16N    basis set group =>   4
Atom  17H    basis set group =>   2
Atom  18C    basis set group =>   1
Atom  19C    basis set group =>   1
Atom  20C    basis set group =>   1
Atom  21H    basis set group =>   2
Atom  22C    basis set group =>   1
Atom  23H    basis set group =>   2
Atom  24C    basis set group =>   1
Atom  25H    basis set group =>   2
Atom  26C    basis set group =>   1
Atom  27H    basis set group =>   2
Atom  28C    basis set group =>   1
Atom  29O    basis set group =>   3
Atom  30N    basis set group =>   4
Atom  31C    basis set group =>   1
Atom  32H    basis set group =>   2
Atom  33H    basis set group =>   2
Atom  34H    basis set group =>   2
Atom  35C    basis set group =>   1
Atom  36H    basis set group =>   2
Atom  37H    basis set group =>   2
Atom  38H    basis set group =>   2
----------------------------------
AUXILIARY/JK BASIS SET INFORMATION
----------------------------------
There are 4 groups of distinct atoms

 Group   1 Type C   : 13s11p10d2f contracted to 13s11p10d2f pattern {1111111111111/11111111111/1111111111/11}
 Group   2 Type H   : 9s2p contracted to 9s2p pattern {111111111/11}
 Group   3 Type O   : 14s11p10d2f contracted to 14s11p10d2f pattern {11111111111111/11111111111/1111111111/11}
 Group   4 Type N   : 14s11p10d2f contracted to 14s11p10d2f pattern {11111111111111/11111111111/1111111111/11}

Atom   0C    basis set group =>   1
Atom   1H    basis set group =>   2
Atom   2H    basis set group =>   2
Atom   3H    basis set group =>   2
Atom   4O    basis set group =>   3
Atom   5C    basis set group =>   1
Atom   6N    basis set group =>   4
Atom   7C    basis set group =>   1
Atom   8H    basis set group =>   2
Atom   9H    basis set group =>   2
Atom  10C    basis set group =>   1
Atom  11H    basis set group =>   2
Atom  12H    basis set group =>   2
Atom  13C    basis set group =>   1
Atom  14C    basis set group =>   1
Atom  15H    basis set group =>   2
Atom  16N    basis set group =>   4
Atom  17H    basis set group =>   2
Atom  18C    basis set group =>   1
Atom  19C    basis set group =>   1
Atom  20C    basis set group =>   1
Atom  21H    basis set group =>   2
Atom  22C    basis set group =>   1
Atom  23H    basis set group =>   2
Atom  24C    basis set group =>   1
Atom  25H    basis set group =>   2
Atom  26C    basis set group =>   1
Atom  27H    basis set group =>   2
Atom  28C    basis set group =>   1
Atom  29O    basis set group =>   3
Atom  30N    basis set group =>   4
Atom  31C    basis set group =>   1
Atom  32H    basis set group =>   2
Atom  33H    basis set group =>   2
Atom  34H    basis set group =>   2
Atom  35C    basis set group =>   1
Atom  36H    basis set group =>   2
Atom  37H    basis set group =>   2
Atom  38H    basis set group =>   2


           ************************************************************
           *        Program running with 4 parallel MPI-processes     *
           *              working on a common directory               *
           ************************************************************
------------------------------------------------------------------------------
                           ORCA GTO INTEGRAL CALCULATION
                           -- RI-GTO INTEGRALS CHOSEN --
------------------------------------------------------------------------------
------------------------------------------------------------------------------
                   ___                                                        
                  /   \      - P O W E R E D   B Y -                         
                 /     \                                                     
                 |  |  |   _    _      __       _____    __    __             
                 |  |  |  | |  | |    /  \     |  _  \  |  |  /  |          
                  \  \/   | |  | |   /    \    | | | |  |  | /  /          
                 / \  \   | |__| |  /  /\  \   | |_| |  |  |/  /          
                |  |  |   |  __  | /  /__\  \  |    /   |      \           
                |  |  |   | |  | | |   __   |  |    \   |  |\   \          
                \     /   | |  | | |  |  |  |  | |\  \  |  | \   \       
                 \___/    |_|  |_| |__|  |__|  |_| \__\ |__|  \__/        
                                                                              
                      - O R C A' S   B I G   F R I E N D -                    
                                      &                                       
                       - I N T E G R A L  F E E D E R -                       
                                                                              
 v1 FN, 2020, v2 2021                                                         
------------------------------------------------------------------------------


Reading SHARK input file Nw_water.SHARKINP.tmp ... ok
----------------------
SHARK INTEGRAL PACKAGE
----------------------

Number of atoms                             ...     39
Number of basis functions                   ...    318
Number of shells                            ...    158
Maximum angular momentum                    ...      2
Integral batch strategy                     ... SHARK/LIBINT Hybrid
RI-J (if used) integral strategy            ... SPLIT-RIJ (Revised 2003 algorithm where possible)
Printlevel                                  ...      1
Contraction scheme used                     ... SEGMENTED contraction
Coulomb Range Separation                    ... NOT USED
Exchange Range Separation                   ... NOT USED
Finite Nucleus Model                        ... NOT USED
Auxiliary Coulomb fitting basis             ... AVAILABLE
   # of basis functions in Aux-J            ...   2490
   # of shells in Aux-J                     ...    934
   Maximum angular momentum in Aux-J        ...      3
Auxiliary J/K fitting basis                 ... AVAILABLE
   # of basis functions in Aux-JK           ...   2490
   # of shells in Aux-JK                    ...    934
   Maximum angular momentum in Aux-JK       ...      3
Auxiliary Correlation fitting basis         ... AVAILABLE
   # of basis functions in Aux-C            ...   2490
   # of shells in Aux-C                     ...    934
   Maximum angular momentum in Aux-C        ...      3
Auxiliary 'external' fitting basis          ... NOT available
Integral threshold                          ...     2.500000e-11
Primitive cut-off                           ...     2.500000e-12
Primitive pair pre-selection threshold      ...     2.500000e-12

Calculating pre-screening integrals         ... done (  0.1 sec) Dimension = 158
Organizing shell pair data                  ... done (  0.1 sec)
Shell pair information
Total number of shell pairs                 ...     12561
Shell pairs after pre-screening             ...     10599
Total number of primitive shell pairs       ...     71353
Primitive shell pairs kept                  ...     33710
          la=0 lb=0:   3893 shell pairs
          la=1 lb=0:   3510 shell pairs
          la=1 lb=1:    788 shell pairs
          la=2 lb=0:   1516 shell pairs
          la=2 lb=1:    726 shell pairs
          la=2 lb=2:    166 shell pairs

Calculating one electron integrals          ... done (  0.0 sec)
Calculating RI/J V-Matrix + Cholesky decomp.... done (  0.4 sec)
Calculating RI/JK V-Matrix + Cholesky decomp... done (  0.5 sec)
Calculating RI/C V-Matrix + Cholesky decomp.... done (  0.5 sec)
Calculating Nuclear repulsion               ... done (  0.0 sec) ENN=   1670.265646637863 Eh

SHARK setup successfully completed in   1.8 seconds

Maximum memory used throughout the entire GTOINT-calculation: 52.1 MB


           ************************************************************
           *        Program running with 4 parallel MPI-processes     *
           *              working on a common directory               *
           ************************************************************
-------------------------------------------------------------------------------
                                 ORCA SCF
-------------------------------------------------------------------------------

------------
SCF SETTINGS
------------
Hamiltonian:
 Density Functional     Method          .... DFT(GTOs)
 Exchange Functional    Exchange        .... B88
   X-Alpha parameter    XAlpha          ....  0.666667
   Becke's b parameter  XBeta           ....  0.004200
 Correlation Functional Correlation     .... LYP
 LDA part of GGA corr.  LDAOpt          .... VWN-5
 Gradients option       PostSCFGGA      .... off
 Hybrid DFT is turned on
   Fraction HF Exchange ScalHFX         ....  0.200000
   Scaling of DF-GGA-X  ScalDFX         ....  0.720000
   Scaling of DF-GGA-C  ScalDFC         ....  0.810000
   Scaling of DF-LDA-C  ScalLDAC        ....  1.000000
   Perturbative correction              ....  0.000000
   Density functional embedding theory  .... OFF
   NL short-range parameter             ....  4.800000
 RI-approximation to the Coulomb term is turned on
   Number of AuxJ basis functions       .... 2490
   RIJ-COSX (HFX calculated with COS-X)).... on


General Settings:
 Integral files         IntName         .... Nw_water
 Hartree-Fock type      HFTyp           .... RHF
 Total Charge           Charge          ....    0
 Multiplicity           Mult            ....    1
 Number of Electrons    NEL             ....  146
 Basis Dimension        Dim             ....  318
 Nuclear Repulsion      ENuc            ....   1670.2656466379 Eh

Convergence Acceleration:
 DIIS                   CNVDIIS         .... on
   Start iteration      DIISMaxIt       ....    12
   Startup error        DIISStart       ....  0.200000
   # of expansion vecs  DIISMaxEq       ....     5
   Bias factor          DIISBfac        ....   1.050
   Max. coefficient     DIISMaxC        ....  10.000
 Trust-Rad. Augm. Hess. CNVTRAH         .... auto
   Auto Start mean grad. ratio tolernc. ....  1.125000
   Auto Start start iteration           ....    20
   Auto Start num. interpolation iter.  ....    10
   Max. Number of Micro iterations      ....    16
   Max. Number of Macro iterations      .... Maxiter - #DIIS iter
   Number of Davidson start vectors     ....     2
   Converg. threshold I  (grad. norm)   ....   1.000e-05
   Converg. threshold II (energy diff.) ....   1.000e-08
   Grad. Scal. Fac. for Micro threshold ....   0.100
   Minimum threshold for Micro iter.    ....   0.010
   NR start threshold (gradient norm)   ....   0.001
   Initial trust radius                 ....   0.400
   Minimum AH scaling param. (alpha)    ....   1.000
   Maximum AH scaling param. (alpha)    .... 1000.000
   Orbital update algorithm             .... Taylor
   White noise on init. David. guess    .... on
   Maximum white noise                  ....   0.010
   Quad. conv. algorithm                .... NR
 SOSCF                  CNVSOSCF        .... on
   Start iteration      SOSCFMaxIt      ....   150
   Startup grad/error   SOSCFStart      ....  0.003300
 Level Shifting         CNVShift        .... on
   Level shift para.    LevelShift      ....    0.2500
   Turn off err/grad.   ShiftErr        ....    0.0010
 Zerner damping         CNVZerner       .... off
 Static damping         CNVDamp         .... on
   Fraction old density DampFac         ....    0.7000
   Max. Damping (<1)    DampMax         ....    0.9800
   Min. Damping (>=0)   DampMin         ....    0.0000
   Turn off err/grad.   DampErr         ....    0.1000
 Fernandez-Rico         CNVRico         .... off

SCF Procedure:
 Maximum # iterations   MaxIter         ....   125
 SCF integral mode      SCFMode         .... Direct
   Integral package                     .... SHARK and LIBINT hybrid scheme
 Reset frequency        DirectResetFreq ....    20
 Integral Threshold     Thresh          ....  2.500e-11 Eh
 Primitive CutOff       TCut            ....  2.500e-12 Eh

Convergence Tolerance:
 Convergence Check Mode ConvCheckMode   .... Total+1el-Energy
 Convergence forced     ConvForced      .... 0
 Energy Change          TolE            ....  1.000e-08 Eh
 1-El. energy change                    ....  1.000e-05 Eh
 Orbital Gradient       TolG            ....  1.000e-05
 Orbital Rotation angle TolX            ....  1.000e-05
 DIIS Error             TolErr          ....  5.000e-07


Diagonalization of the overlap matrix:
Smallest eigenvalue                        ... 3.707e-04
Time for diagonalization                   ...    0.017 sec
Threshold for overlap eigenvalues          ... 1.000e-08
Number of eigenvalues below threshold      ... 0
Time for construction of square roots      ...    0.008 sec
Total time needed                          ...    0.026 sec

Time for model grid setup =    0.432 sec

------------------------------
INITIAL GUESS: MODEL POTENTIAL
------------------------------
Loading Hartree-Fock densities                     ... done
Calculating cut-offs                               ... done
Initializing the effective Hamiltonian             ... done
Setting up the integral package (SHARK)            ... done
Starting the Coulomb interaction                   ... done (   0.5 sec)
Reading the grid                                   ... done
Mapping shells                                     ... done
Starting the XC term evaluation                    ... done (   0.3 sec)
  promolecular density results
     # of electrons  =    145.988407222
     EX              =   -118.959538329
     EC              =     -4.962804572
     EX+EC           =   -123.922342902
Transforming the Hamiltonian                       ... done (   0.0 sec)
Diagonalizing the Hamiltonian                      ... done (   0.0 sec)
Back transforming the eigenvectors                 ... done (   0.0 sec)
Now organizing SCF variables                       ... done
                      ------------------
                      INITIAL GUESS DONE (   1.2 sec)
                      ------------------
-------------------
DFT GRID GENERATION
-------------------

General Integration Accuracy     IntAcc      ... 4.388
Radial Grid Type                 RadialGrid  ... OptM3 with GC (2021)
Angular Grid (max. ang.)         AngularGrid ... 4 (Lebedev-302)
Angular grid pruning method      GridPruning ... 4 (adaptive)
Weight generation scheme         WeightScheme... Becke
Basis function cutoff            BFCut       ... 1.0000e-11
Integration weight cutoff        WCut        ... 1.0000e-14
Angular grids for H and He will be reduced by one unit
Partially contracted basis set               ... off
Rotationally invariant grid construction     ... off

Total number of grid points                  ...   179164
Total number of batches                      ...     2817
Average number of points per batch           ...       63
Average number of grid points per atom       ...     4594
Time for grid setup =    2.981 sec

--------------------
COSX GRID GENERATION
--------------------

GRIDX 1
-------
General Integration Accuracy     IntAcc      ... 3.816
Radial Grid Type                 RadialGrid  ... OptM3 with GC (2021)
Angular Grid (max. ang.)         AngularGrid ... 1 (Lebedev-50)
Angular grid pruning method      GridPruning ... 4 (adaptive)
Weight generation scheme         WeightScheme... Becke
Basis function cutoff            BFCut       ... 1.0000e-11
Integration weight cutoff        WCut        ... 1.0000e-14
Angular grids for H and He will be reduced by one unit
Partially contracted basis set               ... on
Rotationally invariant grid construction     ... off

Total number of grid points                  ...    22747
Total number of batches                      ...      377
Average number of points per batch           ...       60
Average number of grid points per atom       ...      583
UseSFitting                                  ... on

GRIDX 2
-------
General Integration Accuracy     IntAcc      ... 4.020
Radial Grid Type                 RadialGrid  ... OptM3 with GC (2021)
Angular Grid (max. ang.)         AngularGrid ... 2 (Lebedev-110)
Angular grid pruning method      GridPruning ... 4 (adaptive)
Weight generation scheme         WeightScheme... Becke
Basis function cutoff            BFCut       ... 1.0000e-11
Integration weight cutoff        WCut        ... 1.0000e-14
Angular grids for H and He will be reduced by one unit
Partially contracted basis set               ... on
Rotationally invariant grid construction     ... off

Total number of grid points                  ...    48598
Total number of batches                      ...      779
Average number of points per batch           ...       62
Average number of grid points per atom       ...     1246
UseSFitting                                  ... on

GRIDX 3
-------
General Integration Accuracy     IntAcc      ... 4.338
Radial Grid Type                 RadialGrid  ... OptM3 with GC (2021)
Angular Grid (max. ang.)         AngularGrid ... 3 (Lebedev-194)
Angular grid pruning method      GridPruning ... 4 (adaptive)
Weight generation scheme         WeightScheme... Becke
Basis function cutoff            BFCut       ... 1.0000e-11
Integration weight cutoff        WCut        ... 1.0000e-14
Angular grids for H and He will be reduced by one unit
Partially contracted basis set               ... on
Rotationally invariant grid construction     ... off

Total number of grid points                  ...   106001
Total number of batches                      ...     1675
Average number of points per batch           ...       63
Average number of grid points per atom       ...     2718
UseSFitting                                  ... on

Time for X-Grid setup             =    2.752 sec


--------------------
CPCM SOLVATION MODEL
--------------------
CPCM parameters:
  Epsilon                                         ...      80.4000
  Refrac                                          ...       1.3300
  Rsolv                                           ...       1.3000
  Surface type                                    ... GAUSSIAN VDW
  Epsilon function type                           ...         CPCM
Radii:
 Radius for C  used is    3.8550 Bohr (=   2.0400 Ang.)
 Radius for H  used is    2.4944 Bohr (=   1.3200 Ang.)
 Radius for O  used is    3.4469 Bohr (=   1.8240 Ang.)
 Radius for N  used is    3.5149 Bohr (=   1.8600 Ang.)
Calculating surface                               ...        done! (  0.0s)
GEPOL surface points                              ...         1990
GEPOL Volume                                      ...    2205.6917
GEPOL Surface-area                                ...    1060.1391
Calculating surface distance matrix               ...        done! (  0.0s)
Performing Cholesky decomposition & store         ...        done! (  0.2s)
Overall time for CPCM initialization              ...                 0.2s
--------------
SCF ITERATIONS
--------------
ITER       Energy         Delta-E        Max-DP      RMS-DP      [F,P]     Damp
               ***  Starting incremental Fock matrix formation  ***
  0   -896.7198165683   0.000000000000 0.09141186  0.00176185  0.2746162 0.7000
  1   -896.9517957337  -0.231979165345 0.05027392  0.00119673  0.1100413 0.7000
                               ***Turning on DIIS***
  2   -897.0458042137  -0.094008480038 0.06157551  0.00195730  0.0364735 0.0000
  3   -897.1936743655  -0.147870151840 0.03618916  0.00082754  0.0564602 0.0000
  4   -897.2239877135  -0.030313347914 0.00962854  0.00026490  0.0104799 0.0000
  5   -897.2259371976  -0.001949484169 0.00399970  0.00008523  0.0064115 0.0000
                      *** Initiating the SOSCF procedure ***
                           *** Shutting down DIIS ***
                      *** Re-Reading the Fockian *** 
                      *** Removing any level shift *** 
ITER      Energy       Delta-E        Grad      Rot      Max-DP    RMS-DP
  6   -897.22609383  -0.0001566355  0.000238  0.000238  0.001379  0.000039
               *** Restarting incremental Fock matrix formation ***
  7   -897.22615031  -0.0000564779  0.000227  0.001113  0.001773  0.000029
  8   -897.22613854   0.0000117746  0.000478  0.000735  0.001101  0.000019
  9   -897.22615541  -0.0000168726  0.000074  0.000189  0.000393  0.000006
 10   -897.22615484   0.0000005713  0.000135  0.000122  0.000263  0.000004
 11   -897.22615563  -0.0000007896  0.000005  0.000027  0.000030  0.000001
 12   -897.22615560   0.0000000227  0.000010  0.000020  0.000023  0.000000
                  ***Gradient check signals convergence***
              ***Rediagonalizing the Fockian in SOSCF/NRSCF***

               *****************************************************
               *                     SUCCESS                       *
               *           SCF CONVERGED AFTER  13 CYCLES          *
               *****************************************************

Old exchange energy                            =    -24.199038965 Eh
New exchange energy                            =    -24.199035958 Eh
Exchange energy change after final integration =      0.000003007 Eh
Total energy after final integration           =   -897.226152612 Eh
Final COS-X integration done in                =    19.201 sec

----------------
TOTAL SCF ENERGY
----------------

Total Energy       :         -897.22615261 Eh          -24414.76484 eV

Components:
Nuclear Repulsion  :         1670.26564664 Eh           45450.23889 eV
Electronic Energy  :        -2567.49179925 Eh          -69865.00373 eV
One Electron Energy:        -4539.25915968 Eh         -123519.52135 eV
Two Electron Energy:         1971.76736043 Eh           53654.51762 eV
Max COSX asymmetry :            0.00000268 Eh               0.00007 eV
CPCM Dielectric    :           -0.02565332 Eh              -0.69806 eV

Virial components:
Potential Energy   :        -1789.21578284 Eh          -48687.03665 eV
Kinetic Energy     :          891.98963023 Eh           24272.27182 eV
Virial Ratio       :            2.00587061


DFT components:
N(Alpha)           :       73.000008624990 electrons
N(Beta)            :       73.000008624990 electrons
N(Total)           :      146.000017249979 electrons
E(X)               :      -96.101236033690 Eh       
E(C)               :       -5.841821738597 Eh       
E(XC)              :     -101.943057772287 Eh       
DFET-embed. en.    :        0.000000000000 Eh       
CPCM Solvation Model Properties:
Surface-charge          :           -0.02148126
Charge-correction       :           -0.00010574 Eh              -0.00288 eV
Free-energy (cav+disp)  :  This term is not implemented in the current solvation scheme

---------------
SCF CONVERGENCE
---------------

  Last Energy change         ...   -1.4546e-08  Tolerance :   1.0000e-08
  Last MAX-Density change    ...    3.1086e-15  Tolerance :   1.0000e-07
  Last RMS-Density change    ...    4.2460e-17  Tolerance :   5.0000e-09
  Last Orbital Gradient      ...    9.9966e-07  Tolerance :   1.0000e-05
  Last Orbital Rotation      ...    2.9953e-06  Tolerance :   1.0000e-05

             **** THE GBW FILE WAS UPDATED (Nw_water.gbw) ****
             **** DENSITY Nw_water.scfp WAS UPDATED ****
             **** ENERGY FILE WAS UPDATED (Nw_water.en.tmp) ****
             **** THE GBW FILE WAS UPDATED (Nw_water.gbw) ****
             **** DENSITY Nw_water.scfp WAS UPDATED ****
----------------
ORBITAL ENERGIES
----------------

  NO   OCC          E(Eh)            E(eV) 
   0   2.0000     -19.111734      -520.0567 
   1   2.0000     -19.098850      -519.7061 
   2   2.0000     -14.362196      -390.8152 
   3   2.0000     -14.358007      -390.7012 
   4   2.0000     -14.350535      -390.4979 
   5   2.0000     -10.283918      -279.8396 
   6   2.0000     -10.273584      -279.5584 
   7   2.0000     -10.212408      -277.8937 
   8   2.0000     -10.206684      -277.7380 
   9   2.0000     -10.206453      -277.7317 
  10   2.0000     -10.205091      -277.6947 
  11   2.0000     -10.191361      -277.3210 
  12   2.0000     -10.188477      -277.2426 
  13   2.0000     -10.176419      -276.9144 
  14   2.0000     -10.173341      -276.8307 
  15   2.0000     -10.172331      -276.8032 
  16   2.0000     -10.171848      -276.7901 
  17   2.0000     -10.171817      -276.7892 
  18   2.0000     -10.169095      -276.7151 
  19   2.0000     -10.165333      -276.6128 
  20   2.0000      -1.031276       -28.0624 
  21   2.0000      -1.018327       -27.7101 
  22   2.0000      -0.970594       -26.4112 
  23   2.0000      -0.931338       -25.3430 
  24   2.0000      -0.920209       -25.0402 
  25   2.0000      -0.831377       -22.6229 
  26   2.0000      -0.787974       -21.4419 
  27   2.0000      -0.755468       -20.5573 
  28   2.0000      -0.730548       -19.8792 
  29   2.0000      -0.724292       -19.7090 
  30   2.0000      -0.712742       -19.3947 
  31   2.0000      -0.703217       -19.1355 
  32   2.0000      -0.684904       -18.6372 
  33   2.0000      -0.663387       -18.0517 
  34   2.0000      -0.613540       -16.6953 
  35   2.0000      -0.584201       -15.8969 
  36   2.0000      -0.563593       -15.3362 
  37   2.0000      -0.547622       -14.9015 
  38   2.0000      -0.533133       -14.5073 
  39   2.0000      -0.528060       -14.3692 
  40   2.0000      -0.506811       -13.7910 
  41   2.0000      -0.485810       -13.2196 
  42   2.0000      -0.475350       -12.9349 
  43   2.0000      -0.466931       -12.7058 
  44   2.0000      -0.463037       -12.5999 
  45   2.0000      -0.458551       -12.4778 
  46   2.0000      -0.451812       -12.2944 
  47   2.0000      -0.442055       -12.0289 
  48   2.0000      -0.428969       -11.6728 
  49   2.0000      -0.422090       -11.4857 
  50   2.0000      -0.414141       -11.2693 
  51   2.0000      -0.410562       -11.1720 
  52   2.0000      -0.405887       -11.0447 
  53   2.0000      -0.396572       -10.7913 
  54   2.0000      -0.393725       -10.7138 
  55   2.0000      -0.389852       -10.6084 
  56   2.0000      -0.386741       -10.5237 
  57   2.0000      -0.384560       -10.4644 
  58   2.0000      -0.382671       -10.4130 
  59   2.0000      -0.373079       -10.1520 
  60   2.0000      -0.368982       -10.0405 
  61   2.0000      -0.353207        -9.6113 
  62   2.0000      -0.346639        -9.4325 
  63   2.0000      -0.342831        -9.3289 
  64   2.0000      -0.328210        -8.9311 
  65   2.0000      -0.324064        -8.8182 
  66   2.0000      -0.269417        -7.3312 
  67   2.0000      -0.256218        -6.9720 
  68   2.0000      -0.252788        -6.8787 
  69   2.0000      -0.234754        -6.3880 
  70   2.0000      -0.232168        -6.3176 
  71   2.0000      -0.213156        -5.8003 
  72   2.0000      -0.197006        -5.3608 
  73   0.0000      -0.005528        -0.1504 
  74   0.0000       0.020786         0.5656 
  75   0.0000       0.025306         0.6886 
  76   0.0000       0.032326         0.8796 
  77   0.0000       0.071758         1.9526 
  78   0.0000       0.090960         2.4751 
  79   0.0000       0.109803         2.9879 
  80   0.0000       0.118355         3.2206 
  81   0.0000       0.121959         3.3187 
  82   0.0000       0.125313         3.4100 
  83   0.0000       0.144178         3.9233 
  84   0.0000       0.152129         4.1396 
  85   0.0000       0.157103         4.2750 
  86   0.0000       0.159945         4.3523 
  87   0.0000       0.167674         4.5626 
  88   0.0000       0.170247         4.6327 
  89   0.0000       0.172884         4.7044 
  90   0.0000       0.177564         4.8318 
  91   0.0000       0.180552         4.9131 
  92   0.0000       0.185883         5.0581 
  93   0.0000       0.189693         5.1618 
  94   0.0000       0.194053         5.2805 
  95   0.0000       0.194741         5.2992 
  96   0.0000       0.201648         5.4871 
  97   0.0000       0.214757         5.8438 
  98   0.0000       0.225730         6.1424 
  99   0.0000       0.235371         6.4048 
 100   0.0000       0.241958         6.5840 
 101   0.0000       0.249908         6.8004 
 102   0.0000       0.254015         6.9121 
 103   0.0000       0.265632         7.2282 
 104   0.0000       0.269590         7.3359 
 105   0.0000       0.276620         7.5272 
 106   0.0000       0.284424         7.7396 
 107   0.0000       0.295095         8.0299 
 108   0.0000       0.327914         8.9230 
 109   0.0000       0.332258         9.0412 
 110   0.0000       0.349099         9.4995 
 111   0.0000       0.352358         9.5881 
 112   0.0000       0.361575         9.8390 
 113   0.0000       0.387649        10.5485 
 114   0.0000       0.402398        10.9498 
 115   0.0000       0.423796        11.5321 
 116   0.0000       0.445113        12.1121 
 117   0.0000       0.468612        12.7516 
 118   0.0000       0.480263        13.0686 
 119   0.0000       0.495705        13.4888 
 120   0.0000       0.499521        13.5927 
 121   0.0000       0.513351        13.9690 
 122   0.0000       0.519528        14.1371 
 123   0.0000       0.531376        14.4595 
 124   0.0000       0.540678        14.7126 
 125   0.0000       0.547582        14.9005 
 126   0.0000       0.549782        14.9603 
 127   0.0000       0.569021        15.4838 
 128   0.0000       0.572343        15.5743 
 129   0.0000       0.577450        15.7132 
 130   0.0000       0.589096        16.0301 
 131   0.0000       0.601259        16.3611 
 132   0.0000       0.607104        16.5201 
 133   0.0000       0.618924        16.8418 
 134   0.0000       0.619135        16.8475 
 135   0.0000       0.625680        17.0256 
 136   0.0000       0.629638        17.1333 
 137   0.0000       0.632303        17.2058 
 138   0.0000       0.634762        17.2728 
 139   0.0000       0.643299        17.5051 
 140   0.0000       0.657955        17.9039 
 141   0.0000       0.660720        17.9791 
 142   0.0000       0.671187        18.2639 
 143   0.0000       0.675811        18.3897 
 144   0.0000       0.680317        18.5124 
 145   0.0000       0.693863        18.8810 
 146   0.0000       0.711763        19.3681 
 147   0.0000       0.716116        19.4865 
 148   0.0000       0.734557        19.9883 
 149   0.0000       0.754632        20.5346 
 150   0.0000       0.757761        20.6197 
 151   0.0000       0.769502        20.9392 
 152   0.0000       0.780707        21.2441 
 153   0.0000       0.803800        21.8725 
 154   0.0000       0.809337        22.0232 
 155   0.0000       0.821351        22.3501 
 156   0.0000       0.828217        22.5369 
 157   0.0000       0.837633        22.7931 
 158   0.0000       0.846144        23.0247 
 159   0.0000       0.848481        23.0883 
 160   0.0000       0.853717        23.2308 
 161   0.0000       0.857982        23.3469 
 162   0.0000       0.865814        23.5600 
 163   0.0000       0.870222        23.6799 
 164   0.0000       0.881445        23.9853 
 165   0.0000       0.886147        24.1133 
 166   0.0000       0.888842        24.1866 
 167   0.0000       0.896248        24.3882 
 168   0.0000       0.900434        24.5020 
 169   0.0000       0.909897        24.7595 
 170   0.0000       0.916423        24.9371 
 171   0.0000       0.921508        25.0755 
 172   0.0000       0.928701        25.2712 
 173   0.0000       0.934261        25.4225 
 174   0.0000       0.944438        25.6995 
 175   0.0000       0.947192        25.7744 
 176   0.0000       0.958688        26.0872 
 177   0.0000       0.970212        26.4008 
 178   0.0000       0.984225        26.7821 
 179   0.0000       0.988505        26.8986 
 180   0.0000       0.998851        27.1801 
 181   0.0000       1.007824        27.4243 
 182   0.0000       1.017186        27.6790 
 183   0.0000       1.027267        27.9534 
 184   0.0000       1.043982        28.4082 
 185   0.0000       1.064258        28.9599 
 186   0.0000       1.068669        29.0800 
 187   0.0000       1.084546        29.5120 
 188   0.0000       1.099214        29.9111 
 189   0.0000       1.113160        30.2906 
 190   0.0000       1.121877        30.5278 
 191   0.0000       1.134177        30.8625 
 192   0.0000       1.150677        31.3115 
 193   0.0000       1.169364        31.8200 
 194   0.0000       1.174698        31.9652 
 195   0.0000       1.200880        32.6776 
 196   0.0000       1.216421        33.1005 
 197   0.0000       1.239091        33.7174 
 198   0.0000       1.244528        33.8653 
 199   0.0000       1.258816        34.2541 
 200   0.0000       1.270218        34.5644 
 201   0.0000       1.278398        34.7870 
 202   0.0000       1.312869        35.7250 
 203   0.0000       1.321851        35.9694 
 204   0.0000       1.341780        36.5117 
 205   0.0000       1.347645        36.6713 
 206   0.0000       1.362788        37.0833 
 207   0.0000       1.382240        37.6127 
 208   0.0000       1.391283        37.8587 
 209   0.0000       1.410167        38.3726 
 210   0.0000       1.426294        38.8114 
 211   0.0000       1.434932        39.0465 
 212   0.0000       1.443307        39.2744 
 213   0.0000       1.454492        39.5788 
 214   0.0000       1.462710        39.8024 
 215   0.0000       1.484652        40.3994 
 216   0.0000       1.487107        40.4662 
 217   0.0000       1.491756        40.5928 
 218   0.0000       1.504573        40.9415 
 219   0.0000       1.515514        41.2392 
 220   0.0000       1.527271        41.5592 
 221   0.0000       1.578072        42.9415 
 222   0.0000       1.586124        43.1606 
 223   0.0000       1.612799        43.8865 
 224   0.0000       1.622413        44.1481 
 225   0.0000       1.642477        44.6941 
 226   0.0000       1.665285        45.3147 
 227   0.0000       1.668968        45.4149 
 228   0.0000       1.739789        47.3421 
 229   0.0000       1.753948        47.7273 
 230   0.0000       1.771598        48.2076 
 231   0.0000       1.787769        48.6477 
 232   0.0000       1.799869        48.9769 
 233   0.0000       1.815655        49.4065 
 234   0.0000       1.819520        49.5117 
 235   0.0000       1.826813        49.7101 
 236   0.0000       1.843567        50.1660 
 237   0.0000       1.854533        50.4644 
 238   0.0000       1.872311        50.9482 
 239   0.0000       1.881007        51.1848 
 240   0.0000       1.889583        51.4182 
 241   0.0000       1.898437        51.6591 
 242   0.0000       1.918965        52.2177 
 243   0.0000       1.929442        52.5028 
 244   0.0000       1.936548        52.6962 
 245   0.0000       1.940912        52.8149 
 246   0.0000       1.956669        53.2437 
 247   0.0000       1.970085        53.6087 
 248   0.0000       1.973790        53.7095 
 249   0.0000       1.985945        54.0403 
 250   0.0000       1.999315        54.4041 
 251   0.0000       2.010661        54.7129 
 252   0.0000       2.023017        55.0491 
 253   0.0000       2.032901        55.3180 
 254   0.0000       2.039679        55.5025 
 255   0.0000       2.053542        55.8797 
 256   0.0000       2.062846        56.1329 
 257   0.0000       2.080926        56.6249 
 258   0.0000       2.086928        56.7882 
 259   0.0000       2.096154        57.0392 
 260   0.0000       2.108696        57.3805 
 261   0.0000       2.121300        57.7235 
 262   0.0000       2.134435        58.0809 
 263   0.0000       2.150926        58.5297 
 264   0.0000       2.167273        58.9745 
 265   0.0000       2.178943        59.2920 
 266   0.0000       2.193394        59.6853 
 267   0.0000       2.224312        60.5266 
 268   0.0000       2.238577        60.9148 
 269   0.0000       2.244454        61.0747 
 270   0.0000       2.258467        61.4560 
 271   0.0000       2.267424        61.6998 
 272   0.0000       2.271966        61.8233 
 273   0.0000       2.274414        61.8899 
 274   0.0000       2.288803        62.2815 
 275   0.0000       2.294477        62.4359 
 276   0.0000       2.311703        62.9046 
 277   0.0000       2.335782        63.5599 
 278   0.0000       2.345666        63.8288 
 279   0.0000       2.373304        64.5809 
 280   0.0000       2.396453        65.2108 
 281   0.0000       2.407636        65.5151 
 282   0.0000       2.412952        65.6598 
 283   0.0000       2.446577        66.5748 
 284   0.0000       2.457429        66.8700 
 285   0.0000       2.479715        67.4765 
 286   0.0000       2.504293        68.1453 
 287   0.0000       2.510115        68.3037 
 288   0.0000       2.529145        68.8215 
 289   0.0000       2.553157        69.4749 
 290   0.0000       2.570177        69.9381 
 291   0.0000       2.585126        70.3449 
 292   0.0000       2.589253        70.4571 
 293   0.0000       2.623112        71.3785 
 294   0.0000       2.637443        71.7685 
 295   0.0000       2.644803        71.9687 
 296   0.0000       2.665812        72.5404 
 297   0.0000       2.681290        72.9616 
 298   0.0000       2.690857        73.2219 
 299   0.0000       2.701070        73.4998 
 300   0.0000       2.727807        74.2274 
 301   0.0000       2.754174        74.9449 
 302   0.0000       2.759763        75.0970 
 303   0.0000       2.776293        75.5468 
 304   0.0000       2.825121        76.8754 
 305   0.0000       2.851436        77.5915 
 306   0.0000       2.874810        78.2276 
 307   0.0000       2.944184        80.1153 
 308   0.0000       2.945528        80.1519 
 309   0.0000       2.973403        80.9104 
 310   0.0000       2.991962        81.4154 
 311   0.0000       3.014776        82.0362 
 312   0.0000       3.030721        82.4701 
 313   0.0000       3.135617        85.3245 
 314   0.0000       3.171565        86.3027 
 315   0.0000       3.196126        86.9710 
 316   0.0000       3.283179        89.3398 
 317   0.0000       3.450679        93.8978 

                    ********************************
                    * MULLIKEN POPULATION ANALYSIS *
                    ********************************

-----------------------
MULLIKEN ATOMIC CHARGES
-----------------------
   0 C :    0.540978
   1 H :    0.197730
   2 H :    0.204936
   3 H :    0.179527
   4 O :   -0.533711
   5 C :   -0.571837
   6 N :   -0.363010
   7 C :   -0.263085
[...]
    112       0.000599  -0.000111   0.000056
    113       0.000368  -0.000045   0.000016
    114       0.000126  -0.000007  -0.000016
    115      -0.000446  -0.000005  -0.000052
    116       0.001266  -0.000019   0.000213


-----------
IR SPECTRUM
-----------

 Mode   freq       eps      Int      T**2         TX        TY        TZ
       cm**-1   L/(mol*cm) km/mol    a.u.
----------------------------------------------------------------------------
  6:     22.97   0.000335    1.69  0.004555  (-0.057731 -0.021486  0.027582)
  7:     45.52   0.000347    1.76  0.002381  (-0.000089  0.045247  0.018281)
  8:     63.31   0.000114    0.58  0.000563  ( 0.011055 -0.020797 -0.002825)
  9:     75.44   0.000483    2.44  0.001999  ( 0.028989 -0.031151  0.013711)
 10:     94.70   0.000114    0.57  0.000374  (-0.011247  0.010924 -0.011330)
 11:    111.43   0.000333    1.68  0.000932  ( 0.026183 -0.001019 -0.015656)
 12:    114.82   0.002371   11.98  0.006445  ( 0.022583 -0.065826  0.040022)
 13:    130.94   0.002709   13.69  0.006455  ( 0.041238 -0.010561 -0.068142)
 14:    168.98   0.000898    4.54  0.001658  (-0.004413 -0.033048  0.023370)
 15:    171.81   0.000331    1.67  0.000602  ( 0.000044 -0.010175  0.022322)
 16:    188.66   0.000384    1.94  0.000635  (-0.005420 -0.023294 -0.007956)
 17:    206.62   0.000300    1.51  0.000453  ( 0.013680  0.004320 -0.015715)
 18:    215.79   0.000379    1.92  0.000548  (-0.019360  0.010398 -0.008088)
 19:    233.26   0.003481   17.59  0.004657  ( 0.009238 -0.040322  0.054275)
 20:    252.08   0.001033    5.22  0.001279  (-0.010470  0.026168 -0.022011)
 21:    288.11   0.001052    5.32  0.001139  (-0.001242  0.016313 -0.029525)
 22:    313.28   0.001656    8.37  0.001650  ( 0.034208  0.018839 -0.011159)
 23:    329.76   0.001290    6.52  0.001220  (-0.018619  0.026306  0.013484)
 24:    368.18   0.001994   10.07  0.001690  ( 0.028124 -0.025239  0.016180)
 25:    378.43   0.003844   19.42  0.003170  ( 0.017032 -0.024627 -0.047676)
 26:    409.78   0.002060   10.41  0.001569  (-0.033164  0.015048 -0.015575)
 27:    431.48   0.021147  106.87  0.015294  ( 0.020004 -0.070379  0.099702)
 28:    439.58   0.001753    8.86  0.001245  ( 0.034731  0.003042  0.005400)
 29:    449.06   0.008104   40.96  0.005632  (-0.008582  0.045479 -0.059074)
 30:    462.45   0.001962    9.92  0.001324  ( 0.033435  0.001167 -0.014315)
 31:    503.68   0.008239   41.64  0.005105  ( 0.017220  0.046642 -0.051312)
 32:    548.30   0.000715    3.61  0.000407  (-0.018871  0.007059 -0.000895)
 33:    575.75   0.005494   27.76  0.002978  ( 0.051238 -0.003845 -0.018378)
 34:    589.36   0.001636    8.27  0.000866  (-0.008465  0.023224 -0.015974)
 35:    598.71   0.004169   21.07  0.002173  ( 0.046084 -0.000675  0.006989)
 36:    602.73   0.001309    6.62  0.000678  ( 0.014910 -0.009419  0.019156)
 37:    617.28   0.002958   14.95  0.001495  ( 0.001317  0.026057  0.028541)
 38:    655.43   0.002582   13.05  0.001229  (-0.001845  0.029518  0.018830)
 39:    687.90   0.001193    6.03  0.000541  (-0.007859 -0.003761 -0.021567)
 40:    747.30   0.001884    9.52  0.000787  (-0.001816 -0.007019  0.027095)
 41:    754.34   0.005507   27.83  0.002278  ( 0.037740 -0.029173 -0.001733)
 42:    758.26   0.017176   86.80  0.007069  (-0.000504  0.039007 -0.074478)
 43:    774.63   0.001221    6.17  0.000492  ( 0.006841 -0.021068 -0.001127)
 44:    784.11   0.000624    3.15  0.000248  (-0.011432  0.004526  0.009864)
 45:    815.74   0.008033   40.60  0.003073  (-0.012483 -0.009126 -0.053236)
 46:    843.69   0.002668   13.48  0.000987  (-0.016484  0.021953  0.015269)
 47:    864.16   0.000353    1.78  0.000127  (-0.003092  0.001399  0.010767)
 48:    890.69   0.000539    2.73  0.000189  (-0.011684  0.005501  0.004712)
 49:    929.83   0.000643    3.25  0.000216  ( 0.001079  0.007285 -0.012709)
 50:    945.42   0.004126   20.85  0.001362  (-0.031012  0.000962 -0.019984)
 51:    969.73   0.004031   20.37  0.001297  (-0.030075 -0.019580  0.003071)
 52:    969.91   0.000829    4.19  0.000267  (-0.013019 -0.009835 -0.000688)
 53:   1001.64   0.010464   52.88  0.003260  ( 0.049104 -0.024243 -0.016164)
 54:   1011.58   0.008426   42.58  0.002599  (-0.038988 -0.013520 -0.029943)
 55:   1040.77   0.003196   16.15  0.000958  (-0.010015  0.023136  0.017965)
 56:   1061.99   0.001619    8.18  0.000476  ( 0.013795 -0.011091 -0.012739)
 57:   1090.58   0.006077   30.71  0.001739  (-0.029211 -0.026514 -0.013515)
 58:   1092.20   0.001657    8.37  0.000474  (-0.019854 -0.008338 -0.003128)
 59:   1103.85   0.002251   11.38  0.000636  (-0.003174  0.021020  0.013584)
 60:   1117.14   0.012638   63.87  0.003530  (-0.043058 -0.034772 -0.021617)
 61:   1138.91   0.000223    1.12  0.000061  ( 0.001279 -0.007013  0.003188)
 62:   1153.27   0.000856    4.33  0.000232  ( 0.002602  0.004601  0.014275)
 63:   1175.37   0.009527   48.14  0.002529  ( 0.004325  0.023496  0.044256)
 64:   1180.32   0.004685   23.67  0.001239  (-0.002329 -0.019060 -0.029493)
 65:   1184.70   0.000034    0.17  0.000009  (-0.002293 -0.000678  0.001788)
 66:   1221.74   0.008470   42.81  0.002164  (-0.025440  0.037867  0.009081)
 67:   1255.30   0.007090   35.83  0.001762  ( 0.039712  0.010304  0.008904)
 68:   1273.05   0.002352   11.89  0.000576  ( 0.004897  0.019873  0.012553)
 69:   1289.91   0.021008  106.17  0.005082  (-0.065059 -0.003042  0.028993)
 70:   1292.29   0.040890  206.64  0.009874  (-0.080003 -0.058861 -0.002999)
 71:   1300.34   0.007079   35.77  0.001699  (-0.006393 -0.035506  0.019931)
 72:   1342.24   0.001259    6.36  0.000293  (-0.001608 -0.016135 -0.005456)
 73:   1373.19   0.002928   14.80  0.000665  ( 0.021229  0.011172  0.009484)
 74:   1387.20   0.011058   55.88  0.002488  ( 0.034262 -0.027975 -0.023045)
 75:   1393.92   0.010555   53.34  0.002363  ( 0.036287  0.027889  0.016381)
 76:   1409.83   0.005092   25.73  0.001127  ( 0.011632 -0.027925  0.014558)
 77:   1416.74   0.007598   38.40  0.001674  ( 0.036121 -0.017541  0.007826)
 78:   1441.29   0.012346   62.39  0.002673  ( 0.013876 -0.029292 -0.040281)
 79:   1459.47   0.021627  109.29  0.004624  (-0.055182  0.015267  0.036690)
 80:   1466.66   0.012968   65.54  0.002759  (-0.016110  0.040925  0.028721)
 81:   1468.66   0.052016  262.87  0.011052  (-0.099207 -0.032747 -0.011745)
 82:   1485.49   0.004602   23.26  0.000967  (-0.013687 -0.025008  0.012412)
 83:   1487.47   0.004466   22.57  0.000937  (-0.007031 -0.002276 -0.029703)
 84:   1496.93   0.006061   30.63  0.001264  ( 0.026525  0.020555  0.011724)
 85:   1499.26   0.002583   13.06  0.000538  ( 0.006002 -0.016517 -0.015130)
 86:   1499.71   0.009709   49.06  0.002020  ( 0.008655  0.043316  0.008307)
 87:   1506.85   0.003686   18.63  0.000763  ( 0.000372 -0.026485  0.007860)
 88:   1514.14   0.000845    4.27  0.000174  ( 0.010129  0.003052  0.007884)
 89:   1522.42   0.001098    5.55  0.000225  ( 0.006781  0.004470 -0.012616)
 90:   1527.72   0.005426   27.42  0.001108  (-0.009995  0.013158 -0.028901)
 91:   1536.61   0.000898    4.54  0.000182  ( 0.000841  0.013251  0.002457)
 92:   1558.43   0.015559   78.63  0.003116  (-0.031539  0.018971  0.041964)
 93:   1605.46   0.008402   42.46  0.001633  ( 0.038864 -0.003499  0.010506)
 94:   1631.23   0.000790    3.99  0.000151  (-0.003886 -0.005067 -0.010505)
 95:   1676.57   0.006690   33.81  0.001245  ( 0.023747  0.013587  0.022288)
 96:   1698.84   0.105629  533.81  0.019403  (-0.102206  0.008668 -0.094245)
 97:   1709.28   0.113776  574.98  0.020772  (-0.052514 -0.118562 -0.062908)
 98:   3040.22   0.017574   88.81  0.001804  ( 0.012253 -0.016289 -0.037262)
 99:   3040.30   0.004416   22.32  0.000453  (-0.017373 -0.011643  0.003989)
100:   3047.03   0.021412  108.21  0.002193  (-0.000270 -0.021232 -0.041738)
101:   3065.92   0.000741    3.74  0.000075  (-0.000500 -0.005918  0.006336)
102:   3079.88   0.007676   38.79  0.000778  (-0.006174 -0.026052 -0.007805)
103:   3098.14   0.012249   61.90  0.001234  (-0.005331  0.025712 -0.023329)
104:   3101.46   0.001070    5.41  0.000108  ( 0.006487 -0.007007  0.004054)
105:   3130.64   0.001555    7.86  0.000155  ( 0.005157 -0.009155 -0.006675)
106:   3146.28   0.002020   10.21  0.000200  (-0.010415 -0.000027  0.009583)
107:   3159.62   0.004230   21.38  0.000418  ( 0.014596  0.012916 -0.006157)
108:   3169.51   0.002649   13.39  0.000261  (-0.013159 -0.000388 -0.009352)
109:   3184.16   0.000288    1.46  0.000028  ( 0.003612  0.003724  0.001150)
110:   3191.06   0.001066    5.39  0.000104  (-0.009147 -0.004275 -0.001527)
111:   3194.56   0.003282   16.59  0.000321  (-0.000493 -0.016470 -0.007009)
112:   3195.02   0.001112    5.62  0.000109  (-0.000488 -0.001264 -0.010335)
113:   3205.39   0.010253   51.81  0.000998  (-0.031295  0.000521  0.004301)
114:   3212.21   0.005426   27.42  0.000527  (-0.004843 -0.020071 -0.010041)
115:   3277.00   0.000076    0.38  0.000007  ( 0.001823 -0.001046 -0.001680)
116:   3647.01   0.036379  183.85  0.003113  ( 0.046183  0.028123  0.013749)

* The epsilon (eps) is given for a Dirac delta lineshape.
** The dipole moment derivative (T) already includes vibrational overlap.

The first frequency considered to be a vibration is 6
The total number of vibrations considered is 111


--------------------------
THERMOCHEMISTRY AT 298.15K
--------------------------

Temperature         ... 298.15 K
Pressure            ... 1.00 atm
Total Mass          ... 273.34 AMU

Throughout the following assumptions are being made:
  (1) The electronic state is orbitally nondegenerate
  (2) There are no thermally accessible electronically excited states
  (3) Hindered rotations indicated by low frequency modes are not
      treated as such but are treated as vibrations and this may
      cause some error
  (4) All equations used are the standard statistical mechanics
      equations for an ideal gas
  (5) All vibrations are strictly harmonic

freq.      22.97  E(vib)   ...       0.56 
freq.      45.52  E(vib)   ...       0.53 
freq.      63.31  E(vib)   ...       0.51 
freq.      75.44  E(vib)   ...       0.49 
freq.      94.70  E(vib)   ...       0.47 
freq.     111.43  E(vib)   ...       0.45 
freq.     114.82  E(vib)   ...       0.44 
freq.     130.94  E(vib)   ...       0.42 
freq.     168.98  E(vib)   ...       0.38 
freq.     171.81  E(vib)   ...       0.38 
freq.     188.66  E(vib)   ...       0.36 
freq.     206.62  E(vib)   ...       0.35 
freq.     215.79  E(vib)   ...       0.34 
freq.     233.26  E(vib)   ...       0.32 
freq.     252.08  E(vib)   ...       0.30 
freq.     288.11  E(vib)   ...       0.27 
freq.     313.28  E(vib)   ...       0.25 
freq.     329.76  E(vib)   ...       0.24 
freq.     368.18  E(vib)   ...       0.21 
freq.     378.43  E(vib)   ...       0.21 
freq.     409.78  E(vib)   ...       0.19 
freq.     431.48  E(vib)   ...       0.18 
freq.     439.58  E(vib)   ...       0.17 
freq.     449.06  E(vib)   ...       0.17 
freq.     462.45  E(vib)   ...       0.16 
freq.     503.68  E(vib)   ...       0.14 
freq.     548.30  E(vib)   ...       0.12 
freq.     575.75  E(vib)   ...       0.11 
freq.     589.36  E(vib)   ...       0.10 
freq.     598.71  E(vib)   ...       0.10 
freq.     602.73  E(vib)   ...       0.10 
freq.     617.28  E(vib)   ...       0.09 
freq.     655.43  E(vib)   ...       0.08 
freq.     687.90  E(vib)   ...       0.07 
freq.     747.30  E(vib)   ...       0.06 
freq.     754.34  E(vib)   ...       0.06 
freq.     758.26  E(vib)   ...       0.06 
freq.     774.63  E(vib)   ...       0.05 
freq.     784.11  E(vib)   ...       0.05 
freq.     815.74  E(vib)   ...       0.05 
freq.     843.69  E(vib)   ...       0.04 
freq.     864.16  E(vib)   ...       0.04 
freq.     890.69  E(vib)   ...       0.04 
freq.     929.83  E(vib)   ...       0.03 
freq.     945.42  E(vib)   ...       0.03 
freq.     969.73  E(vib)   ...       0.03 
freq.     969.91  E(vib)   ...       0.03 
freq.    1001.64  E(vib)   ...       0.02 
freq.    1011.58  E(vib)   ...       0.02 
freq.    1040.77  E(vib)   ...       0.02 
freq.    1061.99  E(vib)   ...       0.02 
freq.    1090.58  E(vib)   ...       0.02 
freq.    1092.20  E(vib)   ...       0.02 
freq.    1103.85  E(vib)   ...       0.02 
freq.    1117.14  E(vib)   ...       0.01 
freq.    1138.91  E(vib)   ...       0.01 
freq.    1153.27  E(vib)   ...       0.01 
freq.    1175.37  E(vib)   ...       0.01 
freq.    1180.32  E(vib)   ...       0.01 
freq.    1184.70  E(vib)   ...       0.01 
freq.    1221.74  E(vib)   ...       0.01 
freq.    1255.30  E(vib)   ...       0.01 
freq.    1273.05  E(vib)   ...       0.01 
freq.    1289.91  E(vib)   ...       0.01 
freq.    1292.29  E(vib)   ...       0.01 
freq.    1300.34  E(vib)   ...       0.01 
freq.    1342.24  E(vib)   ...       0.01 
freq.    1373.19  E(vib)   ...       0.01 
freq.    1387.20  E(vib)   ...       0.00 
freq.    1393.92  E(vib)   ...       0.00 
freq.    1409.83  E(vib)   ...       0.00 
freq.    1416.74  E(vib)   ...       0.00 
freq.    1441.29  E(vib)   ...       0.00 
freq.    1459.47  E(vib)   ...       0.00 
freq.    1466.66  E(vib)   ...       0.00 
freq.    1468.66  E(vib)   ...       0.00 
freq.    1485.49  E(vib)   ...       0.00 
freq.    1487.47  E(vib)   ...       0.00 
freq.    1496.93  E(vib)   ...       0.00 
freq.    1499.26  E(vib)   ...       0.00 
freq.    1499.71  E(vib)   ...       0.00 
freq.    1506.85  E(vib)   ...       0.00 
freq.    1514.14  E(vib)   ...       0.00 
freq.    1522.42  E(vib)   ...       0.00 
freq.    1527.72  E(vib)   ...       0.00 
freq.    1536.61  E(vib)   ...       0.00 
freq.    1558.43  E(vib)   ...       0.00 
freq.    1605.46  E(vib)   ...       0.00 
freq.    1631.23  E(vib)   ...       0.00 
freq.    1676.57  E(vib)   ...       0.00 
freq.    1698.84  E(vib)   ...       0.00 
freq.    1709.28  E(vib)   ...       0.00 
freq.    3040.22  E(vib)   ...       0.00 
freq.    3040.30  E(vib)   ...       0.00 
freq.    3047.03  E(vib)   ...       0.00 
freq.    3065.92  E(vib)   ...       0.00 
freq.    3079.88  E(vib)   ...       0.00 
freq.    3098.14  E(vib)   ...       0.00 
freq.    3101.46  E(vib)   ...       0.00 
freq.    3130.64  E(vib)   ...       0.00 
freq.    3146.28  E(vib)   ...       0.00 
freq.    3159.62  E(vib)   ...       0.00 
freq.    3169.51  E(vib)   ...       0.00 
freq.    3184.16  E(vib)   ...       0.00 
freq.    3191.06  E(vib)   ...       0.00 
freq.    3194.56  E(vib)   ...       0.00 
freq.    3195.02  E(vib)   ...       0.00 
freq.    3205.39  E(vib)   ...       0.00 
freq.    3212.21  E(vib)   ...       0.00 
freq.    3277.00  E(vib)   ...       0.00 
freq.    3647.01  E(vib)   ...       0.00 

------------
INNER ENERGY
------------

The inner energy is: U= E(el) + E(ZPE) + E(vib) + E(rot) + E(trans)
    E(el)   - is the total energy from the electronic structure calculation
              = E(kin-el) + E(nuc-el) + E(el-el) + E(nuc-nuc)
    E(ZPE)  - the the zero temperature vibrational energy from the frequency calculation
    E(vib)  - the the finite temperature correction to E(ZPE) due to population
              of excited vibrational states
    E(rot)  - is the rotational thermal energy
    E(trans)- is the translational thermal energy

Summary of contributions to the inner energy U:
Electronic energy                ...   -897.31554505 Eh
Zero point energy                ...      0.32732562 Eh     205.40 kcal/mol
Thermal vibrational correction   ...      0.01620510 Eh      10.17 kcal/mol
Thermal rotational correction    ...      0.00141627 Eh       0.89 kcal/mol
Thermal translational correction ...      0.00141627 Eh       0.89 kcal/mol
-----------------------------------------------------------------------
Total thermal energy                   -896.96918178 Eh


Summary of corrections to the electronic energy:
(perhaps to be used in another calculation)
Total thermal correction                  0.01903765 Eh      11.95 kcal/mol
Non-thermal (ZPE) correction              0.32732562 Eh     205.40 kcal/mol
-----------------------------------------------------------------------
Total correction                          0.34636327 Eh     217.35 kcal/mol


--------
ENTHALPY
--------

The enthalpy is H = U + kB*T
                kB is Boltzmann's constant
Total free energy                 ...   -896.96918178 Eh 
Thermal Enthalpy correction       ...      0.00094421 Eh       0.59 kcal/mol
-----------------------------------------------------------------------
Total Enthalpy                    ...   -896.96823757 Eh


Note: Only C1 symmetry has been detected, increase convergence thresholds 
      if your molecule has a higher symmetry. Symmetry factor of 1.0 is   
      used for the rotational entropy correction. 
 

Note: Rotational entropy computed according to Herzberg 
Infrared and Raman Spectra, Chapter V,1, Van Nostrand Reinhold, 1945 
Point Group:  C1, Symmetry Number:   1  
Rotational constants in cm-1:     0.016769     0.010115     0.009314 

Vibrational entropy computed according to the QRRHO of S. Grimme
Chem.Eur.J. 2012 18 9955


-------
ENTROPY
-------

The entropy contributions are T*S = T*(S(el)+S(vib)+S(rot)+S(trans))
     S(el)   - electronic entropy
     S(vib)  - vibrational entropy
     S(rot)  - rotational entropy
     S(trans)- translational entropy
The entropies will be listed as multiplied by the temperature to get
units of energy

Electronic entropy                ...      0.00000000 Eh      0.00 kcal/mol
Vibrational entropy               ...      0.02845899 Eh     17.86 kcal/mol
Rotational entropy                ...      0.01581708 Eh      9.93 kcal/mol
Translational entropy             ...      0.02029535 Eh     12.74 kcal/mol
-----------------------------------------------------------------------
Final entropy term                ...      0.06457142 Eh     40.52 kcal/mol

In case the symmetry of your molecule has not been determined correctly
or in case you have a reason to use a different symmetry number we print 
out the resulting rotational entropy values for sn=1,12 :
 --------------------------------------------------------
|  sn= 1 | S(rot)=       0.01581708 Eh      9.93 kcal/mol|
|  sn= 2 | S(rot)=       0.01516263 Eh      9.51 kcal/mol|
|  sn= 3 | S(rot)=       0.01477980 Eh      9.27 kcal/mol|
|  sn= 4 | S(rot)=       0.01450817 Eh      9.10 kcal/mol|
|  sn= 5 | S(rot)=       0.01429748 Eh      8.97 kcal/mol|
|  sn= 6 | S(rot)=       0.01412534 Eh      8.86 kcal/mol|
|  sn= 7 | S(rot)=       0.01397979 Eh      8.77 kcal/mol|
|  sn= 8 | S(rot)=       0.01385372 Eh      8.69 kcal/mol|
|  sn= 9 | S(rot)=       0.01374251 Eh      8.62 kcal/mol|
|  sn=10 | S(rot)=       0.01364303 Eh      8.56 kcal/mol|
|  sn=11 | S(rot)=       0.01355304 Eh      8.50 kcal/mol|
|  sn=12 | S(rot)=       0.01347088 Eh      8.45 kcal/mol|
 --------------------------------------------------------


-------------------
GIBBS FREE ENERGY
-------------------

The Gibbs free energy is G = H - T*S

Total enthalpy                    ...   -896.96823757 Eh 
Total entropy correction          ...     -0.06457142 Eh    -40.52 kcal/mol
-----------------------------------------------------------------------
Final Gibbs free energy         ...   -897.03280899 Eh

For completeness - the Gibbs free energy minus the electronic energy
G-E(el)                           ...      0.28273606 Eh    177.42 kcal/mol


Timings for individual modules:

Sum of individual times         ...     3500.045 sec (=  58.334 min)
GTO integral calculation        ...       28.049 sec (=   0.467 min)   0.8 %
SCF iterations                  ...     1704.256 sec (=  28.404 min)  48.7 %
SCF Gradient evaluation         ...      500.311 sec (=   8.339 min)  14.3 %
Geometry relaxation             ...        1.528 sec (=   0.025 min)   0.0 %
Analytical frequency calculation...     1265.901 sec (=  21.098 min)  36.2 %
                             ****ORCA TERMINATED NORMALLY****
TOTAL RUN TIME: 0 days 0 hours 58 minutes 27 seconds 187 msec
