
                                 *****************
                                 * O   R   C   A *
                                 *****************

                                            #,                                       
                                            ###                                      
                                            ####                                     
                                            #####                                    
                                            ######                                   
                                           ########,                                 
                                     ,,################,,,,,                         
                               ,,#################################,,                 
                          ,,##########################################,,             
                       ,#########################################, ''#####,          
                    ,#############################################,,   '####,        
                  ,##################################################,,,,####,       
                ,###########''''           ''''###############################       
              ,#####''   ,,,,##########,,,,          '''####'''          '####       
            ,##' ,,,,###########################,,,                        '##       
           ' ,,###''''                  '''############,,,                           
         ,,##''                                '''############,,,,        ,,,,,,###''
      ,#''                                            '''#######################'''  
     '                                                          ''''####''''         
             ,#######,   #######,   ,#######,      ##                                
            ,#'     '#,  ##    ##  ,#'     '#,    #''#        ######   ,####,        
            ##       ##  ##   ,#'  ##            #'  '#       #        #'  '#        
            ##       ##  #######   ##           ,######,      #####,   #    #        
            '#,     ,#'  ##    ##  '#,     ,#' ,#      #,         ##   #,  ,#        
             '#######'   ##     ##  '#######'  #'      '#     #####' # '####'        



                  #######################################################
                  #                        -***-                        #
                  #          Department of theory and spectroscopy      #
                  #    Directorship and core code : Frank Neese         #
                  #        Max Planck Institute fuer Kohlenforschung    #
                  #                Kaiser Wilhelm Platz 1               #
                  #                 D-45470 Muelheim/Ruhr               #
                  #                      Germany                        #
                  #                                                     #
                  #                  All rights reserved                #
                  #                        -***-                        #
                  #######################################################


                         Program Version 5.0.4 -  RELEASE  -


 With contributions from (in alphabetic order):
   Daniel Aravena         : Magnetic Suceptibility
   Michael Atanasov       : Ab Initio Ligand Field Theory (pilot matlab implementation)
   Alexander A. Auer      : GIAO ZORA, VPT2 properties, NMR spectrum
   Ute Becker             : Parallelization
   Giovanni Bistoni       : ED, misc. LED, open-shell LED, HFLD
   Martin Brehm           : Molecular dynamics
   Dmytro Bykov           : SCF Hessian
   Vijay G. Chilkuri      : MRCI spin determinant printing, contributions to CSF-ICE
   Dipayan Datta          : RHF DLPNO-CCSD density
   Achintya Kumar Dutta   : EOM-CC, STEOM-CC
   Dmitry Ganyushin       : Spin-Orbit,Spin-Spin,Magnetic field MRCI
   Miquel Garcia          : C-PCM and meta-GGA Hessian, CC/C-PCM, Gaussian charge scheme
   Yang Guo               : DLPNO-NEVPT2, F12-NEVPT2, CIM, IAO-localization
   Andreas Hansen         : Spin unrestricted coupled pair/coupled cluster methods
   Benjamin Helmich-Paris : MC-RPA, TRAH-SCF, COSX integrals
   Lee Huntington         : MR-EOM, pCC
   Robert Izsak           : Overlap fitted RIJCOSX, COSX-SCS-MP3, EOM
   Marcus Kettner         : VPT2
   Christian Kollmar      : KDIIS, OOCD, Brueckner-CCSD(T), CCSD density, CASPT2, CASPT2-K
   Simone Kossmann        : Meta GGA functionals, TD-DFT gradient, OOMP2, MP2 Hessian
   Martin Krupicka        : Initial AUTO-CI
   Lucas Lang             : DCDCAS
   Marvin Lechner         : AUTO-CI (C++ implementation), FIC-MRCC
   Dagmar Lenk            : GEPOL surface, SMD
   Dimitrios Liakos       : Extrapolation schemes; Compound Job, initial MDCI parallelization
   Dimitrios Manganas     : Further ROCIS development; embedding schemes
   Dimitrios Pantazis     : SARC Basis sets
   Anastasios Papadopoulos: AUTO-CI, single reference methods and gradients
   Taras Petrenko         : DFT Hessian,TD-DFT gradient, ASA, ECA, R-Raman, ABS, FL, XAS/XES, NRVS
   Peter Pinski           : DLPNO-MP2, DLPNO-MP2 Gradient
   Christoph Reimann      : Effective Core Potentials
   Marius Retegan         : Local ZFS, SOC
   Christoph Riplinger    : Optimizer, TS searches, QM/MM, DLPNO-CCSD(T), (RO)-DLPNO pert. Triples
   Tobias Risthaus        : Range-separated hybrids, TD-DFT gradient, RPA, STAB
   Michael Roemelt        : Original ROCIS implementation
   Masaaki Saitow         : Open-shell DLPNO-CCSD energy and density
   Barbara Sandhoefer     : DKH picture change effects
   Avijit Sen             : IP-ROCIS
   Kantharuban Sivalingam : CASSCF convergence, NEVPT2, FIC-MRCI
   Bernardo de Souza      : ESD, SOC TD-DFT
   Georgi Stoychev        : AutoAux, RI-MP2 NMR, DLPNO-MP2 response
   Willem Van den Heuvel  : Paramagnetic NMR
   Boris Wezisla          : Elementary symmetry handling
   Frank Wennmohs         : Technical directorship


 We gratefully acknowledge several colleagues who have allowed us to
 interface, adapt or use parts of their codes:
   Stefan Grimme, W. Hujo, H. Kruse, P. Pracht,  : VdW corrections, initial TS optimization,
                  C. Bannwarth, S. Ehlert          DFT functionals, gCP, sTDA/sTD-DF
   Ed Valeev, F. Pavosevic, A. Kumar             : LibInt (2-el integral package), F12 methods
   Garnet Chan, S. Sharma, J. Yang, R. Olivares  : DMRG
   Ulf Ekstrom                                   : XCFun DFT Library
   Mihaly Kallay                                 : mrcc  (arbitrary order and MRCC methods)
   Jiri Pittner, Ondrej Demel                    : Mk-CCSD
   Frank Weinhold                                : gennbo (NPA and NBO analysis)
   Christopher J. Cramer and Donald G. Truhlar   : smd solvation model
   Lars Goerigk                                  : TD-DFT with DH, B97 family of functionals
   V. Asgeirsson, H. Jonsson                     : NEB implementation
   FAccTs GmbH                                   : IRC, NEB, NEB-TS, DLPNO-Multilevel, CI-OPT
                                                   MM, QMMM, 2- and 3-layer-ONIOM, Crystal-QMMM,
                                                   LR-CPCM, SF, NACMEs, symmetry and pop. for TD-DFT,
                                                   nearIR, NL-DFT gradient (VV10), updates on ESD,
                                                   ML-optimized integration grids
   S Lehtola, MJT Oliveira, MAL Marques          : LibXC Library
   Liviu Ungur et al                             : ANISO software


 Your calculation uses the libint2 library for the computation of 2-el integrals
 For citations please refer to: http://libint.valeyev.net

 Your ORCA version has been built with support for libXC version: 5.1.0
 For citations please refer to: https://tddft.org/programs/libxc/

 This ORCA versions uses:
   CBLAS   interface :  Fast vector & matrix operations
   LAPACKE interface :  Fast linear algebra routines
   SCALAPACK package :  Parallel linear algebra routines
   Shared memory     :  Shared parallel matrices
   BLAS/LAPACK       :  OpenBLAS 0.3.15  USE64BITINT DYNAMIC_ARCH NO_AFFINITY SkylakeX SINGLE_THREADED
        Core in use  :  SkylakeX
   Copyright (c) 2011-2014, The OpenBLAS Project




***************************************
The coordinates will be read from file: /users/fjb15167/WWenergy/structures/Nv.xyz
***************************************


Your calculation utilizes the atom-pairwise dispersion correction
based on tight binding partial charges (D4)
Cite in your paper:
E.Caldeweyher, C.Bannwarth, S.Grimme, J.Chem.Phys., (2017), 147, 034112.
E.Caldeweyher, S.Ehlert, A.Hansen, H.Neugebauer, S.Grimme, J.Chem.Phys., (2018), in progress.
   

================================================================================

----- Orbital basis set information -----
Your calculation utilizes the basis: 6-31G(d)
   H-He, Li-Ne : W. J. Hehre, R. Ditchfield and J.A. Pople, J. Chem. Phys. 56, 2257 (1972).
                 Note: He and Ne are unpublished basis sets taken from the Gaussian program.
                 Note: Li and B from J. D. Dill and J. A. Pople, J. Chem. Phys. 62, 2921 (1975).
   Na - Ar     : M. M. Francl, W. J. Pietro, W. J. Hehre, J. S. Binkley, M. S. Gordon, 
                 D. J. DeFrees and J. A. Pople, J. Chem. Phys. 77, 3654 (1982).
   K - Zn      : V. A. Rassolov, J. A. Pople, M. A. Ratner, and T. L. Windus, J. Chem. Phys. 109, 1223 (1998).

----- AuxJ basis set information -----
Your calculation utilizes the AutoAux generation procedure.
  G. L. Stoychev, A. A. Auer, F. Neese, J. Chem. Theory Comput. 13, 554 (2017)

----- AuxC basis set information -----
Your calculation utilizes the AutoAux generation procedure.
  G. L. Stoychev, A. A. Auer, F. Neese, J. Chem. Theory Comput. 13, 554 (2017)

----- AuxJK basis set information -----
Your calculation utilizes the AutoAux generation procedure.
  G. L. Stoychev, A. A. Auer, F. Neese, J. Chem. Theory Comput. 13, 554 (2017)

================================================================================
                                        WARNINGS
                       Please study these warnings very carefully!
================================================================================


WARNING: Geometry Optimization
  ===> : Switching off AutoStart
         For restart on a previous wavefunction, please use MOREAD

INFO   : the flag for use of the SHARK integral package has been found!

================================================================================
                                       INPUT FILE
================================================================================
NAME = Nv_gas.inp
|  1> ! OPT FREQ B3LYP 6-31G(d) D4 AUTOAUX
|  2> 
|  3> %PAL NPROCS 4 END
|  4> 
|  5> %maxcore 3375
|  6> 
|  7> *xyzfile 0 1 /users/fjb15167/WWenergy/structures/Nv.xyz
|  8> 
|  9>                          ****END OF INPUT****
================================================================================

                       *****************************
                       * Geometry Optimization Run *
                       *****************************

Geometry optimization settings:
Update method            Update   .... BFGS
Choice of coordinates    CoordSys .... Z-matrix Internals
Initial Hessian          InHess   .... Almoef's Model

Convergence Tolerances:
Energy Change            TolE     ....  5.0000e-06 Eh
Max. Gradient            TolMAXG  ....  3.0000e-04 Eh/bohr
RMS Gradient             TolRMSG  ....  1.0000e-04 Eh/bohr
Max. Displacement        TolMAXD  ....  4.0000e-03 bohr
RMS Displacement         TolRMSD  ....  2.0000e-03 bohr
Strict Convergence                ....  False
------------------------------------------------------------------------------
                        ORCA OPTIMIZATION COORDINATE SETUP
------------------------------------------------------------------------------

The optimization will be done in new redundant internal coordinates
Making redundant internal coordinates   ...  (new redundants) done
Evaluating the initial hessian          ...  (Almloef) done
Evaluating the coordinates              ...  done
Calculating the B-matrix                .... done
Calculating the G-matrix                .... done
Diagonalizing the G-matrix              .... done
Small eigenvalue found = 6.405e-03
Small eigenvalue found = 9.445e-03
Small eigenvalue found = 1.428e-02
Small eigenvalue found = 1.953e-02
The first mode is                       ....   59
The number of degrees of freedom        ....   87

    -----------------------------------------------------------------
                    Redundant Internal Coordinates


    -----------------------------------------------------------------
         Definition                    Initial Value    Approx d2E/dq
    -----------------------------------------------------------------
      1. B(H   1,C   0)                  1.0885         0.362147   
      2. B(H   2,C   0)                  1.0929         0.356272   
      3. B(H   3,C   0)                  1.0900         0.360095   
      4. B(C   4,C   0)                  1.5148         0.395052   
      5. B(O   5,C   4)                  1.2409         0.967786   
      6. B(N   6,C   4)                  1.3746         0.592244   
      7. B(C   7,N   6)                  1.4656         0.423921   
      8. B(H   8,C   7)                  1.0951         0.353436   
      9. B(H   9,C   7)                  1.0897         0.360486   
     10. B(C  10,C   7)                  1.5256         0.379720   
     11. B(N  11,C  10)                  1.3664         0.610349   
     12. B(O  12,C  10)                  1.2409         0.967714   
     13. B(C  13,N  11)                  1.4535         0.443111   
     14. B(H  14,C  13)                  1.0978         0.349923   
     15. B(H  15,C  13)                  1.0956         0.352814   
     16. B(H  16,C  13)                  1.0878         0.362970   
     17. B(C  17,N  11)                  1.4548         0.441003   
     18. B(H  18,C  17)                  1.0962         0.352018   
     19. B(H  19,C  17)                  1.0878         0.363005   
     20. B(H  20,C  17)                  1.0952         0.353285   
     21. B(C  21,N   6)                  1.4805         0.401314   
     22. B(C  22,C  21)                  1.5279         0.376425   
     23. B(C  23,C  21)                  1.5286         0.375555   
     24. B(H  24,C  21)                  1.0941         0.354696   
     25. B(H  25,C  22)                  1.0933         0.355794   
     26. B(H  26,C  22)                  1.0945         0.354142   
     27. B(H  27,C  22)                  1.0903         0.359757   
     28. B(H  28,C  23)                  1.0928         0.356465   
     29. B(H  29,C  23)                  1.0924         0.356920   
     30. B(H  30,C  23)                  1.0947         0.353964   
     31. A(H   1,C   0,H   2)          108.6095         0.290610   
     32. A(H   1,C   0,H   3)          109.6067         0.291098   
     33. A(H   3,C   0,C   4)          106.5864         0.327314   
     34. A(H   2,C   0,H   3)          108.2173         0.290351   
     35. A(H   2,C   0,C   4)          109.7057         0.326739   
     36. A(H   1,C   0,C   4)          113.9672         0.327621   
     37. A(O   5,C   4,N   6)          121.5562         0.460530   
     38. A(C   0,C   4,O   5)          118.9816         0.430808   
     39. A(C   0,C   4,N   6)          119.4553         0.394850   
     40. A(C   7,N   6,C  21)          114.3312         0.371227   
     41. A(C   4,N   6,C  21)          128.1770         0.393415   
     42. A(C   4,N   6,C   7)          117.3427         0.397215   
     43. A(H   8,C   7,C  10)          105.3690         0.324193   
     44. A(N   6,C   7,C  10)          111.4336         0.370028   
     45. A(H   8,C   7,H   9)          108.8219         0.290037   
     46. A(N   6,C   7,H   9)          108.0019         0.329216   
     47. A(N   6,C   7,H   8)          109.7288         0.328144   
     48. A(H   9,C   7,C  10)          113.4160         0.325247   
     49. A(N  11,C  10,O  12)          122.7089         0.463065   
     50. A(C   7,C  10,O  12)          119.2791         0.427753   
     51. A(C   7,C  10,N  11)          117.9967         0.394195   
     52. A(C  13,N  11,C  17)          115.4292         0.380220   
     53. A(C  10,N  11,C  17)          118.6452         0.402110   
     54. A(C  10,N  11,C  13)          125.5133         0.402448   
     55. A(H  15,C  13,H  16)          108.7288         0.290269   
     56. A(H  14,C  13,H  16)          108.6040         0.289895   
     57. A(N  11,C  13,H  16)          111.9503         0.332012   
     58. A(H  14,C  13,H  15)          108.1331         0.288608   
     59. A(N  11,C  13,H  15)          108.9330         0.330456   
     60. A(N  11,C  13,H  14)          110.4027         0.330007   
     61. A(H  18,C  17,H  19)          109.6873         0.290171   
     62. A(N  11,C  17,H  19)          108.3878         0.331755   
     63. A(N  11,C  17,H  18)          110.4744         0.330072   
     64. A(H  19,C  17,H  20)          110.0309         0.290334   
     65. A(H  18,C  17,H  20)          108.6270         0.288939   
     66. A(N  11,C  17,H  20)          109.6284         0.330269   
     67. A(C  23,C  21,H  24)          106.1468         0.323796   
     68. A(C  22,C  21,H  24)          106.4274         0.323919   
     69. A(N   6,C  21,H  24)          103.0689         0.325386   
     70. A(C  22,C  21,C  23)          113.3359         0.364153   
     71. A(N   6,C  21,C  23)          112.5051         0.365872   
     72. A(N   6,C  21,C  22)          114.2560         0.366017   
     73. A(H  26,C  22,H  27)          107.4990         0.290035   
     74. A(H  25,C  22,H  27)          108.8476         0.290247   
     75. A(C  21,C  22,H  27)          112.9632         0.324673   
     76. A(H  25,C  22,H  26)          108.0801         0.289532   
     77. A(C  21,C  22,H  26)          108.7452         0.323836   
     78. A(C  21,C  22,H  25)          110.5491         0.324083   
     79. A(H  29,C  23,H  30)          107.8101         0.289652   
     80. A(H  28,C  23,H  30)          108.3018         0.289595   
     81. A(C  21,C  23,H  30)          109.5623         0.323686   
     82. A(H  28,C  23,H  29)          108.5685         0.289972   
     83. A(C  21,C  23,H  29)          112.3581         0.324128   
     84. A(C  21,C  23,H  28)          110.1301         0.324060   
     85. D(N   6,C   4,C   0,H   1)     36.8666         0.011596   
     86. D(N   6,C   4,C   0,H   3)    157.9026         0.011596   
     87. D(N   6,C   4,C   0,H   2)    -85.1504         0.011596   
     88. D(O   5,C   4,C   0,H   1)   -144.0682         0.011596   
     89. D(O   5,C   4,C   0,H   3)    -23.0322         0.011596   
     90. D(O   5,C   4,C   0,H   2)     93.9148         0.011596   
     91. D(C   7,N   6,C   4,O   5)     -3.1816         0.028211   
     92. D(C   7,N   6,C   4,C   0)    175.8588         0.028211   
     93. D(C  21,N   6,C   4,O   5)   -178.4583         0.028211   
     94. D(C  21,N   6,C   4,C   0)      0.5820         0.028211   
     95. D(C  10,C   7,N   6,C   4)    125.7005         0.015322   
     96. D(H   8,C   7,N   6,C  21)     57.9392         0.015322   
     97. D(H   9,C   7,N   6,C   4)      0.4976         0.015322   
     98. D(H   9,C   7,N   6,C  21)    176.4239         0.015322   
     99. D(H   8,C   7,N   6,C   4)   -117.9871         0.015322   
    100. D(C  10,C   7,N   6,C  21)    -58.3732         0.015322   
    101. D(O  12,C  10,C   7,H   9)   -133.7127         0.010760   
    102. D(O  12,C  10,C   7,H   8)    -14.7882         0.010760   
    103. D(O  12,C  10,C   7,N   6)    104.1590         0.010760   
    104. D(N  11,C  10,C   7,H   8)    166.5947         0.010760   
    105. D(N  11,C  10,C   7,N   6)    -74.4582         0.010760   
    106. D(N  11,C  10,C   7,H   9)     47.6701         0.010760   
    107. D(C  17,N  11,C  10,C   7)    175.8274         0.030093   
    108. D(C  13,N  11,C  10,O  12)   -175.0111         0.030093   
    109. D(C  13,N  11,C  10,C   7)      3.5554         0.030093   
    110. D(C  17,N  11,C  10,O  12)     -2.7391         0.030093   
    111. D(H  16,C  13,N  11,C  10)    -13.9136         0.016744   
    112. D(H  15,C  13,N  11,C  10)   -134.1938         0.016744   
    113. D(H  14,C  13,N  11,C  17)    -65.2817         0.016744   
    114. D(H  15,C  13,N  11,C  17)     53.3146         0.016744   
    115. D(H  14,C  13,N  11,C  10)    107.2099         0.016744   
    116. D(H  16,C  13,N  11,C  17)    173.5948         0.016744   
    117. D(H  20,C  17,N  11,C  13)    -57.9027         0.016584   
    118. D(H  20,C  17,N  11,C  10)    129.0586         0.016584   
    119. D(H  19,C  17,N  11,C  13)   -178.0205         0.016584   
    120. D(H  19,C  17,N  11,C  10)      8.9408         0.016584   
    121. D(H  18,C  17,N  11,C  13)     61.7763         0.016584   
    122. D(H  18,C  17,N  11,C  10)   -111.2625         0.016584   
    123. D(H  24,C  21,N   6,C   7)     -5.9743         0.013749   
    124. D(H  24,C  21,N   6,C   4)    169.4215         0.013749   
    125. D(C  23,C  21,N   6,C   7)    107.9298         0.013749   
    126. D(C  23,C  21,N   6,C   4)    -76.6745         0.013749   
    127. D(C  22,C  21,N   6,C   7)   -121.0003         0.013749   
    128. D(C  22,C  21,N   6,C   4)     54.3955         0.013749   
    129. D(H  27,C  22,C  21,H  24)    169.7608         0.011305   
    130. D(H  27,C  22,C  21,C  23)     53.4678         0.011305   
    131. D(H  27,C  22,C  21,N   6)    -77.1961         0.011305   
    132. D(H  26,C  22,C  21,H  24)     50.5087         0.011305   
    133. D(H  26,C  22,C  21,C  23)    -65.7842         0.011305   
    134. D(H  26,C  22,C  21,N   6)    163.5519         0.011305   
    135. D(H  25,C  22,C  21,H  24)    -67.9948         0.011305   
    136. D(H  25,C  22,C  21,C  23)    175.7122         0.011305   
    137. D(H  25,C  22,C  21,N   6)     45.0484         0.011305   
    138. D(H  30,C  23,C  21,H  24)    -59.0568         0.011255   
    139. D(H  30,C  23,C  21,C  22)     57.4014         0.011255   
    140. D(H  30,C  23,C  21,N   6)   -171.0668         0.011255   
    141. D(H  29,C  23,C  21,H  24)   -178.8680         0.011255   
    142. D(H  29,C  23,C  21,C  22)    -62.4097         0.011255   
    143. D(H  29,C  23,C  21,N   6)     69.1220         0.011255   
    144. D(H  28,C  23,C  21,H  24)     59.9680         0.011255   
    145. D(H  28,C  23,C  21,C  22)    176.4262         0.011255   
    146. D(H  28,C  23,C  21,N   6)    -52.0420         0.011255   
    -----------------------------------------------------------------

Number of atoms                         .... 31
Number of degrees of freedom            .... 146

         *************************************************************
         *                GEOMETRY OPTIMIZATION CYCLE   1            *
         *************************************************************
---------------------------------
CARTESIAN COORDINATES (ANGSTROEM)
---------------------------------
  C     -2.780000    1.154000    0.718000
  H     -2.687000    0.462000    1.553000
  H     -3.657000    0.874000    0.129000
  H     -2.932000    2.165000    1.096000
  C     -1.559000    1.206000   -0.177000
  O     -1.228000    2.291000   -0.680000
  N     -0.856000    0.052000   -0.429000
  C      0.261000    0.137000   -1.374000
  H      0.065000   -0.508000   -2.237000
  H      0.335000    1.169000   -1.716000
  C      1.553000   -0.392000   -0.759000
  N      2.189000    0.387000    0.166000
  O      1.970000   -1.512000   -1.093000
  C      1.703000    1.658000    0.677000
  H      1.349000    1.545000    1.710000
  H      2.527000    2.380000    0.676000
  H      0.890000    2.055000    0.073000
  C      3.371000   -0.142000    0.829000
  H      3.163000   -0.334000    1.888000
  H      3.654000   -1.070000    0.337000
  H      4.188000    0.584000    0.759000
  C     -1.136000   -1.316000    0.063000
  C     -2.549000   -1.814000   -0.237000
  C     -0.723000   -1.509000    1.522000
  H     -0.457000   -1.936000   -0.530000
  H     -2.825000   -1.586000   -1.270000
  H     -2.573000   -2.901000   -0.111000
  H     -3.300000   -1.390000    0.430000
  H      0.314000   -1.195000    1.664000
  H     -1.355000   -0.944000    2.211000
  H     -0.801000   -2.568000    1.788000

----------------------------
CARTESIAN COORDINATES (A.U.)
----------------------------
  NO LB      ZA    FRAG     MASS         X           Y           Z
   0 C     6.0000    0    12.011   -5.253439    2.180744    1.356823
   1 H     1.0000    0     1.008   -5.077694    0.873053    2.934745
   2 H     1.0000    0     1.008   -6.910728    1.651621    0.243775
   3 H     1.0000    0     1.008   -5.540677    4.091257    2.071140
   4 C     6.0000    0    12.011   -2.946083    2.279010   -0.334482
   5 O     8.0000    0    15.999   -2.320584    4.329363   -1.285014
   6 N     7.0000    0    14.007   -1.617606    0.098266   -0.810693
   7 C     6.0000    0    12.011    0.493219    0.258892   -2.596484
   8 H     1.0000    0     1.008    0.122832   -0.959981   -4.227317
   9 H     1.0000    0     1.008    0.633058    2.209090   -3.242770
  10 C     6.0000    0    12.011    2.934745   -0.740773   -1.434302
  11 N     7.0000    0    14.007    4.136611    0.731324    0.313695
  12 O     8.0000    0    15.999    3.722760   -2.857266   -2.065471
  13 C     6.0000    0    12.011    3.218204    3.133166    1.279345
  14 H     1.0000    0     1.008    2.549241    2.919627    3.231432
  15 H     1.0000    0     1.008    4.775338    4.497548    1.277455
  16 H     1.0000    0     1.008    1.681856    3.883387    0.137950
  17 C     6.0000    0    12.011    6.370267   -0.268341    1.566583
  18 H     1.0000    0     1.008    5.977204   -0.631169    3.567803
  19 H     1.0000    0     1.008    6.905059   -2.022007    0.636838
  20 H     1.0000    0     1.008    7.914173    1.103600    1.434302
  21 C     6.0000    0    12.011   -2.146729   -2.486880    0.119053
  22 C     6.0000    0    12.011   -4.816912   -3.427963   -0.447865
  23 C     6.0000    0    12.011   -1.366272   -2.851597    2.876163
  24 H     1.0000    0     1.008   -0.863605   -3.658510   -1.001555
  25 H     1.0000    0     1.008   -5.338476   -2.997106   -2.399952
  26 H     1.0000    0     1.008   -4.862265   -5.482096   -0.209760
  27 H     1.0000    0     1.008   -6.236096   -2.626719    0.812582
  28 H     1.0000    0     1.008    0.593374   -2.258223    3.144504
  29 H     1.0000    0     1.008   -2.560579   -1.783901    4.178184
  30 H     1.0000    0     1.008   -1.513671   -4.852817    3.378830

--------------------------------
INTERNAL COORDINATES (ANGSTROEM)
--------------------------------
 C      0   0   0     0.000000000000     0.00000000     0.00000000
 H      1   0   0     1.088456705616     0.00000000     0.00000000
 H      1   2   0     1.092908962357   108.60950750     0.00000000
 H      1   2   3     1.090004128433   109.60670415   118.04192813
 C      1   2   3     1.514783812958   113.96721980   237.38103934
 O      5   1   2     1.240884764996   118.98162988   215.93176058
 N      5   1   2     1.374565022107   119.45530467    36.86656155
 C      7   5   1     1.465584866188   117.34265140   175.85878079
 H      8   7   5     1.095084471628   109.72884367   242.01292889
 H      8   7   5     1.089708217827   108.00186191     0.49760453
 C      8   7   5     1.525558913972   111.43356432   125.70049140
 N     11   8   7     1.366368178786   117.99670614   285.54184488
 O     11   8   7     1.240904911748   119.27907531   104.15902273
 C     12  11   8     1.453532937363   125.51333985     3.55538779
 H     14  12  11     1.097804171972   110.40266225   107.20991479
 H     14  12  11     1.095564238190   108.93302747   225.80620153
 H     14  12  11     1.087839142521   111.95034826   346.08641503
 C     12  11   8     1.454831261693   118.64516594   175.82739310
 H     18  12  11     1.096179273659   110.47444589   248.73754853
 H     18  12  11     1.087812943479   108.38782139     8.94078399
 H     18  12  11     1.095200894813   109.62840635   129.05858938
 C      7   5   1     1.480502617357   128.17699514     0.58201274
 C     22   7   5     1.527930953937   114.25595920    54.39545223
 C     22   7   5     1.528561088083   112.50505850   283.32551390
 H     22   7   5     1.094116081593   103.06894264   169.42148999
 H     23  22   7     1.093274439471   110.54910725    45.04835570
 H     23  22   7     1.094541456501   108.74521905   163.55186968
 H     23  22   7     1.090259602113   112.96319739   282.80393457
 H     24  22   7     1.092762096707   110.13009268   307.95797950
 H     24  22   7     1.092414756400   112.35807032    69.12200954
 H     24  22   7     1.094678491613   109.56226139   188.93317097

---------------------------
INTERNAL COORDINATES (A.U.)
---------------------------
 C      0   0   0     0.000000000000     0.00000000     0.00000000
 H      1   0   0     2.056885082244     0.00000000     0.00000000
 H      1   2   0     2.065298628163   108.60950750     0.00000000
 H      1   2   3     2.059809287581   109.60670415   118.04192813
 C      1   2   3     2.862526558588   113.96721980   237.38103934
 O      5   1   2     2.344932369598   118.98162988   215.93176058
 N      5   1   2     2.597551445050   119.45530467    36.86656155
 C      7   5   1     2.769554023115   117.34265140   175.85878079
 H      8   7   5     2.069409744886   109.72884367   242.01292889
 H      8   7   5     2.059250097577   108.00186191     0.49760453
 C      8   7   5     2.882888548570   111.43356432   125.70049140
 N     11   8   7     2.582061656011   117.99670614   285.54184488
 O     11   8   7     2.344970441441   119.27907531   104.15902273
 C     12  11   8     2.746779178251   125.51333985     3.55538779
 H     14  12  11     2.074549233704   110.40266225   107.20991479
 H     14  12  11     2.070316372296   108.93302747   225.80620153
 H     14  12  11     2.055718057124   111.95034826   346.08641503
 C     12  11   8     2.749232655667   118.64516594   175.82739310
 H     18  12  11     2.071478620897   110.47444589   248.73754853
 H     18  12  11     2.055668548110   108.38782139     8.94078399
 H     18  12  11     2.069629752823   109.62840635   129.05858938
 C      7   5   1     2.797744487358   128.17699514     0.58201274
 C     22   7   5     2.887371054483   114.25595920    54.39545223
 C     22   7   5     2.888561835445   112.50505850   283.32551390
 H     22   7   5     2.067579752929   103.06894264   169.42148999
 H     23  22   7     2.065989279816   110.54910725    45.04835570
 H     23  22   7     2.068383595011   108.74521905   163.55186968
 H     23  22   7     2.060292062872   112.96319739   282.80393457
 H     24  22   7     2.065021092306   110.13009268   307.95797950
 H     24  22   7     2.064364714250   112.35807032    69.12200954
 H     24  22   7     2.068642553842   109.56226139   188.93317097

---------------------
BASIS SET INFORMATION
---------------------
There are 4 groups of distinct atoms

 Group   1 Type C   : 10s4p1d contracted to 3s2p1d pattern {631/31/1}
 Group   2 Type H   : 4s contracted to 2s pattern {31}
 Group   3 Type O   : 10s4p1d contracted to 3s2p1d pattern {631/31/1}
 Group   4 Type N   : 10s4p1d contracted to 3s2p1d pattern {631/31/1}

Atom   0C    basis set group =>   1
Atom   1H    basis set group =>   2
Atom   2H    basis set group =>   2
Atom   3H    basis set group =>   2
Atom   4C    basis set group =>   1
Atom   5O    basis set group =>   3
Atom   6N    basis set group =>   4
Atom   7C    basis set group =>   1
Atom   8H    basis set group =>   2
Atom   9H    basis set group =>   2
Atom  10C    basis set group =>   1
Atom  11N    basis set group =>   4
Atom  12O    basis set group =>   3
Atom  13C    basis set group =>   1
Atom  14H    basis set group =>   2
Atom  15H    basis set group =>   2
Atom  16H    basis set group =>   2
Atom  17C    basis set group =>   1
Atom  18H    basis set group =>   2
Atom  19H    basis set group =>   2
Atom  20H    basis set group =>   2
Atom  21C    basis set group =>   1
Atom  22C    basis set group =>   1
Atom  23C    basis set group =>   1
Atom  24H    basis set group =>   2
Atom  25H    basis set group =>   2
Atom  26H    basis set group =>   2
Atom  27H    basis set group =>   2
Atom  28H    basis set group =>   2
Atom  29H    basis set group =>   2
Atom  30H    basis set group =>   2
---------------------------------
AUXILIARY/J BASIS SET INFORMATION
---------------------------------
There are 4 groups of distinct atoms

 Group   1 Type C   : 13s11p10d2f contracted to 13s11p10d2f pattern {1111111111111/11111111111/1111111111/11}
 Group   2 Type H   : 9s2p contracted to 9s2p pattern {111111111/11}
 Group   3 Type O   : 14s11p10d2f contracted to 14s11p10d2f pattern {11111111111111/11111111111/1111111111/11}
 Group   4 Type N   : 14s11p10d2f contracted to 14s11p10d2f pattern {11111111111111/11111111111/1111111111/11}

Atom   0C    basis set group =>   1
Atom   1H    basis set group =>   2
Atom   2H    basis set group =>   2
Atom   3H    basis set group =>   2
Atom   4C    basis set group =>   1
Atom   5O    basis set group =>   3
Atom   6N    basis set group =>   4
Atom   7C    basis set group =>   1
Atom   8H    basis set group =>   2
Atom   9H    basis set group =>   2
Atom  10C    basis set group =>   1
Atom  11N    basis set group =>   4
Atom  12O    basis set group =>   3
Atom  13C    basis set group =>   1
Atom  14H    basis set group =>   2
Atom  15H    basis set group =>   2
Atom  16H    basis set group =>   2
Atom  17C    basis set group =>   1
Atom  18H    basis set group =>   2
Atom  19H    basis set group =>   2
Atom  20H    basis set group =>   2
Atom  21C    basis set group =>   1
Atom  22C    basis set group =>   1
Atom  23C    basis set group =>   1
Atom  24H    basis set group =>   2
Atom  25H    basis set group =>   2
Atom  26H    basis set group =>   2
Atom  27H    basis set group =>   2
Atom  28H    basis set group =>   2
Atom  29H    basis set group =>   2
Atom  30H    basis set group =>   2
---------------------------------
AUXILIARY/C BASIS SET INFORMATION
---------------------------------
There are 4 groups of distinct atoms

 Group   1 Type C   : 13s11p10d2f contracted to 13s11p10d2f pattern {1111111111111/11111111111/1111111111/11}
 Group   2 Type H   : 9s2p contracted to 9s2p pattern {111111111/11}
 Group   3 Type O   : 14s11p10d2f contracted to 14s11p10d2f pattern {11111111111111/11111111111/1111111111/11}
 Group   4 Type N   : 14s11p10d2f contracted to 14s11p10d2f pattern {11111111111111/11111111111/1111111111/11}

Atom   0C    basis set group =>   1
Atom   1H    basis set group =>   2
Atom   2H    basis set group =>   2
Atom   3H    basis set group =>   2
Atom   4C    basis set group =>   1
Atom   5O    basis set group =>   3
Atom   6N    basis set group =>   4
Atom   7C    basis set group =>   1
Atom   8H    basis set group =>   2
Atom   9H    basis set group =>   2
Atom  10C    basis set group =>   1
Atom  11N    basis set group =>   4
Atom  12O    basis set group =>   3
Atom  13C    basis set group =>   1
Atom  14H    basis set group =>   2
Atom  15H    basis set group =>   2
Atom  16H    basis set group =>   2
Atom  17C    basis set group =>   1
Atom  18H    basis set group =>   2
Atom  19H    basis set group =>   2
Atom  20H    basis set group =>   2
Atom  21C    basis set group =>   1
Atom  22C    basis set group =>   1
Atom  23C    basis set group =>   1
Atom  24H    basis set group =>   2
Atom  25H    basis set group =>   2
Atom  26H    basis set group =>   2
Atom  27H    basis set group =>   2
Atom  28H    basis set group =>   2
Atom  29H    basis set group =>   2
Atom  30H    basis set group =>   2
----------------------------------
AUXILIARY/JK BASIS SET INFORMATION
----------------------------------
There are 4 groups of distinct atoms

 Group   1 Type C   : 13s11p10d2f contracted to 13s11p10d2f pattern {1111111111111/11111111111/1111111111/11}
 Group   2 Type H   : 9s2p contracted to 9s2p pattern {111111111/11}
 Group   3 Type O   : 14s11p10d2f contracted to 14s11p10d2f pattern {11111111111111/11111111111/1111111111/11}
 Group   4 Type N   : 14s11p10d2f contracted to 14s11p10d2f pattern {11111111111111/11111111111/1111111111/11}

Atom   0C    basis set group =>   1
Atom   1H    basis set group =>   2
Atom   2H    basis set group =>   2
Atom   3H    basis set group =>   2
Atom   4C    basis set group =>   1
Atom   5O    basis set group =>   3
Atom   6N    basis set group =>   4
Atom   7C    basis set group =>   1
Atom   8H    basis set group =>   2
Atom   9H    basis set group =>   2
Atom  10C    basis set group =>   1
Atom  11N    basis set group =>   4
Atom  12O    basis set group =>   3
Atom  13C    basis set group =>   1
Atom  14H    basis set group =>   2
Atom  15H    basis set group =>   2
Atom  16H    basis set group =>   2
Atom  17C    basis set group =>   1
Atom  18H    basis set group =>   2
Atom  19H    basis set group =>   2
Atom  20H    basis set group =>   2
Atom  21C    basis set group =>   1
Atom  22C    basis set group =>   1
Atom  23C    basis set group =>   1
Atom  24H    basis set group =>   2
Atom  25H    basis set group =>   2
Atom  26H    basis set group =>   2
Atom  27H    basis set group =>   2
Atom  28H    basis set group =>   2
Atom  29H    basis set group =>   2
Atom  30H    basis set group =>   2


           ************************************************************
           *        Program running with 4 parallel MPI-processes     *
           *              working on a common directory               *
           ************************************************************
------------------------------------------------------------------------------
                           ORCA GTO INTEGRAL CALCULATION
                           -- RI-GTO INTEGRALS CHOSEN --
------------------------------------------------------------------------------
------------------------------------------------------------------------------
                   ___                                                        
                  /   \      - P O W E R E D   B Y -                         
                 /     \                                                     
                 |  |  |   _    _      __       _____    __    __             
                 |  |  |  | |  | |    /  \     |  _  \  |  |  /  |          
                  \  \/   | |  | |   /    \    | | | |  |  | /  /          
                 / \  \   | |__| |  /  /\  \   | |_| |  |  |/  /          
                |  |  |   |  __  | /  /__\  \  |    /   |      \           
                |  |  |   | |  | | |   __   |  |    \   |  |\   \          
                \     /   | |  | | |  |  |  |  | |\  \  |  | \   \       
                 \___/    |_|  |_| |__|  |__|  |_| \__\ |__|  \__/        
                                                                              
                      - O R C A' S   B I G   F R I E N D -                    
                                      &                                       
                       - I N T E G R A L  F E E D E R -                       
                                                                              
 v1 FN, 2020, v2 2021                                                         
------------------------------------------------------------------------------


Reading SHARK input file Nv_gas.SHARKINP.tmp ... ok
----------------------
SHARK INTEGRAL PACKAGE
----------------------

Number of atoms                             ...     31
Number of basis functions                   ...    218
Number of shells                            ...    114
Maximum angular momentum                    ...      2
Integral batch strategy                     ... SHARK/LIBINT Hybrid
RI-J (if used) integral strategy            ... SPLIT-RIJ (Revised 2003 algorithm where possible)
Printlevel                                  ...      1
Contraction scheme used                     ... SEGMENTED contraction
Coulomb Range Separation                    ... NOT USED
Exchange Range Separation                   ... NOT USED
Finite Nucleus Model                        ... NOT USED
Auxiliary Coulomb fitting basis             ... AVAILABLE
   # of basis functions in Aux-J            ...   1704
   # of shells in Aux-J                     ...    670
   Maximum angular momentum in Aux-J        ...      3
Auxiliary J/K fitting basis                 ... AVAILABLE
   # of basis functions in Aux-JK           ...   1704
   # of shells in Aux-JK                    ...    670
   Maximum angular momentum in Aux-JK       ...      3
Auxiliary Correlation fitting basis         ... AVAILABLE
   # of basis functions in Aux-C            ...   1704
   # of shells in Aux-C                     ...    670
   Maximum angular momentum in Aux-C        ...      3
Auxiliary 'external' fitting basis          ... NOT available
Integral threshold                          ...     2.500000e-11
Primitive cut-off                           ...     2.500000e-12
Primitive pair pre-selection threshold      ...     2.500000e-12

Calculating pre-screening integrals         ... done (  0.0 sec) Dimension = 114
Organizing shell pair data                  ... done (  0.0 sec)
Shell pair information
Total number of shell pairs                 ...      6555
Shell pairs after pre-screening             ...      5891
Total number of primitive shell pairs       ...     36105
Primitive shell pairs kept                  ...     19475
          la=0 lb=0:   2476 shell pairs
          la=1 lb=0:   1830 shell pairs
          la=1 lb=1:    344 shell pairs
          la=2 lb=0:    839 shell pairs
          la=2 lb=1:    321 shell pairs
          la=2 lb=2:     81 shell pairs

Calculating one electron integrals          ... done (  0.0 sec)
Calculating RI/J V-Matrix + Cholesky decomp.... done (  0.2 sec)
Calculating RI/JK V-Matrix + Cholesky decomp... done (  0.2 sec)
Calculating RI/C V-Matrix + Cholesky decomp.... done (  0.2 sec)
Calculating Nuclear repulsion               ... done (  0.0 sec) ENN=    898.637822265924 Eh

SHARK setup successfully completed in   0.8 seconds

Maximum memory used throughout the entire GTOINT-calculation: 27.1 MB


           ************************************************************
           *        Program running with 4 parallel MPI-processes     *
           *              working on a common directory               *
           ************************************************************
-------------------------------------------------------------------------------
                                 ORCA SCF
-------------------------------------------------------------------------------

------------
SCF SETTINGS
------------
Hamiltonian:
 Density Functional     Method          .... DFT(GTOs)
 Exchange Functional    Exchange        .... B88
   X-Alpha parameter    XAlpha          ....  0.666667
   Becke's b parameter  XBeta           ....  0.004200
 Correlation Functional Correlation     .... LYP
 LDA part of GGA corr.  LDAOpt          .... VWN-5
 Gradients option       PostSCFGGA      .... off
 Hybrid DFT is turned on
   Fraction HF Exchange ScalHFX         ....  0.200000
   Scaling of DF-GGA-X  ScalDFX         ....  0.720000
   Scaling of DF-GGA-C  ScalDFC         ....  0.810000
   Scaling of DF-LDA-C  ScalLDAC        ....  1.000000
   Perturbative correction              ....  0.000000
   Density functional embedding theory  .... OFF
   NL short-range parameter             ....  4.800000
 RI-approximation to the Coulomb term is turned on
   Number of AuxJ basis functions       .... 1704
   RIJ-COSX (HFX calculated with COS-X)).... on


General Settings:
 Integral files         IntName         .... Nv_gas
 Hartree-Fock type      HFTyp           .... RHF
 Total Charge           Charge          ....    0
 Multiplicity           Mult            ....    1
 Number of Electrons    NEL             ....  102
 Basis Dimension        Dim             ....  218
 Nuclear Repulsion      ENuc            ....    898.6378222659 Eh

Convergence Acceleration:
 DIIS                   CNVDIIS         .... on
   Start iteration      DIISMaxIt       ....    12
   Startup error        DIISStart       ....  0.200000
   # of expansion vecs  DIISMaxEq       ....     5
   Bias factor          DIISBfac        ....   1.050
   Max. coefficient     DIISMaxC        ....  10.000
 Trust-Rad. Augm. Hess. CNVTRAH         .... auto
   Auto Start mean grad. ratio tolernc. ....  1.125000
   Auto Start start iteration           ....    20
   Auto Start num. interpolation iter.  ....    10
   Max. Number of Micro iterations      ....    16
   Max. Number of Macro iterations      .... Maxiter - #DIIS iter
   Number of Davidson start vectors     ....     2
   Converg. threshold I  (grad. norm)   ....   1.000e-05
   Converg. threshold II (energy diff.) ....   1.000e-08
   Grad. Scal. Fac. for Micro threshold ....   0.100
   Minimum threshold for Micro iter.    ....   0.010
   NR start threshold (gradient norm)   ....   0.001
   Initial trust radius                 ....   0.400
   Minimum AH scaling param. (alpha)    ....   1.000
   Maximum AH scaling param. (alpha)    .... 1000.000
   Orbital update algorithm             .... Taylor
   White noise on init. David. guess    .... on
   Maximum white noise                  ....   0.010
   Quad. conv. algorithm                .... NR
 SOSCF                  CNVSOSCF        .... on
   Start iteration      SOSCFMaxIt      ....   150
   Startup grad/error   SOSCFStart      ....  0.003300
 Level Shifting         CNVShift        .... on
   Level shift para.    LevelShift      ....    0.2500
   Turn off err/grad.   ShiftErr        ....    0.0010
 Zerner damping         CNVZerner       .... off
 Static damping         CNVDamp         .... on
   Fraction old density DampFac         ....    0.7000
   Max. Damping (<1)    DampMax         ....    0.9800
   Min. Damping (>=0)   DampMin         ....    0.0000
   Turn off err/grad.   DampErr         ....    0.1000
 Fernandez-Rico         CNVRico         .... off

SCF Procedure:
 Maximum # iterations   MaxIter         ....   125
 SCF integral mode      SCFMode         .... Direct
   Integral package                     .... SHARK and LIBINT hybrid scheme
 Reset frequency        DirectResetFreq ....    20
 Integral Threshold     Thresh          ....  2.500e-11 Eh
 Primitive CutOff       TCut            ....  2.500e-12 Eh

Convergence Tolerance:
 Convergence Check Mode ConvCheckMode   .... Total+1el-Energy
 Convergence forced     ConvForced      .... 0
 Energy Change          TolE            ....  1.000e-08 Eh
 1-El. energy change                    ....  1.000e-05 Eh
 Orbital Gradient       TolG            ....  1.000e-05
 Orbital Rotation angle TolX            ....  1.000e-05
 DIIS Error             TolErr          ....  5.000e-07


Diagonalization of the overlap matrix:
Smallest eigenvalue                        ... 3.192e-03
Time for diagonalization                   ...    0.008 sec
Threshold for overlap eigenvalues          ... 1.000e-08
Number of eigenvalues below threshold      ... 0
Time for construction of square roots      ...    0.004 sec
Total time needed                          ...    0.013 sec

Time for model grid setup =    0.292 sec

------------------------------
INITIAL GUESS: MODEL POTENTIAL
------------------------------
Loading Hartree-Fock densities                     ... done
Calculating cut-offs                               ... done
Initializing the effective Hamiltonian             ... done
Setting up the integral package (SHARK)            ... done
Starting the Coulomb interaction                   ... done (   0.7 sec)
Reading the grid                                   ... done
Mapping shells                                     ... done
Starting the XC term evaluation                    ... done (   0.2 sec)
  promolecular density results
     # of electrons  =    101.995071084
     EX              =    -81.187667242
     EC              =     -3.420640173
     EX+EC           =    -84.608307416
Transforming the Hamiltonian                       ... done (   0.0 sec)
Diagonalizing the Hamiltonian                      ... done (   0.0 sec)
Back transforming the eigenvectors                 ... done (   0.0 sec)
Now organizing SCF variables                       ... done
                      ------------------
                      INITIAL GUESS DONE (   1.2 sec)
                      ------------------
-------------------
DFT GRID GENERATION
-------------------

General Integration Accuracy     IntAcc      ... 4.388
Radial Grid Type                 RadialGrid  ... OptM3 with GC (2021)
Angular Grid (max. ang.)         AngularGrid ... 4 (Lebedev-302)
Angular grid pruning method      GridPruning ... 4 (adaptive)
Weight generation scheme         WeightScheme... Becke
Basis function cutoff            BFCut       ... 1.0000e-11
Integration weight cutoff        WCut        ... 1.0000e-14
Angular grids for H and He will be reduced by one unit
Partially contracted basis set               ... off
Rotationally invariant grid construction     ... off

Total number of grid points                  ...   134871
Total number of batches                      ...     2125
Average number of points per batch           ...       63
Average number of grid points per atom       ...     4351
Time for grid setup =    1.030 sec

--------------------
COSX GRID GENERATION
--------------------

GRIDX 1
-------
General Integration Accuracy     IntAcc      ... 3.816
Radial Grid Type                 RadialGrid  ... OptM3 with GC (2021)
Angular Grid (max. ang.)         AngularGrid ... 1 (Lebedev-50)
Angular grid pruning method      GridPruning ... 4 (adaptive)
Weight generation scheme         WeightScheme... Becke
Basis function cutoff            BFCut       ... 1.0000e-11
Integration weight cutoff        WCut        ... 1.0000e-14
Angular grids for H and He will be reduced by one unit
Partially contracted basis set               ... on
Rotationally invariant grid construction     ... off

Total number of grid points                  ...    17168
Total number of batches                      ...      287
Average number of points per batch           ...       59
Average number of grid points per atom       ...      554
UseSFitting                                  ... on

GRIDX 2
-------
General Integration Accuracy     IntAcc      ... 4.020
Radial Grid Type                 RadialGrid  ... OptM3 with GC (2021)
Angular Grid (max. ang.)         AngularGrid ... 2 (Lebedev-110)
Angular grid pruning method      GridPruning ... 4 (adaptive)
Weight generation scheme         WeightScheme... Becke
Basis function cutoff            BFCut       ... 1.0000e-11
Integration weight cutoff        WCut        ... 1.0000e-14
Angular grids for H and He will be reduced by one unit
Partially contracted basis set               ... on
Rotationally invariant grid construction     ... off

Total number of grid points                  ...    36081
Total number of batches                      ...      580
Average number of points per batch           ...       62
Average number of grid points per atom       ...     1164
UseSFitting                                  ... on

GRIDX 3
-------
General Integration Accuracy     IntAcc      ... 4.338
Radial Grid Type                 RadialGrid  ... OptM3 with GC (2021)
Angular Grid (max. ang.)         AngularGrid ... 3 (Lebedev-194)
Angular grid pruning method      GridPruning ... 4 (adaptive)
Weight generation scheme         WeightScheme... Becke
Basis function cutoff            BFCut       ... 1.0000e-11
Integration weight cutoff        WCut        ... 1.0000e-14
Angular grids for H and He will be reduced by one unit
Partially contracted basis set               ... on
Rotationally invariant grid construction     ... off

Total number of grid points                  ...    78677
Total number of batches                      ...     1250
Average number of points per batch           ...       62
Average number of grid points per atom       ...     2538
UseSFitting                                  ... on

Time for X-Grid setup             =    1.554 sec

--------------
SCF ITERATIONS
--------------
ITER       Energy         Delta-E        Max-DP      RMS-DP      [F,P]     Damp
               ***  Starting incremental Fock matrix formation  ***
  0   -612.9391262427   0.000000000000 0.09677040  0.00246025  0.2747610 0.7000
  1   -613.1482947678  -0.209168525106 0.05297338  0.00162370  0.1035598 0.7000
                               ***Turning on DIIS***
  2   -613.2265324243  -0.078237656560 0.06483659  0.00246323  0.0373686 0.0000
  3   -613.3530559825  -0.126523558177 0.03561722  0.00112376  0.0506981 0.0000
  4   -613.3793993368  -0.026343354291 0.00978033  0.00037639  0.0125311 0.0000
  5   -613.3815688028  -0.002169466043 0.00317172  0.00010865  0.0050905 0.0000
                      *** Initiating the SOSCF procedure ***
                           *** Shutting down DIIS ***
                      *** Re-Reading the Fockian *** 
                      *** Removing any level shift *** 
ITER      Energy       Delta-E        Grad      Rot      Max-DP    RMS-DP
  6   -613.38168157  -0.0001127682  0.000224  0.000224  0.001008  0.000033
               *** Restarting incremental Fock matrix formation ***
  7   -613.38179976  -0.0001181936  0.000099  0.000213  0.000566  0.000020
  8   -613.38179988  -0.0000001133  0.000125  0.000181  0.000395  0.000008
  9   -613.38180109  -0.0000012105  0.000024  0.000078  0.000099  0.000004
 10   -613.38180106   0.0000000330  0.000037  0.000045  0.000088  0.000002
 11   -613.38180113  -0.0000000794  0.000010  0.000018  0.000033  0.000001
 12   -613.38180113   0.0000000082  0.000007  0.000007  0.000017  0.000001
                  ***Gradient check signals convergence***
              ***Rediagonalizing the Fockian in SOSCF/NRSCF***

               *****************************************************
               *                     SUCCESS                       *
               *           SCF CONVERGED AFTER  13 CYCLES          *
               *****************************************************

Old exchange energy                            =    -16.566632008 Eh
New exchange energy                            =    -16.566628110 Eh
Exchange energy change after final integration =      0.000003898 Eh
Total energy after final integration           =   -613.381797242 Eh
Final COS-X integration done in                =     8.237 sec

----------------
TOTAL SCF ENERGY
----------------

Total Energy       :         -613.38179724 Eh          -16690.96726 eV

Components:
Nuclear Repulsion  :          898.63782227 Eh           24453.17832 eV
Electronic Energy  :        -1512.01961951 Eh          -41144.14557 eV
One Electron Energy:        -2617.12006782 Eh          -71215.45757 eV
Two Electron Energy:         1105.10044832 Eh           30071.31199 eV
Max COSX asymmetry :            0.00000231 Eh               0.00006 eV

Virial components:
Potential Energy   :        -1223.19125303 Eh          -33284.72616 eV
Kinetic Energy     :          609.80945579 Eh           16593.75890 eV
Virial Ratio       :            2.00585813


DFT components:
N(Alpha)           :       50.999940586285 electrons
N(Beta)            :       50.999940586285 electrons
N(Total)           :      101.999881172570 electrons
E(X)               :      -65.768908853189 Eh       
E(C)               :       -4.032044390303 Eh       
E(XC)              :      -69.800953243492 Eh       
DFET-embed. en.    :        0.000000000000 Eh       

---------------
SCF CONVERGENCE
---------------

  Last Energy change         ...   -1.2489e-08  Tolerance :   1.0000e-08
  Last MAX-Density change    ...    4.4409e-15  Tolerance :   1.0000e-07
  Last RMS-Density change    ...    4.6607e-17  Tolerance :   5.0000e-09
  Last Orbital Gradient      ...    3.4212e-07  Tolerance :   1.0000e-05
  Last Orbital Rotation      ...    1.1110e-06  Tolerance :   1.0000e-05

             **** THE GBW FILE WAS UPDATED (Nv_gas.gbw) ****
             **** DENSITY Nv_gas.scfp WAS UPDATED ****
             **** ENERGY FILE WAS UPDATED (Nv_gas.en.tmp) ****
             **** THE GBW FILE WAS UPDATED (Nv_gas.gbw) ****
             **** DENSITY Nv_gas.scfp WAS UPDATED ****
----------------
ORBITAL ENERGIES
----------------

  NO   OCC          E(Eh)            E(eV) 
   0   2.0000     -19.103218      -519.8250 
   1   2.0000     -19.100546      -519.7523 
   2   2.0000     -14.359273      -390.7357 
   3   2.0000     -14.358063      -390.7028 
   4   2.0000     -10.281683      -279.7788 
   5   2.0000     -10.274646      -279.5873 
   6   2.0000     -10.225435      -278.2482 
   7   2.0000     -10.209094      -277.8036 
   8   2.0000     -10.204067      -277.6668 
   9   2.0000     -10.200239      -277.5626 
  10   2.0000     -10.179921      -277.0097 
  11   2.0000     -10.175860      -276.8992 
  12   2.0000     -10.174949      -276.8744 
  13   2.0000      -1.026667       -27.9370 
  14   2.0000      -1.018209       -27.7069 
  15   2.0000      -0.931872       -25.3575 
  16   2.0000      -0.926462       -25.2103 
  17   2.0000      -0.789022       -21.4704 
  18   2.0000      -0.756018       -20.5723 
  19   2.0000      -0.723246       -19.6805 
  20   2.0000      -0.709514       -19.3069 
  21   2.0000      -0.697971       -18.9928 
  22   2.0000      -0.671958       -18.2849 
  23   2.0000      -0.628479       -17.1018 
  24   2.0000      -0.546177       -14.8622 
  25   2.0000      -0.527677       -14.3588 
  26   2.0000      -0.505652       -13.7595 
  27   2.0000      -0.494017       -13.4429 
  28   2.0000      -0.481930       -13.1140 
  29   2.0000      -0.466902       -12.7051 
  30   2.0000      -0.457063       -12.4373 
  31   2.0000      -0.451558       -12.2875 
  32   2.0000      -0.437706       -11.9106 
  33   2.0000      -0.429388       -11.6842 
  34   2.0000      -0.413950       -11.2641 
  35   2.0000      -0.409118       -11.1327 
  36   2.0000      -0.400944       -10.9102 
  37   2.0000      -0.398167       -10.8347 
  38   2.0000      -0.397952       -10.8288 
  39   2.0000      -0.393004       -10.6942 
  40   2.0000      -0.390126       -10.6159 
  41   2.0000      -0.374524       -10.1913 
  42   2.0000      -0.370860       -10.0916 
  43   2.0000      -0.359015        -9.7693 
  44   2.0000      -0.348573        -9.4852 
  45   2.0000      -0.343120        -9.3368 
  46   2.0000      -0.340090        -9.2543 
  47   2.0000      -0.252419        -6.8687 
  48   2.0000      -0.245548        -6.6817 
  49   2.0000      -0.234600        -6.3838 
  50   2.0000      -0.231719        -6.3054 
  51   0.0000       0.016226         0.4415 
  52   0.0000       0.030051         0.8177 
  53   0.0000       0.071355         1.9417 
  54   0.0000       0.093719         2.5502 
  55   0.0000       0.105775         2.8783 
  56   0.0000       0.126183         3.4336 
  57   0.0000       0.135859         3.6969 
  58   0.0000       0.139713         3.8018 
  59   0.0000       0.148680         4.0458 
  60   0.0000       0.150170         4.0863 
  61   0.0000       0.160839         4.3767 
  62   0.0000       0.163812         4.4576 
  63   0.0000       0.165545         4.5047 
  64   0.0000       0.170606         4.6424 
  65   0.0000       0.178511         4.8575 
  66   0.0000       0.183928         5.0049 
  67   0.0000       0.186761         5.0820 
  68   0.0000       0.187349         5.0980 
  69   0.0000       0.194736         5.2990 
  70   0.0000       0.201331         5.4785 
  71   0.0000       0.214357         5.8330 
  72   0.0000       0.220513         6.0005 
  73   0.0000       0.223624         6.0851 
  74   0.0000       0.242623         6.6021 
  75   0.0000       0.243812         6.6345 
  76   0.0000       0.263802         7.1784 
  77   0.0000       0.267388         7.2760 
  78   0.0000       0.293659         7.9909 
  79   0.0000       0.340346         9.2613 
  80   0.0000       0.367642        10.0040 
  81   0.0000       0.387911        10.5556 
  82   0.0000       0.423974        11.5369 
  83   0.0000       0.459342        12.4993 
  84   0.0000       0.488028        13.2799 
  85   0.0000       0.495095        13.4722 
  86   0.0000       0.500827        13.6282 
  87   0.0000       0.510648        13.8954 
  88   0.0000       0.520588        14.1659 
  89   0.0000       0.537028        14.6133 
  90   0.0000       0.550244        14.9729 
  91   0.0000       0.558197        15.1893 
  92   0.0000       0.585221        15.9247 
  93   0.0000       0.598573        16.2880 
  94   0.0000       0.614665        16.7259 
  95   0.0000       0.631038        17.1714 
  96   0.0000       0.633292        17.2328 
  97   0.0000       0.646200        17.5840 
  98   0.0000       0.669496        18.2179 
  99   0.0000       0.683810        18.6074 
 100   0.0000       0.694707        18.9039 
 101   0.0000       0.696844        18.9621 
 102   0.0000       0.709901        19.3174 
 103   0.0000       0.719702        19.5841 
 104   0.0000       0.731985        19.9183 
 105   0.0000       0.761593        20.7240 
 106   0.0000       0.788940        21.4682 
 107   0.0000       0.797163        21.6919 
 108   0.0000       0.803232        21.8570 
 109   0.0000       0.812435        22.1075 
 110   0.0000       0.824366        22.4321 
 111   0.0000       0.844542        22.9812 
 112   0.0000       0.853583        23.2272 
 113   0.0000       0.867463        23.6049 
 114   0.0000       0.874041        23.7839 
 115   0.0000       0.879650        23.9365 
 116   0.0000       0.884853        24.0781 
 117   0.0000       0.891571        24.2609 
 118   0.0000       0.899432        24.4748 
 119   0.0000       0.904271        24.6065 
 120   0.0000       0.913612        24.8606 
 121   0.0000       0.920734        25.0544 
 122   0.0000       0.930015        25.3070 
 123   0.0000       0.936339        25.4791 
 124   0.0000       0.945540        25.7295 
 125   0.0000       0.960737        26.1430 
 126   0.0000       0.968472        26.3535 
 127   0.0000       0.976812        26.5804 
 128   0.0000       0.990844        26.9622 
 129   0.0000       0.996613        27.1192 
 130   0.0000       1.017582        27.6898 
 131   0.0000       1.029938        28.0260 
 132   0.0000       1.034571        28.1521 
 133   0.0000       1.060004        28.8442 
 134   0.0000       1.076499        29.2930 
 135   0.0000       1.084147        29.5011 
 136   0.0000       1.111117        30.2350 
 137   0.0000       1.131392        30.7867 
 138   0.0000       1.158477        31.5238 
 139   0.0000       1.185887        32.2696 
 140   0.0000       1.251421        34.0529 
 141   0.0000       1.277844        34.7719 
 142   0.0000       1.286923        35.0190 
 143   0.0000       1.313515        35.7426 
 144   0.0000       1.342944        36.5434 
 145   0.0000       1.362566        37.0773 
 146   0.0000       1.384584        37.6764 
 147   0.0000       1.415571        38.5197 
 148   0.0000       1.440474        39.1973 
 149   0.0000       1.444492        39.3066 
 150   0.0000       1.457032        39.6479 
 151   0.0000       1.464610        39.8541 
 152   0.0000       1.501889        40.8685 
 153   0.0000       1.559264        42.4297 
 154   0.0000       1.611828        43.8601 
 155   0.0000       1.618941        44.0536 
 156   0.0000       1.669265        45.4230 
 157   0.0000       1.696844        46.1735 
 158   0.0000       1.716055        46.6962 
 159   0.0000       1.747721        47.5579 
 160   0.0000       1.757219        47.8163 
 161   0.0000       1.789074        48.6832 
 162   0.0000       1.804892        49.1136 
 163   0.0000       1.825358        49.6705 
 164   0.0000       1.841040        50.0973 
 165   0.0000       1.847414        50.2707 
 166   0.0000       1.871485        50.9257 
 167   0.0000       1.887823        51.3703 
 168   0.0000       1.900623        51.7186 
 169   0.0000       1.911384        52.0114 
 170   0.0000       1.937317        52.7171 
 171   0.0000       1.946992        52.9803 
 172   0.0000       1.959509        53.3210 
 173   0.0000       1.975283        53.7502 
 174   0.0000       1.991921        54.2029 
 175   0.0000       2.000482        54.4359 
 176   0.0000       2.032098        55.2962 
 177   0.0000       2.045337        55.6564 
 178   0.0000       2.050012        55.7837 
 179   0.0000       2.070081        56.3298 
 180   0.0000       2.082022        56.6547 
 181   0.0000       2.098217        57.0954 
 182   0.0000       2.106137        57.3109 
 183   0.0000       2.117096        57.6091 
 184   0.0000       2.162946        58.8568 
 185   0.0000       2.177476        59.2521 
 186   0.0000       2.203550        59.9616 
 187   0.0000       2.212154        60.1958 
 188   0.0000       2.228711        60.6463 
 189   0.0000       2.259080        61.4727 
 190   0.0000       2.263428        61.5910 
 191   0.0000       2.274191        61.8839 
 192   0.0000       2.282795        62.1180 
 193   0.0000       2.300582        62.6020 
 194   0.0000       2.340435        63.6865 
 195   0.0000       2.350692        63.9656 
 196   0.0000       2.391015        65.0628 
 197   0.0000       2.409472        65.5651 
 198   0.0000       2.420618        65.8684 
 199   0.0000       2.448625        66.6305 
 200   0.0000       2.492735        67.8308 
 201   0.0000       2.498654        67.9918 
 202   0.0000       2.517335        68.5002 
 203   0.0000       2.568829        69.9014 
 204   0.0000       2.591296        70.5128 
 205   0.0000       2.623406        71.3865 
 206   0.0000       2.638170        71.7882 
 207   0.0000       2.671917        72.7066 
 208   0.0000       2.698962        73.4425 
 209   0.0000       2.732964        74.3677 
 210   0.0000       2.746881        74.7464 
 211   0.0000       2.765310        75.2479 
 212   0.0000       2.943242        80.0897 
 213   0.0000       2.969756        80.8112 
 214   0.0000       3.003468        81.7285 
 215   0.0000       3.013055        81.9894 
 216   0.0000       3.165831        86.1466 
 217   0.0000       3.184792        86.6626 

                    ********************************
                    * MULLIKEN POPULATION ANALYSIS *
                    ********************************

-----------------------
MULLIKEN ATOMIC CHARGES
-----------------------
   0 C :   -0.543764
   1 H :    0.161873
   2 H :    0.182158
   3 H :    0.185337
   4 C :    0.527723
   5 O :   -0.489845
   6 N :   -0.384582
   7 C :   -0.259771
   8 H :    0.174610
   9 H :    0.206486
  10 C :    0.525424
  11 N :   -0.365704
  12 O :   -0.490948
  13 C :   -0.345189
  14 H :    0.148698
  15 H :    0.154248
  16 H :    0.215051
  17 C :   -0.322297
  18 H :    0.148732
  19 H :    0.203447
  20 H :    0.152626
  21 C :    0.015423
  22 C :   -0.455593
  23 C :   -0.451617
  24 H :    0.181814
  25 H :    0.156904
  26 H :    0.154357
  27 H :    0.150292
  28 H :    0.164182
  29 H :    0.147592
  30 H :    0.152333
Sum of atomic charges:   -0.0000000

--------------------------------
MULLIKEN REDUCED ORBITAL CHARGES
--------------------------------
  0 C s       :     3.315865  s :     3.315865
      pz      :     1.046057  p :     3.195494
      px      :     1.034578
      py      :     1.114859
      dz2     :     0.003025  d :     0.032405
      dxz     :     0.008909
      dyz     :     0.008926
      dx2y2   :     0.009006
      dxy     :     0.002538
  1 H s       :     0.838127  s :     0.838127
  2 H s       :     0.817842  s :     0.817842
  3 H s       :     0.814663  s :     0.814663
  4 C s       :     2.985648  s :     2.985648
      pz      :     0.815549  p :     2.378752
      px      :     0.812648
      py      :     0.750555
      dz2     :     0.012885  d :     0.107877
      dxz     :     0.011101
      dyz     :     0.025315
      dx2y2   :     0.027954
      dxy     :     0.030623
  5 O s       :     3.877848  s :     3.877848
      pz      :     1.514558  p :     4.585983
      px      :     1.635866
      py      :     1.435560
      dz2     :     0.004094  d :     0.026014
      dxz     :     0.001572
      dyz     :     0.007784
      dx2y2   :     0.006144
      dxy     :     0.006421
  6 N s       :     3.537946  s :     3.537946
      pz      :     1.415575  p :     3.810770
      px      :     1.298159
      py      :     1.097036
      dz2     :     0.005327  d :     0.035867
      dxz     :     0.004985
      dyz     :     0.007464
      dx2y2   :     0.009234
      dxy     :     0.008858
  7 C s       :     3.254051  s :     3.254051
      pz      :     0.957513  p :     2.953855
      px      :     0.859670
      py      :     1.136672
      dz2     :     0.009861  d :     0.051865
      dxz     :     0.013136
      dyz     :     0.009819
      dx2y2   :     0.014019
      dxy     :     0.005030
  8 H s       :     0.825390  s :     0.825390
  9 H s       :     0.793514  s :     0.793514
 10 C s       :     2.978187  s :     2.978187
      pz      :     0.793328  p :     2.388876
      px      :     0.835541
      py      :     0.760006
      dz2     :     0.018550  d :     0.107513
      dxz     :     0.010764
      dyz     :     0.026020
      dx2y2   :     0.021955
      dxy     :     0.030224
 11 N s       :     3.530119  s :     3.530119
      pz      :     1.337033  p :     3.798233
      px      :     1.259669
      py      :     1.201531
      dz2     :     0.006933  d :     0.037352
      dxz     :     0.006409
      dyz     :     0.007158
      dx2y2   :     0.007421
      dxy     :     0.009431
 12 O s       :     3.872820  s :     3.872820
      pz      :     1.589014  p :     4.592014
      px      :     1.645010
      py      :     1.357990
      dz2     :     0.003182  d :     0.026115
      dxz     :     0.001981
      dyz     :     0.006897
      dx2y2   :     0.007682
      dxy     :     0.006371
 13 C s       :     3.268554  s :     3.268554
      pz      :     1.070497  p :     3.028057
      px      :     1.094348
      py      :     0.863212
      dz2     :     0.011666  d :     0.048578
      dxz     :     0.008244
      dyz     :     0.007207
      dx2y2   :     0.008036
      dxy     :     0.013425
 14 H s       :     0.851302  s :     0.851302
 15 H s       :     0.845752  s :     0.845752
 16 H s       :     0.784949  s :     0.784949
 17 C s       :     3.254502  s :     3.254502
      pz      :     1.028250  p :     3.019594
      px      :     0.897080
      py      :     1.094264
      dz2     :     0.013302  d :     0.048202
      dxz     :     0.007708
      dyz     :     0.006611
      dx2y2   :     0.008270
      dxy     :     0.012310
 18 H s       :     0.851268  s :     0.851268
 19 H s       :     0.796553  s :     0.796553
 20 H s       :     0.847374  s :     0.847374
 21 C s       :     3.172234  s :     3.172234
      pz      :     0.958013  p :     2.753505
      px      :     0.982648
      py      :     0.812844
      dz2     :     0.011169  d :     0.058837
      dxz     :     0.010406
      dyz     :     0.013174
      dx2y2   :     0.012338
      dxy     :     0.011750
 22 C s       :     3.298606  s :     3.298606
      pz      :     1.075800  p :     3.122776
      px      :     0.981018
      py      :     1.065958
      dz2     :     0.008696  d :     0.034211
      dxz     :     0.008378
      dyz     :     0.002655
      dx2y2   :     0.009852
      dxy     :     0.004630
 23 C s       :     3.297985  s :     3.297985
      pz      :     0.970217  p :     3.119422
      px      :     1.077682
      py      :     1.071524
      dz2     :     0.008275  d :     0.034210
      dxz     :     0.006923
      dyz     :     0.005890
      dx2y2   :     0.009180
      dxy     :     0.003941
 24 H s       :     0.818186  s :     0.818186
 25 H s       :     0.843096  s :     0.843096
 26 H s       :     0.845643  s :     0.845643
 27 H s       :     0.849708  s :     0.849708
 28 H s       :     0.835818  s :     0.835818
 29 H s       :     0.852408  s :     0.852408
 30 H s       :     0.847667  s :     0.847667


                     *******************************
                     * LOEWDIN POPULATION ANALYSIS *
                     *******************************

----------------------
LOEWDIN ATOMIC CHARGES
----------------------
   0 C :   -0.388111
   1 H :    0.134177
   2 H :    0.151639
   3 H :    0.152971
   4 C :    0.113880
   5 O :   -0.302103
   6 N :   -0.076623
   7 C :   -0.180604
   8 H :    0.140662
   9 H :    0.159892
  10 C :    0.095299
  11 N :   -0.079289
  12 O :   -0.298125
  13 C :   -0.286396
  14 H :    0.120834
  15 H :    0.126515
  16 H :    0.157140
  17 C :   -0.279066
  18 H :    0.121002
  19 H :    0.156663
  20 H :    0.125569
  21 C :   -0.066086
  22 C :   -0.366471
  23 C :   -0.365231
  24 H :    0.149098
  25 H :    0.132697
  26 H :    0.133727
  27 H :    0.126488
  28 H :    0.134796
  29 H :    0.122447
  30 H :    0.132609

-------------------------------
LOEWDIN REDUCED ORBITAL CHARGES
-------------------------------
  0 C s       :     2.981514  s :     2.981514
      pz      :     1.104662  p :     3.342648
      px      :     1.091160
      py      :     1.146827
      dz2     :     0.005908  d :     0.063948
      dxz     :     0.018736
      dyz     :     0.016753
      dx2y2   :     0.017682
      dxy     :     0.004869
  1 H s       :     0.865823  s :     0.865823
  2 H s       :     0.848361  s :     0.848361
  3 H s       :     0.847029  s :     0.847029
  4 C s       :     2.849019  s :     2.849019
      pz      :     0.886182  p :     2.783502
      px      :     0.934551
      py      :     0.962769
      dz2     :     0.029050  d :     0.253600
      dxz     :     0.025190
      dyz     :     0.057223
      dx2y2   :     0.069415
      dxy     :     0.072723
  5 O s       :     3.570029  s :     3.570029
      pz      :     1.531196  p :     4.679245
      px      :     1.641135
      py      :     1.506914
      dz2     :     0.006756  d :     0.052828
      dxz     :     0.003492
      dyz     :     0.016048
      dx2y2   :     0.014292
      dxy     :     0.012240
  6 N s       :     3.102933  s :     3.102933
      pz      :     1.409126  p :     3.881040
      px      :     1.301763
      py      :     1.170151
      dz2     :     0.012989  d :     0.092650
      dxz     :     0.011869
      dyz     :     0.018227
      dx2y2   :     0.025018
      dxy     :     0.024548
  7 C s       :     2.933065  s :     2.933065
      pz      :     1.028012  p :     3.138157
      px      :     0.961158
      py      :     1.148987
      dz2     :     0.020695  d :     0.109382
      dxz     :     0.029586
      dyz     :     0.018771
      dx2y2   :     0.029761
      dxy     :     0.010569
  8 H s       :     0.859338  s :     0.859338
  9 H s       :     0.840108  s :     0.840108
 10 C s       :     2.853312  s :     2.853312
      pz      :     0.889768  p :     2.797374
      px      :     0.945383
      py      :     0.962223
      dz2     :     0.042311  d :     0.254014
      dxz     :     0.023428
      dyz     :     0.064485
      dx2y2   :     0.052475
      dxy     :     0.071314
 11 N s       :     3.088808  s :     3.088808
      pz      :     1.362707  p :     3.893090
      px      :     1.287599
      py      :     1.242784
      dz2     :     0.015631  d :     0.097391
      dxz     :     0.017709
      dyz     :     0.019810
      dx2y2   :     0.020486
      dxy     :     0.023754
 12 O s       :     3.570118  s :     3.570118
      pz      :     1.585792  p :     4.674965
      px      :     1.649318
      py      :     1.439854
      dz2     :     0.006915  d :     0.053042
      dxz     :     0.003126
      dyz     :     0.012826
      dx2y2   :     0.015756
      dxy     :     0.014419
 13 C s       :     2.962483  s :     2.962483
      pz      :     1.120156  p :     3.226906
      px      :     1.136680
      py      :     0.970070
      dz2     :     0.022916  d :     0.097007
      dxz     :     0.015513
      dyz     :     0.014740
      dx2y2   :     0.016679
      dxy     :     0.027161
 14 H s       :     0.879166  s :     0.879166
 15 H s       :     0.873485  s :     0.873485
 16 H s       :     0.842860  s :     0.842860
 17 C s       :     2.962174  s :     2.962174
      pz      :     1.092386  p :     3.221121
      px      :     0.993571
      py      :     1.135165
      dz2     :     0.026201  d :     0.095771
      dxz     :     0.015563
      dyz     :     0.012516
      dx2y2   :     0.017060
      dxy     :     0.024431
 18 H s       :     0.878998  s :     0.878998
 19 H s       :     0.843337  s :     0.843337
 20 H s       :     0.874431  s :     0.874431
 21 C s       :     2.885625  s :     2.885625
      pz      :     1.056569  p :     3.050871
      px      :     1.073097
      py      :     0.921205
      dz2     :     0.027430  d :     0.129590
      dxz     :     0.020272
      dyz     :     0.028069
      dx2y2   :     0.027920
      dxy     :     0.025898
 22 C s       :     2.977376  s :     2.977376
      pz      :     1.128359  p :     3.321745
      px      :     1.069641
      py      :     1.123745
      dz2     :     0.016481  d :     0.067350
      dxz     :     0.016542
      dyz     :     0.004567
      dx2y2   :     0.020018
      dxy     :     0.009740
 23 C s       :     2.978281  s :     2.978281
      pz      :     1.062974  p :     3.319514
      px      :     1.126758
      py      :     1.129783
      dz2     :     0.018238  d :     0.067436
      dxz     :     0.014053
      dyz     :     0.011671
      dx2y2   :     0.016567
      dxy     :     0.006907
 24 H s       :     0.850902  s :     0.850902
 25 H s       :     0.867303  s :     0.867303
 26 H s       :     0.866273  s :     0.866273
 27 H s       :     0.873512  s :     0.873512
 28 H s       :     0.865204  s :     0.865204
 29 H s       :     0.877553  s :     0.877553
 30 H s       :     0.867391  s :     0.867391


                      *****************************
                      * MAYER POPULATION ANALYSIS *
                      *****************************

  NA   - Mulliken gross atomic population
  ZA   - Total nuclear charge
  QA   - Mulliken gross atomic charge
  VA   - Mayer's total valence
  BVA  - Mayer's bonded valence
  FA   - Mayer's free valence

  ATOM       NA         ZA         QA         VA         BVA        FA
  0 C      6.5438     6.0000    -0.5438     3.7966     3.7966    -0.0000
  1 H      0.8381     1.0000     0.1619     0.9365     0.9365     0.0000
  2 H      0.8178     1.0000     0.1822     0.9282     0.9282    -0.0000
  3 H      0.8147     1.0000     0.1853     0.9370     0.9370    -0.0000
  4 C      5.4723     6.0000     0.5277     3.9415     3.9415    -0.0000
  5 O      8.4898     8.0000    -0.4898     2.0401     2.0401    -0.0000
  6 N      7.3846     7.0000    -0.3846     3.0905     3.0905    -0.0000
  7 C      6.2598     6.0000    -0.2598     3.7735     3.7735     0.0000
  8 H      0.8254     1.0000     0.1746     0.9341     0.9341     0.0000
  9 H      0.7935     1.0000     0.2065     0.9390     0.9390    -0.0000
 10 C      5.4746     6.0000     0.5254     3.9190     3.9190     0.0000
 11 N      7.3657     7.0000    -0.3657     3.1464     3.1464    -0.0000
[...]
     24      -0.001412   0.013947   0.008061
     25      -0.004097   0.043790   0.025492
     26      -0.005463   0.059430   0.034298
     27      -0.002673   0.020884   0.010866
     28      -0.030167   0.287748   0.149769
     29       0.009864  -0.085371  -0.044139
     30      -0.000033  -0.000248   0.000479
     31       0.000060  -0.000229  -0.001069
     32       0.000045  -0.000592  -0.000310
     33       0.000014  -0.000240  -0.000099
     34      -0.000026   0.000888   0.000059
     35      -0.000003   0.000282  -0.000058
     36       0.000028   0.000219  -0.000698
     37      -0.000039   0.000202   0.000213
     38      -0.000021   0.000392  -0.000363
     39      -0.001515   0.058025   0.033867
     40       0.000408  -0.015352  -0.008717
     41      -0.001162   0.040789   0.024050
     42      -0.001178   0.037339   0.021132
     43      -0.000216   0.006964   0.004786
     44       0.003858  -0.110077  -0.065087
     45       0.003020  -0.106930  -0.063057
     46       0.002492  -0.092638  -0.052794
     47      -0.000587   0.024040   0.013714
     48       0.015959  -0.619117  -0.364826
     49      -0.006505   0.245573   0.145282
     50       0.010833  -0.409124  -0.240735
     51       0.000046  -0.004592   0.007486
     52      -0.000273   0.040236  -0.068407
     53      -0.000206   0.020490  -0.034894
     54      -0.000188   0.015713  -0.027115
     55      -0.000153   0.012778  -0.020445
     56       0.001165  -0.075197   0.125792
     57      -0.000679   0.105631  -0.184075
     58       0.002944  -0.431653   0.745241
     59       0.001325  -0.191501   0.329513
     60       0.000459  -0.075693   0.125940
     61       0.000319  -0.058982   0.100485
     62      -0.000091   0.017721  -0.029910
     63       0.001623   0.000240   0.000132
     64      -0.001450   0.000094   0.000014
     65      -0.001402  -0.000249  -0.000128
     66       0.004791   0.000106   0.000054
     67      -0.004093   0.000023  -0.000007
     68      -0.006469  -0.000170  -0.000051
     69       0.006326  -0.000262   0.000003
     70      -0.004010  -0.000160  -0.000130
     71      -0.003968  -0.000124  -0.000091
     72      -0.017248  -0.001308  -0.000754
     73       0.014803   0.001337   0.000829
     74       0.014400   0.000932   0.000623
     75       0.007100   0.000347   0.000056
     76      -0.006561  -0.000170  -0.000016
     77       0.026885   0.001073   0.000142
     78       0.000729  -0.000163  -0.000057
     79       0.020750  -0.001096  -0.000294
     80      -0.003121   0.000108   0.000035
     81      -0.065891  -0.001475  -0.000660
     82       0.038281   0.000897   0.000387
     83       0.055948   0.001174   0.000525
     84      -0.028027   0.003518   0.000852
     85      -0.009892   0.000923   0.000024
     86      -0.005114   0.000653   0.000062
     87      -0.057126  -0.000917  -0.001217
     88       0.051379   0.000822   0.000960
     89       0.056413   0.000919   0.001134
     90       0.002552   0.000083   0.000134
     91       0.014271  -0.000038   0.000482
     92      -0.004076   0.000254  -0.000007


-----------
IR SPECTRUM
-----------

 Mode   freq       eps      Int      T**2         TX        TY        TZ
       cm**-1   L/(mol*cm) km/mol    a.u.
----------------------------------------------------------------------------
  6:     25.38   0.000833    4.21  0.010240  (-0.030536 -0.028603  0.092140)
  7:     61.28   0.000002    0.01  0.000012  ( 0.000960  0.003284  0.000356)
  8:     76.01   0.000160    0.81  0.000656  (-0.022305  0.002455  0.012358)
  9:     83.31   0.000285    1.44  0.001066  (-0.018097  0.000576  0.027173)
 10:    104.30   0.000364    1.84  0.001090  (-0.031938 -0.003160  0.007768)
 11:    120.84   0.002110   10.66  0.005449  ( 0.068126  0.003915  0.028146)
 12:    146.51   0.000313    1.58  0.000668  ( 0.023253  0.006755 -0.009010)
 13:    164.79   0.000029    0.15  0.000056  (-0.000927  0.007158  0.001913)
 14:    173.60   0.000023    0.12  0.000041  (-0.005790  0.001452 -0.002355)
 15:    209.53   0.000246    1.24  0.000367  ( 0.007740  0.007671 -0.015748)
 16:    222.98   0.000262    1.32  0.000366  (-0.006823  0.000675 -0.017868)
 17:    236.20   0.000482    2.43  0.000637  (-0.023219  0.009095  0.003836)
 18:    260.33   0.000152    0.77  0.000182  ( 0.011281  0.004281 -0.006002)
 19:    277.98   0.000973    4.91  0.001092  ( 0.029926  0.010175 -0.009626)
 20:    305.76   0.000436    2.20  0.000445  (-0.010111 -0.007930  0.016723)
 21:    331.32   0.000546    2.76  0.000514  ( 0.020978 -0.008615 -0.000384)
 22:    366.60   0.002030   10.26  0.001728  ( 0.026444  0.026734  0.017730)
 23:    395.49   0.000798    4.03  0.000629  ( 0.004299 -0.012066  0.021569)
 24:    425.60   0.000576    2.91  0.000423  ( 0.018650  0.008579  0.001106)
 25:    449.38   0.001358    6.86  0.000943  ( 0.021237 -0.012374  0.018404)
 26:    486.53   0.000928    4.69  0.000595  ( 0.016575 -0.011784 -0.013476)
 27:    532.98   0.002715   13.72  0.001590  ( 0.028842 -0.011856 -0.024844)
 28:    581.22   0.001940    9.81  0.001042  ( 0.021137 -0.014770  0.019412)
 29:    604.02   0.000965    4.88  0.000499  ( 0.001099 -0.007778  0.020902)
 30:    619.96   0.002876   14.53  0.001448  ( 0.027842  0.021850  0.013963)
 31:    679.61   0.001210    6.12  0.000556  (-0.003545  0.018143  0.014632)
 32:    740.97   0.000230    1.16  0.000097  ( 0.006837 -0.003744  0.005996)
 33:    801.55   0.003024   15.28  0.001177  ( 0.026876  0.018169  0.011165)
 34:    889.03   0.000400    2.02  0.000141  ( 0.002657  0.009100  0.007118)
 35:    944.92   0.000337    1.70  0.000111  (-0.008075 -0.005739 -0.003613)
 36:    958.35   0.000124    0.63  0.000040  ( 0.005553 -0.002944  0.000920)
 37:    964.59   0.000214    1.08  0.000069  ( 0.006251  0.003250  0.004440)
 38:   1005.87   0.005190   26.23  0.001610  ( 0.030235  0.008185  0.025077)
 39:   1010.91   0.002979   15.05  0.000920  ( 0.009329 -0.028365  0.005290)
 40:   1065.20   0.002161   10.92  0.000633  ( 0.014573  0.004084  0.020098)
 41:   1071.39   0.001500    7.58  0.000437  (-0.005098  0.011338  0.016805)
 42:   1096.44   0.000789    3.99  0.000225  (-0.008300  0.011369 -0.005149)
 43:   1141.90   0.000026    0.13  0.000007  ( 0.000072 -0.001606 -0.002103)
 44:   1149.00   0.004531   22.90  0.001231  (-0.031057 -0.015606 -0.004752)
 45:   1161.61   0.001552    7.85  0.000417  (-0.005134  0.018386 -0.007254)
 46:   1166.62   0.008733   44.13  0.002336  ( 0.024649  0.036856  0.019241)
 47:   1190.42   0.000598    3.02  0.000157  ( 0.008482  0.009150 -0.001002)
 48:   1202.74   0.007237   36.57  0.001878  ( 0.011936  0.027942  0.030896)
 49:   1240.07   0.004548   22.98  0.001145  ( 0.005864  0.027655 -0.018584)
 50:   1282.86   0.012944   65.42  0.003149  ( 0.039624 -0.024550 -0.031241)
 51:   1292.46   0.019655   99.33  0.004746  (-0.061979  0.028354 -0.010018)
 52:   1372.39   0.000636    3.22  0.000145  ( 0.011333 -0.003843 -0.001206)
 53:   1379.49   0.015395   77.80  0.003483  ( 0.028791 -0.050943  0.007649)
 54:   1384.98   0.000402    2.03  0.000090  ( 0.006806 -0.002926 -0.005968)
 55:   1420.83   0.006438   32.54  0.001414  ( 0.030096 -0.021985 -0.004998)
 56:   1430.66   0.001962    9.91  0.000428  ( 0.001141  0.011165  0.017377)
 57:   1447.80   0.005708   28.85  0.001230  (-0.011007 -0.025048 -0.021951)
 58:   1450.03   0.002480   12.53  0.000534  ( 0.002627  0.022031 -0.006430)
 59:   1461.89   0.016755   84.67  0.003577  (-0.047539 -0.022872 -0.028168)
 60:   1494.28   0.008893   44.94  0.001857  (-0.020859  0.036727 -0.008564)
 61:   1500.11   0.001201    6.07  0.000250  ( 0.013883 -0.001450  0.007422)
 62:   1510.96   0.001042    5.27  0.000215  (-0.013863  0.004142  0.002424)
 63:   1513.90   0.000340    1.72  0.000070  ( 0.001303 -0.006043 -0.005644)
 64:   1517.97   0.000515    2.60  0.000106  (-0.004739 -0.006718 -0.006189)
 65:   1523.22   0.003226   16.31  0.000661  ( 0.022502 -0.006769 -0.010432)
 66:   1526.20   0.002193   11.08  0.000449  ( 0.012687 -0.002641 -0.016750)
 67:   1528.41   0.003749   18.95  0.000765  ( 0.018239 -0.017201 -0.011703)
 68:   1535.99   0.002064   10.43  0.000419  ( 0.007305 -0.003946 -0.018718)
 69:   1538.35   0.004686   23.68  0.000951  ( 0.019400  0.020889 -0.011741)
 70:   1542.71   0.001102    5.57  0.000223  ( 0.004648 -0.013260  0.005047)
 71:   1551.54   0.003440   17.38  0.000692  (-0.016256  0.014279  0.014957)
 72:   1570.30   0.008043   40.65  0.001598  ( 0.026737  0.005485  0.029213)
 73:   1730.47   0.052609  265.86  0.009487  ( 0.013077  0.093909 -0.022299)
 74:   1745.58   0.061454  310.56  0.010986  ( 0.002024  0.092648  0.048976)
 75:   3020.14   0.005858   29.60  0.000605  (-0.001028  0.021942  0.011081)
 76:   3029.84   0.016682   84.30  0.001718  (-0.024370 -0.010791 -0.031746)
 77:   3056.74   0.003917   19.80  0.000400  (-0.011050 -0.003079 -0.016381)
 78:   3061.08   0.002896   14.64  0.000295  (-0.010364 -0.011642  0.007233)
 79:   3067.65   0.009917   50.12  0.001009  ( 0.022450  0.017371 -0.014249)
 80:   3074.70   0.001587    8.02  0.000161  (-0.010869 -0.006033  0.002552)
 81:   3078.30   0.005993   30.29  0.000608  (-0.018498 -0.010605  0.012365)
 82:   3085.13   0.003662   18.51  0.000370  ( 0.005623 -0.006584 -0.017189)
 83:   3094.53   0.000540    2.73  0.000054  (-0.004890 -0.000247 -0.005523)
 84:   3120.22   0.001415    7.15  0.000142  (-0.002366  0.003894 -0.010988)
 85:   3126.00   0.007935   40.10  0.000792  (-0.001758  0.027794 -0.004063)
 86:   3137.80   0.003589   18.14  0.000357  (-0.018606 -0.003227 -0.000594)
 87:   3148.35   0.006406   32.37  0.000635  (-0.015027  0.012287  0.016067)
 88:   3149.78   0.001755    8.87  0.000174  (-0.002520  0.003601  0.012432)
 89:   3171.23   0.000366    1.85  0.000036  ( 0.005971  0.000113  0.000588)
 90:   3181.71   0.002126   10.74  0.000208  ( 0.002752  0.011723 -0.007968)
 91:   3189.32   0.002701   13.65  0.000264  (-0.016221  0.000851 -0.000698)
 92:   3191.42   0.000277    1.40  0.000027  (-0.004342 -0.002752  0.000832)

* The epsilon (eps) is given for a Dirac delta lineshape.
** The dipole moment derivative (T) already includes vibrational overlap.

The first frequency considered to be a vibration is 6
The total number of vibrations considered is 87


--------------------------
THERMOCHEMISTRY AT 298.15K
--------------------------

Temperature         ... 298.15 K
Pressure            ... 1.00 atm
Total Mass          ... 186.26 AMU

Throughout the following assumptions are being made:
  (1) The electronic state is orbitally nondegenerate
  (2) There are no thermally accessible electronically excited states
  (3) Hindered rotations indicated by low frequency modes are not
      treated as such but are treated as vibrations and this may
      cause some error
  (4) All equations used are the standard statistical mechanics
      equations for an ideal gas
  (5) All vibrations are strictly harmonic

freq.      25.38  E(vib)   ...       0.56 
freq.      61.28  E(vib)   ...       0.51 
freq.      76.01  E(vib)   ...       0.49 
freq.      83.31  E(vib)   ...       0.48 
freq.     104.30  E(vib)   ...       0.46 
freq.     120.84  E(vib)   ...       0.44 
freq.     146.51  E(vib)   ...       0.41 
freq.     164.79  E(vib)   ...       0.39 
freq.     173.60  E(vib)   ...       0.38 
freq.     209.53  E(vib)   ...       0.34 
freq.     222.98  E(vib)   ...       0.33 
freq.     236.20  E(vib)   ...       0.32 
freq.     260.33  E(vib)   ...       0.30 
freq.     277.98  E(vib)   ...       0.28 
freq.     305.76  E(vib)   ...       0.26 
freq.     331.32  E(vib)   ...       0.24 
freq.     366.60  E(vib)   ...       0.22 
freq.     395.49  E(vib)   ...       0.20 
freq.     425.60  E(vib)   ...       0.18 
freq.     449.38  E(vib)   ...       0.17 
freq.     486.53  E(vib)   ...       0.15 
freq.     532.98  E(vib)   ...       0.13 
freq.     581.22  E(vib)   ...       0.11 
freq.     604.02  E(vib)   ...       0.10 
freq.     619.96  E(vib)   ...       0.09 
freq.     679.61  E(vib)   ...       0.08 
freq.     740.97  E(vib)   ...       0.06 
freq.     801.55  E(vib)   ...       0.05 
freq.     889.03  E(vib)   ...       0.04 
freq.     944.92  E(vib)   ...       0.03 
freq.     958.35  E(vib)   ...       0.03 
freq.     964.59  E(vib)   ...       0.03 
freq.    1005.87  E(vib)   ...       0.02 
freq.    1010.91  E(vib)   ...       0.02 
freq.    1065.20  E(vib)   ...       0.02 
freq.    1071.39  E(vib)   ...       0.02 
freq.    1096.44  E(vib)   ...       0.02 
freq.    1141.90  E(vib)   ...       0.01 
freq.    1149.00  E(vib)   ...       0.01 
freq.    1161.61  E(vib)   ...       0.01 
freq.    1166.62  E(vib)   ...       0.01 
freq.    1190.42  E(vib)   ...       0.01 
freq.    1202.74  E(vib)   ...       0.01 
freq.    1240.07  E(vib)   ...       0.01 
freq.    1282.86  E(vib)   ...       0.01 
freq.    1292.46  E(vib)   ...       0.01 
freq.    1372.39  E(vib)   ...       0.01 
freq.    1379.49  E(vib)   ...       0.01 
freq.    1384.98  E(vib)   ...       0.00 
freq.    1420.83  E(vib)   ...       0.00 
freq.    1430.66  E(vib)   ...       0.00 
freq.    1447.80  E(vib)   ...       0.00 
freq.    1450.03  E(vib)   ...       0.00 
freq.    1461.89  E(vib)   ...       0.00 
freq.    1494.28  E(vib)   ...       0.00 
freq.    1500.11  E(vib)   ...       0.00 
freq.    1510.96  E(vib)   ...       0.00 
freq.    1513.90  E(vib)   ...       0.00 
freq.    1517.97  E(vib)   ...       0.00 
freq.    1523.22  E(vib)   ...       0.00 
freq.    1526.20  E(vib)   ...       0.00 
freq.    1528.41  E(vib)   ...       0.00 
freq.    1535.99  E(vib)   ...       0.00 
freq.    1538.35  E(vib)   ...       0.00 
freq.    1542.71  E(vib)   ...       0.00 
freq.    1551.54  E(vib)   ...       0.00 
freq.    1570.30  E(vib)   ...       0.00 
freq.    1730.47  E(vib)   ...       0.00 
freq.    1745.58  E(vib)   ...       0.00 
freq.    3020.14  E(vib)   ...       0.00 
freq.    3029.84  E(vib)   ...       0.00 
freq.    3056.74  E(vib)   ...       0.00 
freq.    3061.08  E(vib)   ...       0.00 
freq.    3067.65  E(vib)   ...       0.00 
freq.    3074.70  E(vib)   ...       0.00 
freq.    3078.30  E(vib)   ...       0.00 
freq.    3085.13  E(vib)   ...       0.00 
freq.    3094.53  E(vib)   ...       0.00 
freq.    3120.22  E(vib)   ...       0.00 
freq.    3126.00  E(vib)   ...       0.00 
freq.    3137.80  E(vib)   ...       0.00 
freq.    3148.35  E(vib)   ...       0.00 
freq.    3149.78  E(vib)   ...       0.00 
freq.    3171.23  E(vib)   ...       0.00 
freq.    3181.71  E(vib)   ...       0.00 
freq.    3189.32  E(vib)   ...       0.00 
freq.    3191.42  E(vib)   ...       0.00 

------------
INNER ENERGY
------------

The inner energy is: U= E(el) + E(ZPE) + E(vib) + E(rot) + E(trans)
    E(el)   - is the total energy from the electronic structure calculation
              = E(kin-el) + E(nuc-el) + E(el-el) + E(nuc-nuc)
    E(ZPE)  - the the zero temperature vibrational energy from the frequency calculation
    E(vib)  - the the finite temperature correction to E(ZPE) due to population
              of excited vibrational states
    E(rot)  - is the rotational thermal energy
    E(trans)- is the translational thermal energy

Summary of contributions to the inner energy U:
Electronic energy                ...   -613.43481791 Eh
Zero point energy                ...      0.27333542 Eh     171.52 kcal/mol
Thermal vibrational correction   ...      0.01285933 Eh       8.07 kcal/mol
Thermal rotational correction    ...      0.00141627 Eh       0.89 kcal/mol
Thermal translational correction ...      0.00141627 Eh       0.89 kcal/mol
-----------------------------------------------------------------------
Total thermal energy                   -613.14579063 Eh


Summary of corrections to the electronic energy:
(perhaps to be used in another calculation)
Total thermal correction                  0.01569187 Eh       9.85 kcal/mol
Non-thermal (ZPE) correction              0.27333542 Eh     171.52 kcal/mol
-----------------------------------------------------------------------
Total correction                          0.28902729 Eh     181.37 kcal/mol


--------
ENTHALPY
--------

The enthalpy is H = U + kB*T
                kB is Boltzmann's constant
Total free energy                 ...   -613.14579063 Eh 
Thermal Enthalpy correction       ...      0.00094421 Eh       0.59 kcal/mol
-----------------------------------------------------------------------
Total Enthalpy                    ...   -613.14484642 Eh


Note: Only C1 symmetry has been detected, increase convergence thresholds 
      if your molecule has a higher symmetry. Symmetry factor of 1.0 is   
      used for the rotational entropy correction. 
 

Note: Rotational entropy computed according to Herzberg 
Infrared and Raman Spectra, Chapter V,1, Van Nostrand Reinhold, 1945 
Point Group:  C1, Symmetry Number:   1  
Rotational constants in cm-1:     0.036161     0.020045     0.016244 

Vibrational entropy computed according to the QRRHO of S. Grimme
Chem.Eur.J. 2012 18 9955


-------
ENTROPY
-------

The entropy contributions are T*S = T*(S(el)+S(vib)+S(rot)+S(trans))
     S(el)   - electronic entropy
     S(vib)  - vibrational entropy
     S(rot)  - rotational entropy
     S(trans)- translational entropy
The entropies will be listed as multiplied by the temperature to get
units of energy

Electronic entropy                ...      0.00000000 Eh      0.00 kcal/mol
Vibrational entropy               ...      0.02296036 Eh     14.41 kcal/mol
Rotational entropy                ...      0.01486883 Eh      9.33 kcal/mol
Translational entropy             ...      0.01975209 Eh     12.39 kcal/mol
-----------------------------------------------------------------------
Final entropy term                ...      0.05758127 Eh     36.13 kcal/mol

In case the symmetry of your molecule has not been determined correctly
or in case you have a reason to use a different symmetry number we print 
out the resulting rotational entropy values for sn=1,12 :
 --------------------------------------------------------
|  sn= 1 | S(rot)=       0.01486883 Eh      9.33 kcal/mol|
|  sn= 2 | S(rot)=       0.01421437 Eh      8.92 kcal/mol|
|  sn= 3 | S(rot)=       0.01383154 Eh      8.68 kcal/mol|
|  sn= 4 | S(rot)=       0.01355991 Eh      8.51 kcal/mol|
|  sn= 5 | S(rot)=       0.01334922 Eh      8.38 kcal/mol|
|  sn= 6 | S(rot)=       0.01317708 Eh      8.27 kcal/mol|
|  sn= 7 | S(rot)=       0.01303153 Eh      8.18 kcal/mol|
|  sn= 8 | S(rot)=       0.01290546 Eh      8.10 kcal/mol|
|  sn= 9 | S(rot)=       0.01279425 Eh      8.03 kcal/mol|
|  sn=10 | S(rot)=       0.01269477 Eh      7.97 kcal/mol|
|  sn=11 | S(rot)=       0.01260478 Eh      7.91 kcal/mol|
|  sn=12 | S(rot)=       0.01252262 Eh      7.86 kcal/mol|
 --------------------------------------------------------


-------------------
GIBBS FREE ENERGY
-------------------

The Gibbs free energy is G = H - T*S

Total enthalpy                    ...   -613.14484642 Eh 
Total entropy correction          ...     -0.05758127 Eh    -36.13 kcal/mol
-----------------------------------------------------------------------
Final Gibbs free energy         ...   -613.20242769 Eh

For completeness - the Gibbs free energy minus the electronic energy
G-E(el)                           ...      0.23239022 Eh    145.83 kcal/mol


Timings for individual modules:

Sum of individual times         ...     1227.079 sec (=  20.451 min)
GTO integral calculation        ...       15.401 sec (=   0.257 min)   1.3 %
SCF iterations                  ...      580.668 sec (=   9.678 min)  47.3 %
SCF Gradient evaluation         ...      183.761 sec (=   3.063 min)  15.0 %
Geometry relaxation             ...        1.166 sec (=   0.019 min)   0.1 %
Analytical frequency calculation...      446.083 sec (=   7.435 min)  36.4 %
                             ****ORCA TERMINATED NORMALLY****
TOTAL RUN TIME: 0 days 0 hours 20 minutes 32 seconds 490 msec
