
                                 *****************
                                 * O   R   C   A *
                                 *****************

                                            #,                                       
                                            ###                                      
                                            ####                                     
                                            #####                                    
                                            ######                                   
                                           ########,                                 
                                     ,,################,,,,,                         
                               ,,#################################,,                 
                          ,,##########################################,,             
                       ,#########################################, ''#####,          
                    ,#############################################,,   '####,        
                  ,##################################################,,,,####,       
                ,###########''''           ''''###############################       
              ,#####''   ,,,,##########,,,,          '''####'''          '####       
            ,##' ,,,,###########################,,,                        '##       
           ' ,,###''''                  '''############,,,                           
         ,,##''                                '''############,,,,        ,,,,,,###''
      ,#''                                            '''#######################'''  
     '                                                          ''''####''''         
             ,#######,   #######,   ,#######,      ##                                
            ,#'     '#,  ##    ##  ,#'     '#,    #''#        ######   ,####,        
            ##       ##  ##   ,#'  ##            #'  '#       #        #'  '#        
            ##       ##  #######   ##           ,######,      #####,   #    #        
            '#,     ,#'  ##    ##  '#,     ,#' ,#      #,         ##   #,  ,#        
             '#######'   ##     ##  '#######'  #'      '#     #####' # '####'        



                  #######################################################
                  #                        -***-                        #
                  #          Department of theory and spectroscopy      #
                  #    Directorship and core code : Frank Neese         #
                  #        Max Planck Institute fuer Kohlenforschung    #
                  #                Kaiser Wilhelm Platz 1               #
                  #                 D-45470 Muelheim/Ruhr               #
                  #                      Germany                        #
                  #                                                     #
                  #                  All rights reserved                #
                  #                        -***-                        #
                  #######################################################


                         Program Version 5.0.4 -  RELEASE  -


 With contributions from (in alphabetic order):
   Daniel Aravena         : Magnetic Suceptibility
   Michael Atanasov       : Ab Initio Ligand Field Theory (pilot matlab implementation)
   Alexander A. Auer      : GIAO ZORA, VPT2 properties, NMR spectrum
   Ute Becker             : Parallelization
   Giovanni Bistoni       : ED, misc. LED, open-shell LED, HFLD
   Martin Brehm           : Molecular dynamics
   Dmytro Bykov           : SCF Hessian
   Vijay G. Chilkuri      : MRCI spin determinant printing, contributions to CSF-ICE
   Dipayan Datta          : RHF DLPNO-CCSD density
   Achintya Kumar Dutta   : EOM-CC, STEOM-CC
   Dmitry Ganyushin       : Spin-Orbit,Spin-Spin,Magnetic field MRCI
   Miquel Garcia          : C-PCM and meta-GGA Hessian, CC/C-PCM, Gaussian charge scheme
   Yang Guo               : DLPNO-NEVPT2, F12-NEVPT2, CIM, IAO-localization
   Andreas Hansen         : Spin unrestricted coupled pair/coupled cluster methods
   Benjamin Helmich-Paris : MC-RPA, TRAH-SCF, COSX integrals
   Lee Huntington         : MR-EOM, pCC
   Robert Izsak           : Overlap fitted RIJCOSX, COSX-SCS-MP3, EOM
   Marcus Kettner         : VPT2
   Christian Kollmar      : KDIIS, OOCD, Brueckner-CCSD(T), CCSD density, CASPT2, CASPT2-K
   Simone Kossmann        : Meta GGA functionals, TD-DFT gradient, OOMP2, MP2 Hessian
   Martin Krupicka        : Initial AUTO-CI
   Lucas Lang             : DCDCAS
   Marvin Lechner         : AUTO-CI (C++ implementation), FIC-MRCC
   Dagmar Lenk            : GEPOL surface, SMD
   Dimitrios Liakos       : Extrapolation schemes; Compound Job, initial MDCI parallelization
   Dimitrios Manganas     : Further ROCIS development; embedding schemes
   Dimitrios Pantazis     : SARC Basis sets
   Anastasios Papadopoulos: AUTO-CI, single reference methods and gradients
   Taras Petrenko         : DFT Hessian,TD-DFT gradient, ASA, ECA, R-Raman, ABS, FL, XAS/XES, NRVS
   Peter Pinski           : DLPNO-MP2, DLPNO-MP2 Gradient
   Christoph Reimann      : Effective Core Potentials
   Marius Retegan         : Local ZFS, SOC
   Christoph Riplinger    : Optimizer, TS searches, QM/MM, DLPNO-CCSD(T), (RO)-DLPNO pert. Triples
   Tobias Risthaus        : Range-separated hybrids, TD-DFT gradient, RPA, STAB
   Michael Roemelt        : Original ROCIS implementation
   Masaaki Saitow         : Open-shell DLPNO-CCSD energy and density
   Barbara Sandhoefer     : DKH picture change effects
   Avijit Sen             : IP-ROCIS
   Kantharuban Sivalingam : CASSCF convergence, NEVPT2, FIC-MRCI
   Bernardo de Souza      : ESD, SOC TD-DFT
   Georgi Stoychev        : AutoAux, RI-MP2 NMR, DLPNO-MP2 response
   Willem Van den Heuvel  : Paramagnetic NMR
   Boris Wezisla          : Elementary symmetry handling
   Frank Wennmohs         : Technical directorship


 We gratefully acknowledge several colleagues who have allowed us to
 interface, adapt or use parts of their codes:
   Stefan Grimme, W. Hujo, H. Kruse, P. Pracht,  : VdW corrections, initial TS optimization,
                  C. Bannwarth, S. Ehlert          DFT functionals, gCP, sTDA/sTD-DF
   Ed Valeev, F. Pavosevic, A. Kumar             : LibInt (2-el integral package), F12 methods
   Garnet Chan, S. Sharma, J. Yang, R. Olivares  : DMRG
   Ulf Ekstrom                                   : XCFun DFT Library
   Mihaly Kallay                                 : mrcc  (arbitrary order and MRCC methods)
   Jiri Pittner, Ondrej Demel                    : Mk-CCSD
   Frank Weinhold                                : gennbo (NPA and NBO analysis)
   Christopher J. Cramer and Donald G. Truhlar   : smd solvation model
   Lars Goerigk                                  : TD-DFT with DH, B97 family of functionals
   V. Asgeirsson, H. Jonsson                     : NEB implementation
   FAccTs GmbH                                   : IRC, NEB, NEB-TS, DLPNO-Multilevel, CI-OPT
                                                   MM, QMMM, 2- and 3-layer-ONIOM, Crystal-QMMM,
                                                   LR-CPCM, SF, NACMEs, symmetry and pop. for TD-DFT,
                                                   nearIR, NL-DFT gradient (VV10), updates on ESD,
                                                   ML-optimized integration grids
   S Lehtola, MJT Oliveira, MAL Marques          : LibXC Library
   Liviu Ungur et al                             : ANISO software


 Your calculation uses the libint2 library for the computation of 2-el integrals
 For citations please refer to: http://libint.valeyev.net

 Your ORCA version has been built with support for libXC version: 5.1.0
 For citations please refer to: https://tddft.org/programs/libxc/

 This ORCA versions uses:
   CBLAS   interface :  Fast vector & matrix operations
   LAPACKE interface :  Fast linear algebra routines
   SCALAPACK package :  Parallel linear algebra routines
   Shared memory     :  Shared parallel matrices
   BLAS/LAPACK       :  OpenBLAS 0.3.15  USE64BITINT DYNAMIC_ARCH NO_AFFINITY SkylakeX SINGLE_THREADED
        Core in use  :  SkylakeX
   Copyright (c) 2011-2014, The OpenBLAS Project




***************************************
The coordinates will be read from file: /users/fjb15167/WWenergy/structures/Nf.xyz
***************************************


Your calculation utilizes the atom-pairwise dispersion correction
based on tight binding partial charges (D4)
Cite in your paper:
E.Caldeweyher, C.Bannwarth, S.Grimme, J.Chem.Phys., (2017), 147, 034112.
E.Caldeweyher, S.Ehlert, A.Hansen, H.Neugebauer, S.Grimme, J.Chem.Phys., (2018), in progress.
   

================================================================================

----- Orbital basis set information -----
Your calculation utilizes the basis: 6-31G(d)
   H-He, Li-Ne : W. J. Hehre, R. Ditchfield and J.A. Pople, J. Chem. Phys. 56, 2257 (1972).
                 Note: He and Ne are unpublished basis sets taken from the Gaussian program.
                 Note: Li and B from J. D. Dill and J. A. Pople, J. Chem. Phys. 62, 2921 (1975).
   Na - Ar     : M. M. Francl, W. J. Pietro, W. J. Hehre, J. S. Binkley, M. S. Gordon, 
                 D. J. DeFrees and J. A. Pople, J. Chem. Phys. 77, 3654 (1982).
   K - Zn      : V. A. Rassolov, J. A. Pople, M. A. Ratner, and T. L. Windus, J. Chem. Phys. 109, 1223 (1998).

----- AuxJ basis set information -----
Your calculation utilizes the AutoAux generation procedure.
  G. L. Stoychev, A. A. Auer, F. Neese, J. Chem. Theory Comput. 13, 554 (2017)

----- AuxC basis set information -----
Your calculation utilizes the AutoAux generation procedure.
  G. L. Stoychev, A. A. Auer, F. Neese, J. Chem. Theory Comput. 13, 554 (2017)

----- AuxJK basis set information -----
Your calculation utilizes the AutoAux generation procedure.
  G. L. Stoychev, A. A. Auer, F. Neese, J. Chem. Theory Comput. 13, 554 (2017)

================================================================================
                                        WARNINGS
                       Please study these warnings very carefully!
================================================================================


WARNING: Geometry Optimization
  ===> : Switching off AutoStart
         For restart on a previous wavefunction, please use MOREAD

INFO   : the flag for use of the SHARK integral package has been found!

================================================================================
                                       INPUT FILE
================================================================================
NAME = Nf_water.inp
|  1> ! OPT FREQ B3LYP 6-31G(d) D4 AUTOAUX CPCM(water)
|  2> 
|  3> %PAL NPROCS 4 END
|  4> 
|  5> %maxcore 3375
|  6> 
|  7> *xyzfile 0 1 /users/fjb15167/WWenergy/structures/Nf.xyz
|  8> 
|  9>                          ****END OF INPUT****
================================================================================

                       *****************************
                       * Geometry Optimization Run *
                       *****************************

Geometry optimization settings:
Update method            Update   .... BFGS
Choice of coordinates    CoordSys .... Z-matrix Internals
Initial Hessian          InHess   .... Almoef's Model

Convergence Tolerances:
Energy Change            TolE     ....  5.0000e-06 Eh
Max. Gradient            TolMAXG  ....  3.0000e-04 Eh/bohr
RMS Gradient             TolRMSG  ....  1.0000e-04 Eh/bohr
Max. Displacement        TolMAXD  ....  4.0000e-03 bohr
RMS Displacement         TolRMSD  ....  2.0000e-03 bohr
Strict Convergence                ....  False
------------------------------------------------------------------------------
                        ORCA OPTIMIZATION COORDINATE SETUP
------------------------------------------------------------------------------

The optimization will be done in new redundant internal coordinates
Making redundant internal coordinates   ...  (new redundants) done
Evaluating the initial hessian          ...  (Almloef) done
Evaluating the coordinates              ...  done
Calculating the B-matrix                .... done
Calculating the G-matrix                .... done
Diagonalizing the G-matrix              .... done
Small eigenvalue found = 4.411e-03
Small eigenvalue found = 6.781e-03
Small eigenvalue found = 1.073e-02
Small eigenvalue found = 1.855e-02
Small eigenvalue found = 2.504e-02
The first mode is                       ....   71
The number of degrees of freedom        ....   99

    -----------------------------------------------------------------
                    Redundant Internal Coordinates


    -----------------------------------------------------------------
         Definition                    Initial Value    Approx d2E/dq
    -----------------------------------------------------------------
      1. B(H   1,C   0)                  1.0912         0.358565   
      2. B(H   2,C   0)                  1.0903         0.359662   
      3. B(H   3,C   0)                  1.0930         0.356145   
      4. B(C   4,C   0)                  1.5132         0.397415   
      5. B(N   5,C   4)                  1.3795         0.581610   
      6. B(C   6,N   5)                  1.4713         0.415114   
      7. B(H   7,C   6)                  1.0926         0.356733   
      8. B(H   8,C   6)                  1.0983         0.349247   
      9. B(C   9,C   6)                  1.5043         0.410614   
     10. B(C  10,C   9)                  1.4036         0.594387   
     11. B(C  11,C   9)                  1.3994         0.603673   
     12. B(C  12,C  10)                  1.3941         0.615526   
     13. B(H  13,C  10)                  1.0876         0.363255   
     14. B(C  14,C  11)                  1.3981         0.606566   
     15. B(H  15,C  11)                  1.0892         0.361222   
     16. B(C  16,C  14)                  1.3954         0.612581   
     17. B(C  16,C  12)                  1.3998         0.602705   
     18. B(H  17,C  12)                  1.0879         0.362925   
     19. B(H  18,C  14)                  1.0874         0.363567   
     20. B(H  19,C  16)                  1.0879         0.362832   
     21. B(C  20,N   5)                  1.4597         0.433220   
     22. B(H  21,C  20)                  1.0973         0.350573   
     23. B(H  22,C  20)                  1.0974         0.350435   
     24. B(C  23,C  20)                  1.5302         0.373353   
     25. B(N  24,C  23)                  1.3643         0.615052   
     26. B(O  25,C  23)                  1.2377         0.979112   
     27. B(O  26,C   4)                  1.2373         0.980483   
     28. B(C  27,N  24)                  1.4546         0.441397   
     29. B(H  28,C  27)                  1.0965         0.351540   
     30. B(H  29,C  27)                  1.0953         0.353218   
     31. B(H  30,C  27)                  1.0854         0.366239   
     32. B(H  30,H  19)                  4.3585         0.000000   
     33. B(C  31,N  24)                  1.4555         0.439954   
     34. B(H  32,C  31)                  1.0945         0.354247   
     35. B(H  33,C  31)                  1.0959         0.352374   
     36. B(H  34,C  31)                  1.0880         0.362715   
     37. A(H   2,C   0,C   4)          106.6493         0.327571   
     38. A(H   1,C   0,H   3)          107.7308         0.290141   
     39. A(H   1,C   0,H   2)          110.1216         0.290589   
     40. A(H   3,C   0,C   4)          110.5962         0.327041   
     41. A(H   1,C   0,C   4)          113.1157         0.327406   
     42. A(H   2,C   0,H   3)          108.5581         0.290280   
     43. A(C   0,C   4,N   5)          118.1905         0.394010   
     44. A(C   0,C   4,O  26)          120.9521         0.432281   
     45. A(N   5,C   4,O  26)          120.8527         0.460103   
     46. A(C   4,N   5,C  20)          125.4309         0.397465   
     47. A(C   4,N   5,C   6)          117.0759         0.394498   
     48. A(C   6,N   5,C  20)          115.5903         0.374795   
     49. A(H   8,C   6,C   9)          110.5859         0.327749   
     50. A(H   7,C   6,C   9)          110.6215         0.328898   
     51. A(N   5,C   6,C   9)          112.0223         0.373692   
     52. A(N   5,C   6,H   7)          106.9123         0.327511   
     53. A(H   7,C   6,H   8)          108.3900         0.289021   
     54. A(N   5,C   6,H   8)          108.1573         0.326369   
     55. A(C   6,C   9,C  10)          119.1875         0.400351   
     56. A(C  10,C   9,C  11)          119.3655         0.428729   
     57. A(C   6,C   9,C  11)          121.3852         0.401445   
     58. A(C  12,C  10,H  13)          121.0503         0.352997   
     59. A(C   9,C  10,H  13)          118.8069         0.350918   
     60. A(C   9,C  10,C  12)          120.1420         0.430227   
     61. A(C  14,C  11,H  15)          119.8680         0.351789   
     62. A(C   9,C  11,H  15)          119.6504         0.351505   
     63. A(C   9,C  11,C  14)          120.4740         0.430292   
     64. A(C  16,C  12,H  17)          119.9439         0.351689   
     65. A(C  10,C  12,C  16)          120.2255         0.431302   
     66. A(C  10,C  12,H  17)          119.8304         0.352943   
     67. A(C  16,C  14,H  18)          120.1243         0.352762   
     68. A(C  11,C  14,H  18)          119.9653         0.352174   
     69. A(C  11,C  14,C  16)          119.9103         0.431425   
     70. A(C  12,C  16,H  19)          120.0632         0.351673   
     71. A(C  12,C  16,C  14)          119.8790         0.430931   
     72. A(C  14,C  16,H  19)          120.0549         0.352642   
     73. A(H  22,C  20,C  23)          107.9657         0.322843   
     74. A(H  21,C  20,C  23)          104.9223         0.322864   
     75. A(N   5,C  20,C  23)          117.5747         0.370333   
     76. A(H  21,C  20,H  22)          107.5320         0.288387   
     77. A(N   5,C  20,H  22)          106.5502         0.328858   
     78. A(N   5,C  20,H  21)          111.8884         0.328879   
     79. A(N  24,C  23,O  25)          122.9268         0.464710   
     80. A(C  20,C  23,O  25)          118.6363         0.427355   
     81. A(C  20,C  23,N  24)          118.4124         0.393558   
     82. A(C  27,N  24,C  31)          115.8269         0.379808   
     83. A(C  23,N  24,C  31)          118.6368         0.402485   
     84. A(C  23,N  24,C  27)          125.4796         0.402718   
     85. A(H  29,C  27,H  30)          108.3666         0.290730   
     86. A(H  28,C  27,H  30)          108.4496         0.290513   
     87. A(N  24,C  27,H  30)          111.5226         0.332292   
     88. A(H  28,C  27,H  29)          108.6145         0.288868   
     89. A(N  24,C  27,H  29)          108.1776         0.330307   
     90. A(N  24,C  27,H  28)          111.6193         0.330047   
     91. A(H  33,C  31,H  34)          110.0173         0.290180   
     92. A(H  32,C  31,H  34)          109.5708         0.290422   
     93. A(N  24,C  31,H  34)          108.3797         0.331581   
     94. A(H  32,C  31,H  33)          108.7150         0.289107   
     95. A(N  24,C  31,H  33)          109.9064         0.329998   
     96. A(N  24,C  31,H  32)          110.2452         0.330287   
     97. D(O  26,C   4,C   0,H   3)   -101.0796         0.011728   
     98. D(O  26,C   4,C   0,H   2)     16.7768         0.011728   
     99. D(O  26,C   4,C   0,H   1)    137.9794         0.011728   
    100. D(N   5,C   4,C   0,H   2)   -164.0086         0.011728   
    101. D(N   5,C   4,C   0,H   3)     78.1349         0.011728   
    102. D(N   5,C   4,C   0,H   1)    -42.8061         0.011728   
    103. D(C   6,N   5,C   4,C   0)    166.5562         0.027141   
    104. D(C  20,N   5,C   4,O  26)   -177.7746         0.027141   
    105. D(C  20,N   5,C   4,C   0)      3.0100         0.027141   
    106. D(C   6,N   5,C   4,O  26)    -14.2284         0.027141   
    107. D(H   8,C   6,N   5,C   4)   -130.9182         0.014696   
    108. D(H   8,C   6,N   5,C  20)     34.2553         0.014696   
    109. D(C   9,C   6,N   5,C   4)    106.9538         0.014696   
    110. D(H   7,C   6,N   5,C  20)    150.7902         0.014696   
    111. D(H   7,C   6,N   5,C   4)    -14.3833         0.014696   
    112. D(C   9,C   6,N   5,C  20)    -87.8727         0.014696   
    113. D(C  11,C   9,C   6,H   8)    -15.8726         0.012486   
    114. D(C  11,C   9,C   6,H   7)   -135.9661         0.012486   
    115. D(C  11,C   9,C   6,N   5)    104.8580         0.012486   
    116. D(C  10,C   9,C   6,H   8)    167.0049         0.012486   
    117. D(C  10,C   9,C   6,H   7)     46.9114         0.012486   
    118. D(C  10,C   9,C   6,N   5)    -72.2646         0.012486   
    119. D(H  13,C  10,C   9,C   6)     -2.8603         0.024331   
    120. D(C  12,C  10,C   9,C  11)     -0.3620         0.024331   
    121. D(C  12,C  10,C   9,C   6)    176.8194         0.024331   
    122. D(H  13,C  10,C   9,C  11)    179.9583         0.024331   
    123. D(H  15,C  11,C   9,C  10)   -178.5865         0.025139   
    124. D(C  14,C  11,C   9,C  10)      0.4081         0.025139   
    125. D(C  14,C  11,C   9,C   6)   -176.7094         0.025139   
    126. D(H  15,C  11,C   9,C   6)      4.2960         0.025139   
    127. D(C  16,C  12,C  10,C   9)     -0.1374         0.026194   
    128. D(H  17,C  12,C  10,H  13)     -0.6344         0.026194   
    129. D(H  17,C  12,C  10,C   9)    179.6932         0.026194   
    130. D(C  16,C  12,C  10,H  13)    179.5351         0.026194   
    131. D(H  18,C  14,C  11,H  15)     -0.8797         0.025394   
    132. D(H  18,C  14,C  11,C   9)   -179.8722         0.025394   
    133. D(C  16,C  14,C  11,H  15)    179.0388         0.025394   
    134. D(C  16,C  14,C  11,C   9)      0.0464         0.025394   
    135. D(H  19,C  16,C  14,H  18)     -0.0059         0.025930   
    136. D(H  19,C  16,C  14,C  11)   -179.9243         0.025930   
    137. D(C  12,C  16,C  14,H  18)    179.3702         0.025930   
    138. D(C  12,C  16,C  14,C  11)     -0.5481         0.025930   
    139. D(H  19,C  16,C  12,H  17)      0.1405         0.025054   
    140. D(H  19,C  16,C  12,C  10)    179.9708         0.025054   
    141. D(C  14,C  16,C  12,H  17)   -179.2356         0.025054   
    142. D(C  14,C  16,C  12,C  10)      0.5947         0.025054   
    143. D(C  23,C  20,N   5,C   6)    151.2722         0.016001   
    144. D(C  23,C  20,N   5,C   4)    -44.9660         0.016001   
    145. D(H  22,C  20,N   5,C   6)     30.0604         0.016001   
    146. D(H  22,C  20,N   5,C   4)   -166.1777         0.016001   
    147. D(H  21,C  20,N   5,C   6)    -87.2017         0.016001   
    148. D(H  21,C  20,N   5,C   4)     76.5601         0.016001   
    149. D(O  25,C  23,C  20,H  22)   -113.9874         0.010425   
    150. D(O  25,C  23,C  20,H  21)      0.4780         0.010425   
    151. D(O  25,C  23,C  20,N   5)    125.5372         0.010425   
    152. D(N  24,C  23,C  20,H  22)     64.2673         0.010425   
    153. D(N  24,C  23,C  20,H  21)    178.7328         0.010425   
    154. D(N  24,C  23,C  20,N   5)    -56.2080         0.010425   
    155. D(C  31,N  24,C  23,O  25)     -6.2665         0.030594   
    156. D(C  31,N  24,C  23,C  20)    175.5584         0.030594   
    157. D(C  27,N  24,C  23,O  25)    176.5941         0.030594   
    158. D(C  27,N  24,C  23,C  20)     -1.5809         0.030594   
    159. D(H  28,C  27,N  24,C  23)     99.0325         0.016614   
    160. D(H  30,C  27,N  24,C  31)    160.3400         0.016614   
    161. D(H  30,C  27,N  24,C  23)    -22.4493         0.016614   
    162. D(H  29,C  27,N  24,C  31)     41.2622         0.016614   
    163. D(H  29,C  27,N  24,C  23)   -141.5271         0.016614   
    164. D(H  28,C  27,N  24,C  31)    -78.1782         0.016614   
    165. D(H  34,C  31,N  24,C  27)    175.6413         0.016505   
    166. D(H  34,C  31,N  24,C  23)     -1.7709         0.016505   
    167. D(H  33,C  31,N  24,C  27)     55.3799         0.016505   
    168. D(H  33,C  31,N  24,C  23)   -122.0323         0.016505   
    169. D(H  32,C  31,N  24,C  27)    -64.4403         0.016505   
    170. D(H  32,C  31,N  24,C  23)    118.1475         0.016505   
    -----------------------------------------------------------------

Number of atoms                         .... 35
Number of degrees of freedom            .... 170

         *************************************************************
         *                GEOMETRY OPTIMIZATION CYCLE   1            *
         *************************************************************
---------------------------------
CARTESIAN COORDINATES (ANGSTROEM)
---------------------------------
  C      2.559000    1.706000   -0.728000
  H      3.159000    1.607000    0.178000
  H      2.888000    2.572000   -1.303000
  H      2.716000    0.808000   -1.331000
  C      1.086000    1.907000   -0.446000
  N      0.500000    1.138000    0.538000
  C     -0.833000    1.550000    1.005000
  H     -0.997000    2.567000    0.641000
  H     -0.819000    1.573000    2.103000
  C     -1.914000    0.629000    0.509000
  C     -2.278000    0.668000   -0.846000
  C     -2.521000   -0.305000    1.356000
  C     -3.230000   -0.222000   -1.341000
  H     -1.801000    1.398000   -1.496000
  C     -3.475000   -1.198000    0.859000
  H     -2.259000   -0.324000    2.413000
  C     -3.826000   -1.161000   -0.491000
  H     -3.512000   -0.184000   -2.391000
  H     -3.943000   -1.919000    1.525000
  H     -4.569000   -1.854000   -0.880000
  C      1.196000    0.176000    1.387000
  H      1.772000    0.671000    2.179000
  H      0.421000   -0.431000    1.872000
  C      2.188000   -0.775000    0.714000
  N      1.743000   -1.559000   -0.310000
  O      3.348000   -0.823000    1.143000
  O      0.421000    2.728000   -1.090000
  C      0.378000   -1.599000   -0.811000
  H      0.261000   -0.988000   -1.714000
  H      0.135000   -2.638000   -1.058000
  H     -0.330000   -1.250000   -0.066000
  C      2.703000   -2.393000   -1.018000
  H      2.443000   -3.450000   -0.904000
  H      2.699000   -2.143000   -2.085000
  H      3.690000   -2.213000   -0.597000

----------------------------
CARTESIAN COORDINATES (A.U.)
----------------------------
  NO LB      ZA    FRAG     MASS         X           Y           Z
   0 C     6.0000    0    12.011    4.835809    3.223873   -1.375721
   1 H     1.0000    0     1.008    5.969645    3.036790    0.336371
   2 H     1.0000    0     1.008    5.457529    4.860376   -2.462313
   3 H     1.0000    0     1.008    5.132496    1.526899   -2.515225
   4 C     6.0000    0    12.011    2.052243    3.603708   -0.842818
   5 N     7.0000    0    14.007    0.944863    2.150508    1.016673
   6 C     6.0000    0    12.011   -1.574142    2.929076    1.899175
   7 H     1.0000    0     1.008   -1.884057    4.850927    1.211314
   8 H     1.0000    0     1.008   -1.547686    2.972539    3.974094
   9 C     6.0000    0    12.011   -3.616936    1.188638    0.961871
  10 C     6.0000    0    12.011   -4.304796    1.262337   -1.598708
  11 C     6.0000    0    12.011   -4.764000   -0.576366    2.562469
  12 C     6.0000    0    12.011   -6.103815   -0.419519   -2.534123
  13 H     1.0000    0     1.008   -3.403397    2.641837   -2.827030
  14 C     6.0000    0    12.011   -6.566798   -2.263892    1.623275
  15 H     1.0000    0     1.008   -4.268891   -0.612271    4.559909
  16 C     6.0000    0    12.011   -7.230092   -2.193972   -0.927856
  17 H     1.0000    0     1.008   -6.636718   -0.347710   -4.518335
  18 H     1.0000    0     1.008   -7.451190   -3.626384    2.881832
  19 H     1.0000    0     1.008   -8.634159   -3.503552   -1.662959
  20 C     6.0000    0    12.011    2.260112    0.332592    2.621050
  21 H     1.0000    0     1.008    3.348595    1.268006    4.117713
  22 H     1.0000    0     1.008    0.795575   -0.814472    3.537567
  23 C     6.0000    0    12.011    4.134721   -1.464538    1.349264
  24 N     7.0000    0    14.007    3.293793   -2.946083   -0.585815
  25 O     8.0000    0    15.999    6.326803   -1.555245    2.159957
  26 O     8.0000    0    15.999    0.795575    5.155173   -2.059801
  27 C     6.0000    0    12.011    0.714316   -3.021672   -1.532568
  28 H     1.0000    0     1.008    0.493219   -1.867049   -3.238991
  29 H     1.0000    0     1.008    0.255113   -4.985098   -1.999330
  30 H     1.0000    0     1.008   -0.623610   -2.362158   -0.124722
  31 C     6.0000    0    12.011    5.107930   -4.522115   -1.923741
  32 H     1.0000    0     1.008    4.616601   -6.519555   -1.708312
  33 H     1.0000    0     1.008    5.100371   -4.049683   -3.940079
  34 H     1.0000    0     1.008    6.973089   -4.181964   -1.128167

--------------------------------
INTERNAL COORDINATES (ANGSTROEM)
--------------------------------
 C      0   0   0     0.000000000000     0.00000000     0.00000000
 H      1   0   0     1.091163140873     0.00000000     0.00000000
 H      1   2   0     1.090331142360   110.12164469     0.00000000
 H      1   2   3     1.093005946919   107.73084634   118.22931273
 C      1   2   3     1.513160269106   113.11574556   240.77994853
 N      5   1   2     1.379497372234   118.19047755   317.19391802
 C      6   5   1     1.471299425678   117.07588964   166.55617893
 H      7   6   5     1.092557092330   106.91230990   345.61670396
 H      7   6   5     1.098330096100   108.15728444   229.08177613
 C      7   6   5     1.504266598712   112.02233100   106.95375608
 C     10   7   6     1.403581846563   119.18747256   287.73544681
 C     10   7   6     1.399361997483   121.38522659   104.85795163
 C     11  10   7     1.394069223532   120.14203995   176.81943956
 H     11  10   7     1.087625395069   118.80688245   357.13971770
 C     12  10   7     1.398060799822   120.47404973   183.29063612
 H     12  10   7     1.089152881831   119.65037030     4.29600457
 C     15  12  10     1.395374501702   119.91029821     0.04636958
 H     13  11  10     1.087873154370   119.83039163   179.69318874
 H     15  12  10     1.087391833701   119.96532358   180.12784929
 H     17  15  12     1.087942553630   120.05485511   180.07568843
 C      6   5   1     1.459678389235   125.43087799     3.01002430
 H     21   6   5     1.097298956529   111.88836241    76.56014751
 H     21   6   5     1.097405576804   106.55023354   193.82225868
 C     21   6   5     1.530161429392   117.57467828   315.03402612
 N     24  21   6     1.364278930424   118.41243750   303.79197332
 O     24  21   6     1.237717657626   118.63628078   125.53723513
 O      5   1   2     1.237336655886   120.95210261   137.97935763
 C     25  24  21     1.454587914153   125.47961394   358.41910097
 H     28  25  24     1.096548676530   111.61930315    99.03245152
 H     28  25  24     1.095252938823   108.17759788   218.47292545
 H     28  25  24     1.085398544314   111.52262738   337.55066837
 C     25  24  21     1.455479302498   118.63679082   175.55840646
 H     32  25  24     1.094461054583   110.24515035   118.14753850
 H     32  25  24     1.095903736648   109.90643417   237.96774148
 H     32  25  24     1.088030330460   108.37973166   358.22912165

---------------------------
INTERNAL COORDINATES (A.U.)
---------------------------
 C      0   0   0     0.000000000000     0.00000000     0.00000000
 H      1   0   0     2.061999503679     0.00000000     0.00000000
 H      1   2   0     2.060427254346   110.12164469     0.00000000
 H      1   2   3     2.065481902424   107.73084634   118.22931273
 C      1   2   3     2.859458505340   113.11574556   240.77994853
 N      5   1   2     2.606872235986   118.19047755   317.19391802
 C      6   5   1     2.780352975527   117.07588964   166.55617893
 H      7   6   5     2.064633690177   106.91230990   345.61670396
 H      7   6   5     2.075543086273   108.15728444   229.08177613
 C      7   6   5     2.842651903971   112.02233100   106.95375608
 C     10   7   6     2.652385296547   119.18747256   287.73544681
 C     10   7   6     2.644410937460   121.38522659   104.85795163
 C     11  10   7     2.634409044204   120.14203995   176.81943956
 H     11  10   7     2.055314132979   118.80688245   357.13971770
 C     12  10   7     2.641952030235   120.47404973   183.29063612
 H     12  10   7     2.058200664631   119.65037030     4.29600457
 C     15  12  10     2.636875662474   119.91029821     0.04636958
 H     13  11  10     2.055782330205   119.83039163   179.69318874
 H     15  12  10     2.054872765958   119.96532358   180.12784929
 H     17  15  12     2.055913475801   120.05485511   180.07568843
 C      6   5   1     2.758392399258   125.43087799     3.01002430
 H     21   6   5     2.073594514878   111.88836241    76.56014751
 H     21   6   5     2.073795997997   106.55023354   193.82225868
 C     21   6   5     2.891586042241   117.57467828   315.03402612
 N     24  21   6     2.578113548781   118.41243750   303.79197332
 O     24  21   6     2.338947404032   118.63628078   125.53723513
 O      5   1   2     2.338227415087   120.95210261   137.97935763
 C     25  24  21     2.748772795461   125.47961394   358.41910097
 H     28  25  24     2.072176691156   111.61930315    99.03245152
 H     28  25  24     2.069728101748   108.17759788   218.47292545
 H     28  25  24     2.051105994911   111.52262738   337.55066837
 C     25  24  21     2.750457275312   118.63679082   175.55840646
 H     32  25  24     2.068231657405   110.24515035   118.14753850
 H     32  25  24     2.070957931406   109.90643417   237.96774148
 H     32  25  24     2.056079349968   108.37973166   358.22912165

---------------------
BASIS SET INFORMATION
---------------------
There are 4 groups of distinct atoms

 Group   1 Type C   : 10s4p1d contracted to 3s2p1d pattern {631/31/1}
 Group   2 Type H   : 4s contracted to 2s pattern {31}
 Group   3 Type N   : 10s4p1d contracted to 3s2p1d pattern {631/31/1}
 Group   4 Type O   : 10s4p1d contracted to 3s2p1d pattern {631/31/1}

Atom   0C    basis set group =>   1
Atom   1H    basis set group =>   2
Atom   2H    basis set group =>   2
Atom   3H    basis set group =>   2
Atom   4C    basis set group =>   1
Atom   5N    basis set group =>   3
Atom   6C    basis set group =>   1
Atom   7H    basis set group =>   2
Atom   8H    basis set group =>   2
Atom   9C    basis set group =>   1
Atom  10C    basis set group =>   1
Atom  11C    basis set group =>   1
Atom  12C    basis set group =>   1
Atom  13H    basis set group =>   2
Atom  14C    basis set group =>   1
Atom  15H    basis set group =>   2
Atom  16C    basis set group =>   1
Atom  17H    basis set group =>   2
Atom  18H    basis set group =>   2
Atom  19H    basis set group =>   2
Atom  20C    basis set group =>   1
Atom  21H    basis set group =>   2
Atom  22H    basis set group =>   2
Atom  23C    basis set group =>   1
Atom  24N    basis set group =>   3
Atom  25O    basis set group =>   4
Atom  26O    basis set group =>   4
Atom  27C    basis set group =>   1
Atom  28H    basis set group =>   2
Atom  29H    basis set group =>   2
Atom  30H    basis set group =>   2
Atom  31C    basis set group =>   1
Atom  32H    basis set group =>   2
Atom  33H    basis set group =>   2
Atom  34H    basis set group =>   2
---------------------------------
AUXILIARY/J BASIS SET INFORMATION
---------------------------------
There are 4 groups of distinct atoms

 Group   1 Type C   : 13s11p10d2f contracted to 13s11p10d2f pattern {1111111111111/11111111111/1111111111/11}
 Group   2 Type H   : 9s2p contracted to 9s2p pattern {111111111/11}
 Group   3 Type N   : 14s11p10d2f contracted to 14s11p10d2f pattern {11111111111111/11111111111/1111111111/11}
 Group   4 Type O   : 14s11p10d2f contracted to 14s11p10d2f pattern {11111111111111/11111111111/1111111111/11}

Atom   0C    basis set group =>   1
Atom   1H    basis set group =>   2
Atom   2H    basis set group =>   2
Atom   3H    basis set group =>   2
Atom   4C    basis set group =>   1
Atom   5N    basis set group =>   3
Atom   6C    basis set group =>   1
Atom   7H    basis set group =>   2
Atom   8H    basis set group =>   2
Atom   9C    basis set group =>   1
Atom  10C    basis set group =>   1
Atom  11C    basis set group =>   1
Atom  12C    basis set group =>   1
Atom  13H    basis set group =>   2
Atom  14C    basis set group =>   1
Atom  15H    basis set group =>   2
Atom  16C    basis set group =>   1
Atom  17H    basis set group =>   2
Atom  18H    basis set group =>   2
Atom  19H    basis set group =>   2
Atom  20C    basis set group =>   1
Atom  21H    basis set group =>   2
Atom  22H    basis set group =>   2
Atom  23C    basis set group =>   1
Atom  24N    basis set group =>   3
Atom  25O    basis set group =>   4
Atom  26O    basis set group =>   4
Atom  27C    basis set group =>   1
Atom  28H    basis set group =>   2
Atom  29H    basis set group =>   2
Atom  30H    basis set group =>   2
Atom  31C    basis set group =>   1
Atom  32H    basis set group =>   2
Atom  33H    basis set group =>   2
Atom  34H    basis set group =>   2
---------------------------------
AUXILIARY/C BASIS SET INFORMATION
---------------------------------
There are 4 groups of distinct atoms

 Group   1 Type C   : 13s11p10d2f contracted to 13s11p10d2f pattern {1111111111111/11111111111/1111111111/11}
 Group   2 Type H   : 9s2p contracted to 9s2p pattern {111111111/11}
 Group   3 Type N   : 14s11p10d2f contracted to 14s11p10d2f pattern {11111111111111/11111111111/1111111111/11}
 Group   4 Type O   : 14s11p10d2f contracted to 14s11p10d2f pattern {11111111111111/11111111111/1111111111/11}

Atom   0C    basis set group =>   1
Atom   1H    basis set group =>   2
Atom   2H    basis set group =>   2
Atom   3H    basis set group =>   2
Atom   4C    basis set group =>   1
Atom   5N    basis set group =>   3
Atom   6C    basis set group =>   1
Atom   7H    basis set group =>   2
Atom   8H    basis set group =>   2
Atom   9C    basis set group =>   1
Atom  10C    basis set group =>   1
Atom  11C    basis set group =>   1
Atom  12C    basis set group =>   1
Atom  13H    basis set group =>   2
Atom  14C    basis set group =>   1
Atom  15H    basis set group =>   2
Atom  16C    basis set group =>   1
Atom  17H    basis set group =>   2
Atom  18H    basis set group =>   2
Atom  19H    basis set group =>   2
Atom  20C    basis set group =>   1
Atom  21H    basis set group =>   2
Atom  22H    basis set group =>   2
Atom  23C    basis set group =>   1
Atom  24N    basis set group =>   3
Atom  25O    basis set group =>   4
Atom  26O    basis set group =>   4
Atom  27C    basis set group =>   1
Atom  28H    basis set group =>   2
Atom  29H    basis set group =>   2
Atom  30H    basis set group =>   2
Atom  31C    basis set group =>   1
Atom  32H    basis set group =>   2
Atom  33H    basis set group =>   2
Atom  34H    basis set group =>   2
----------------------------------
AUXILIARY/JK BASIS SET INFORMATION
----------------------------------
There are 4 groups of distinct atoms

 Group   1 Type C   : 13s11p10d2f contracted to 13s11p10d2f pattern {1111111111111/11111111111/1111111111/11}
 Group   2 Type H   : 9s2p contracted to 9s2p pattern {111111111/11}
 Group   3 Type N   : 14s11p10d2f contracted to 14s11p10d2f pattern {11111111111111/11111111111/1111111111/11}
 Group   4 Type O   : 14s11p10d2f contracted to 14s11p10d2f pattern {11111111111111/11111111111/1111111111/11}

Atom   0C    basis set group =>   1
Atom   1H    basis set group =>   2
Atom   2H    basis set group =>   2
Atom   3H    basis set group =>   2
Atom   4C    basis set group =>   1
Atom   5N    basis set group =>   3
Atom   6C    basis set group =>   1
Atom   7H    basis set group =>   2
Atom   8H    basis set group =>   2
Atom   9C    basis set group =>   1
Atom  10C    basis set group =>   1
Atom  11C    basis set group =>   1
Atom  12C    basis set group =>   1
Atom  13H    basis set group =>   2
Atom  14C    basis set group =>   1
Atom  15H    basis set group =>   2
Atom  16C    basis set group =>   1
Atom  17H    basis set group =>   2
Atom  18H    basis set group =>   2
Atom  19H    basis set group =>   2
Atom  20C    basis set group =>   1
Atom  21H    basis set group =>   2
Atom  22H    basis set group =>   2
Atom  23C    basis set group =>   1
Atom  24N    basis set group =>   3
Atom  25O    basis set group =>   4
Atom  26O    basis set group =>   4
Atom  27C    basis set group =>   1
Atom  28H    basis set group =>   2
Atom  29H    basis set group =>   2
Atom  30H    basis set group =>   2
Atom  31C    basis set group =>   1
Atom  32H    basis set group =>   2
Atom  33H    basis set group =>   2
Atom  34H    basis set group =>   2


           ************************************************************
           *        Program running with 4 parallel MPI-processes     *
           *              working on a common directory               *
           ************************************************************
------------------------------------------------------------------------------
                           ORCA GTO INTEGRAL CALCULATION
                           -- RI-GTO INTEGRALS CHOSEN --
------------------------------------------------------------------------------
------------------------------------------------------------------------------
                   ___                                                        
                  /   \      - P O W E R E D   B Y -                         
                 /     \                                                     
                 |  |  |   _    _      __       _____    __    __             
                 |  |  |  | |  | |    /  \     |  _  \  |  |  /  |          
                  \  \/   | |  | |   /    \    | | | |  |  | /  /          
                 / \  \   | |__| |  /  /\  \   | |_| |  |  |/  /          
                |  |  |   |  __  | /  /__\  \  |    /   |      \           
                |  |  |   | |  | | |   __   |  |    \   |  |\   \          
                \     /   | |  | | |  |  |  |  | |\  \  |  | \   \       
                 \___/    |_|  |_| |__|  |__|  |_| \__\ |__|  \__/        
                                                                              
                      - O R C A' S   B I G   F R I E N D -                    
                                      &                                       
                       - I N T E G R A L  F E E D E R -                       
                                                                              
 v1 FN, 2020, v2 2021                                                         
------------------------------------------------------------------------------


Reading SHARK input file Nf_water.SHARKINP.tmp ... ok
----------------------
SHARK INTEGRAL PACKAGE
----------------------

Number of atoms                             ...     35
Number of basis functions                   ...    274
Number of shells                            ...    138
Maximum angular momentum                    ...      2
Integral batch strategy                     ... SHARK/LIBINT Hybrid
RI-J (if used) integral strategy            ... SPLIT-RIJ (Revised 2003 algorithm where possible)
Printlevel                                  ...      1
Contraction scheme used                     ... SEGMENTED contraction
Coulomb Range Separation                    ... NOT USED
Exchange Range Separation                   ... NOT USED
Finite Nucleus Model                        ... NOT USED
Auxiliary Coulomb fitting basis             ... AVAILABLE
   # of basis functions in Aux-J            ...   2144
   # of shells in Aux-J                     ...    814
   Maximum angular momentum in Aux-J        ...      3
Auxiliary J/K fitting basis                 ... AVAILABLE
   # of basis functions in Aux-JK           ...   2144
   # of shells in Aux-JK                    ...    814
   Maximum angular momentum in Aux-JK       ...      3
Auxiliary Correlation fitting basis         ... AVAILABLE
   # of basis functions in Aux-C            ...   2144
   # of shells in Aux-C                     ...    814
   Maximum angular momentum in Aux-C        ...      3
Auxiliary 'external' fitting basis          ... NOT available
Integral threshold                          ...     2.500000e-11
Primitive cut-off                           ...     2.500000e-12
Primitive pair pre-selection threshold      ...     2.500000e-12

Calculating pre-screening integrals         ... done (  0.0 sec) Dimension = 138
Organizing shell pair data                  ... done (  0.1 sec)
Shell pair information
Total number of shell pairs                 ...      9591
Shell pairs after pre-screening             ...      8097
Total number of primitive shell pairs       ...     54039
Primitive shell pairs kept                  ...     26184
          la=0 lb=0:   3120 shell pairs
          la=1 lb=0:   2641 shell pairs
          la=1 lb=1:    562 shell pairs
          la=2 lb=0:   1149 shell pairs
          la=2 lb=1:    509 shell pairs
          la=2 lb=2:    116 shell pairs

Calculating one electron integrals          ... done (  0.0 sec)
Calculating RI/J V-Matrix + Cholesky decomp.... done (  0.3 sec)
Calculating RI/JK V-Matrix + Cholesky decomp... done (  0.3 sec)
Calculating RI/C V-Matrix + Cholesky decomp.... done (  0.3 sec)
Calculating Nuclear repulsion               ... done (  0.0 sec) ENN=   1258.987295222278 Eh

SHARK setup successfully completed in   1.5 seconds

Maximum memory used throughout the entire GTOINT-calculation: 40.0 MB


           ************************************************************
           *        Program running with 4 parallel MPI-processes     *
           *              working on a common directory               *
           ************************************************************
-------------------------------------------------------------------------------
                                 ORCA SCF
-------------------------------------------------------------------------------

------------
SCF SETTINGS
------------
Hamiltonian:
 Density Functional     Method          .... DFT(GTOs)
 Exchange Functional    Exchange        .... B88
   X-Alpha parameter    XAlpha          ....  0.666667
   Becke's b parameter  XBeta           ....  0.004200
 Correlation Functional Correlation     .... LYP
 LDA part of GGA corr.  LDAOpt          .... VWN-5
 Gradients option       PostSCFGGA      .... off
 Hybrid DFT is turned on
   Fraction HF Exchange ScalHFX         ....  0.200000
   Scaling of DF-GGA-X  ScalDFX         ....  0.720000
   Scaling of DF-GGA-C  ScalDFC         ....  0.810000
   Scaling of DF-LDA-C  ScalLDAC        ....  1.000000
   Perturbative correction              ....  0.000000
   Density functional embedding theory  .... OFF
   NL short-range parameter             ....  4.800000
 RI-approximation to the Coulomb term is turned on
   Number of AuxJ basis functions       .... 2144
   RIJ-COSX (HFX calculated with COS-X)).... on


General Settings:
 Integral files         IntName         .... Nf_water
 Hartree-Fock type      HFTyp           .... RHF
 Total Charge           Charge          ....    0
 Multiplicity           Mult            ....    1
 Number of Electrons    NEL             ....  126
 Basis Dimension        Dim             ....  274
 Nuclear Repulsion      ENuc            ....   1258.9872952223 Eh

Convergence Acceleration:
 DIIS                   CNVDIIS         .... on
   Start iteration      DIISMaxIt       ....    12
   Startup error        DIISStart       ....  0.200000
   # of expansion vecs  DIISMaxEq       ....     5
   Bias factor          DIISBfac        ....   1.050
   Max. coefficient     DIISMaxC        ....  10.000
 Trust-Rad. Augm. Hess. CNVTRAH         .... auto
   Auto Start mean grad. ratio tolernc. ....  1.125000
   Auto Start start iteration           ....    20
   Auto Start num. interpolation iter.  ....    10
   Max. Number of Micro iterations      ....    16
   Max. Number of Macro iterations      .... Maxiter - #DIIS iter
   Number of Davidson start vectors     ....     2
   Converg. threshold I  (grad. norm)   ....   1.000e-05
   Converg. threshold II (energy diff.) ....   1.000e-08
   Grad. Scal. Fac. for Micro threshold ....   0.100
   Minimum threshold for Micro iter.    ....   0.010
   NR start threshold (gradient norm)   ....   0.001
   Initial trust radius                 ....   0.400
   Minimum AH scaling param. (alpha)    ....   1.000
   Maximum AH scaling param. (alpha)    .... 1000.000
   Orbital update algorithm             .... Taylor
   White noise on init. David. guess    .... on
   Maximum white noise                  ....   0.010
   Quad. conv. algorithm                .... NR
 SOSCF                  CNVSOSCF        .... on
   Start iteration      SOSCFMaxIt      ....   150
   Startup grad/error   SOSCFStart      ....  0.003300
 Level Shifting         CNVShift        .... on
   Level shift para.    LevelShift      ....    0.2500
   Turn off err/grad.   ShiftErr        ....    0.0010
 Zerner damping         CNVZerner       .... off
 Static damping         CNVDamp         .... on
   Fraction old density DampFac         ....    0.7000
   Max. Damping (<1)    DampMax         ....    0.9800
   Min. Damping (>=0)   DampMin         ....    0.0000
   Turn off err/grad.   DampErr         ....    0.1000
 Fernandez-Rico         CNVRico         .... off

SCF Procedure:
 Maximum # iterations   MaxIter         ....   125
 SCF integral mode      SCFMode         .... Direct
   Integral package                     .... SHARK and LIBINT hybrid scheme
 Reset frequency        DirectResetFreq ....    20
 Integral Threshold     Thresh          ....  2.500e-11 Eh
 Primitive CutOff       TCut            ....  2.500e-12 Eh

Convergence Tolerance:
 Convergence Check Mode ConvCheckMode   .... Total+1el-Energy
 Convergence forced     ConvForced      .... 0
 Energy Change          TolE            ....  1.000e-08 Eh
 1-El. energy change                    ....  1.000e-05 Eh
 Orbital Gradient       TolG            ....  1.000e-05
 Orbital Rotation angle TolX            ....  1.000e-05
 DIIS Error             TolErr          ....  5.000e-07


Diagonalization of the overlap matrix:
Smallest eigenvalue                        ... 4.849e-04
Time for diagonalization                   ...    0.224 sec
Threshold for overlap eigenvalues          ... 1.000e-08
Number of eigenvalues below threshold      ... 0
Time for construction of square roots      ...    0.009 sec
Total time needed                          ...    0.234 sec

Time for model grid setup =    0.490 sec

------------------------------
INITIAL GUESS: MODEL POTENTIAL
------------------------------
Loading Hartree-Fock densities                     ... done
Calculating cut-offs                               ... done
Initializing the effective Hamiltonian             ... done
Setting up the integral package (SHARK)            ... done
Starting the Coulomb interaction                   ... done (   0.4 sec)
Reading the grid                                   ... done
Mapping shells                                     ... done
Starting the XC term evaluation                    ... done (   0.2 sec)
  promolecular density results
     # of electrons  =    125.982678171
     EX              =   -101.738778961
     EC              =     -4.252777522
     EX+EC           =   -105.991556483
Transforming the Hamiltonian                       ... done (   0.0 sec)
Diagonalizing the Hamiltonian                      ... done (   0.0 sec)
Back transforming the eigenvectors                 ... done (   0.0 sec)
Now organizing SCF variables                       ... done
                      ------------------
                      INITIAL GUESS DONE (   2.3 sec)
                      ------------------
-------------------
DFT GRID GENERATION
-------------------

General Integration Accuracy     IntAcc      ... 4.388
Radial Grid Type                 RadialGrid  ... OptM3 with GC (2021)
Angular Grid (max. ang.)         AngularGrid ... 4 (Lebedev-302)
Angular grid pruning method      GridPruning ... 4 (adaptive)
Weight generation scheme         WeightScheme... Becke
Basis function cutoff            BFCut       ... 1.0000e-11
Integration weight cutoff        WCut        ... 1.0000e-14
Angular grids for H and He will be reduced by one unit
Partially contracted basis set               ... off
Rotationally invariant grid construction     ... off

Total number of grid points                  ...   158601
Total number of batches                      ...     2495
Average number of points per batch           ...       63
Average number of grid points per atom       ...     4531
Time for grid setup =    1.247 sec

--------------------
COSX GRID GENERATION
--------------------

GRIDX 1
-------
General Integration Accuracy     IntAcc      ... 3.816
Radial Grid Type                 RadialGrid  ... OptM3 with GC (2021)
Angular Grid (max. ang.)         AngularGrid ... 1 (Lebedev-50)
Angular grid pruning method      GridPruning ... 4 (adaptive)
Weight generation scheme         WeightScheme... Becke
Basis function cutoff            BFCut       ... 1.0000e-11
Integration weight cutoff        WCut        ... 1.0000e-14
Angular grids for H and He will be reduced by one unit
Partially contracted basis set               ... on
Rotationally invariant grid construction     ... off

Total number of grid points                  ...    20202
Total number of batches                      ...      334
Average number of points per batch           ...       60
Average number of grid points per atom       ...      577
UseSFitting                                  ... on

GRIDX 2
-------
General Integration Accuracy     IntAcc      ... 4.020
Radial Grid Type                 RadialGrid  ... OptM3 with GC (2021)
Angular Grid (max. ang.)         AngularGrid ... 2 (Lebedev-110)
Angular grid pruning method      GridPruning ... 4 (adaptive)
Weight generation scheme         WeightScheme... Becke
Basis function cutoff            BFCut       ... 1.0000e-11
Integration weight cutoff        WCut        ... 1.0000e-14
Angular grids for H and He will be reduced by one unit
Partially contracted basis set               ... on
Rotationally invariant grid construction     ... off

Total number of grid points                  ...    43066
Total number of batches                      ...      691
Average number of points per batch           ...       62
Average number of grid points per atom       ...     1230
UseSFitting                                  ... on

GRIDX 3
-------
General Integration Accuracy     IntAcc      ... 4.338
Radial Grid Type                 RadialGrid  ... OptM3 with GC (2021)
Angular Grid (max. ang.)         AngularGrid ... 3 (Lebedev-194)
Angular grid pruning method      GridPruning ... 4 (adaptive)
Weight generation scheme         WeightScheme... Becke
Basis function cutoff            BFCut       ... 1.0000e-11
Integration weight cutoff        WCut        ... 1.0000e-14
Angular grids for H and He will be reduced by one unit
Partially contracted basis set               ... on
Rotationally invariant grid construction     ... off

Total number of grid points                  ...    93799
Total number of batches                      ...     1486
Average number of points per batch           ...       63
Average number of grid points per atom       ...     2680
UseSFitting                                  ... on

Time for X-Grid setup             =    1.789 sec


--------------------
CPCM SOLVATION MODEL
--------------------
CPCM parameters:
  Epsilon                                         ...      80.4000
  Refrac                                          ...       1.3300
  Rsolv                                           ...       1.3000
  Surface type                                    ... GAUSSIAN VDW
  Epsilon function type                           ...         CPCM
Radii:
 Radius for C  used is    3.8550 Bohr (=   2.0400 Ang.)
 Radius for H  used is    2.4944 Bohr (=   1.3200 Ang.)
 Radius for N  used is    3.5149 Bohr (=   1.8600 Ang.)
 Radius for O  used is    3.4469 Bohr (=   1.8240 Ang.)
Calculating surface                               ...        done! (  0.0s)
GEPOL surface points                              ...         1804
GEPOL Volume                                      ...    1981.0268
GEPOL Surface-area                                ...    1001.9437
Calculating surface distance matrix               ...        done! (  0.0s)
Performing Cholesky decomposition & store         ...        done! (  0.1s)
Overall time for CPCM initialization              ...                 0.1s
--------------
SCF ITERATIONS
--------------
ITER       Energy         Delta-E        Max-DP      RMS-DP      [F,P]     Damp
               ***  Starting incremental Fock matrix formation  ***
  0   -765.2734579712   0.000000000000 0.09352133  0.00190885  0.2746523 0.7000
  1   -765.4821063204  -0.208648349193 0.05159334  0.00127938  0.1096389 0.7000
                               ***Turning on DIIS***
  2   -765.5650335755  -0.082927255092 0.06494561  0.00202842  0.0393082 0.0000
  3   -765.6979550800  -0.132921504432 0.03643695  0.00087903  0.0542720 0.0000
  4   -765.7241063008  -0.026151220845 0.00889976  0.00028722  0.0130894 0.0000
  5   -765.7260077508  -0.001901450035 0.00344439  0.00008849  0.0053868 0.0000
                      *** Initiating the SOSCF procedure ***
                           *** Shutting down DIIS ***
                      *** Re-Reading the Fockian *** 
                      *** Removing any level shift *** 
ITER      Energy       Delta-E        Grad      Rot      Max-DP    RMS-DP
  6   -765.72612571  -0.0001179639  0.000228  0.000228  0.001367  0.000040
               *** Restarting incremental Fock matrix formation ***
  7   -765.72616539  -0.0000396800  0.000268  0.001051  0.001817  0.000025
  8   -765.72615810   0.0000072959  0.000514  0.000721  0.001170  0.000017
  9   -765.72616910  -0.0000109963  0.000068  0.000186  0.000327  0.000006
 10   -765.72616869   0.0000004003  0.000133  0.000122  0.000222  0.000004
 11   -765.72616922  -0.0000005224  0.000003  0.000005  0.000028  0.000001
 12   -765.72616921   0.0000000042  0.000004  0.000004  0.000015  0.000000
                  ***Gradient check signals convergence***
              ***Rediagonalizing the Fockian in SOSCF/NRSCF***

               *****************************************************
               *                     SUCCESS                       *
               *           SCF CONVERGED AFTER  13 CYCLES          *
               *****************************************************

Old exchange energy                            =    -20.719512711 Eh
New exchange energy                            =    -20.719532166 Eh
Exchange energy change after final integration =     -0.000019455 Eh
Total energy after final integration           =   -765.726188667 Eh
Final COS-X integration done in                =    13.016 sec

----------------
TOTAL SCF ENERGY
----------------

Total Energy       :         -765.72618867 Eh          -20836.46890 eV

Components:
Nuclear Repulsion  :         1258.98729522 Eh           34258.78599 eV
Electronic Energy  :        -2024.71348389 Eh          -55095.25489 eV
One Electron Energy:        -3540.24803486 Eh          -96335.04661 eV
Two Electron Energy:         1515.53455097 Eh           41239.79172 eV
Max COSX asymmetry :            0.00000237 Eh               0.00006 eV
CPCM Dielectric    :           -0.02106637 Eh              -0.57325 eV

Virial components:
Potential Energy   :        -1526.93713746 Eh          -41550.07188 eV
Kinetic Energy     :          761.21094879 Eh           20713.60298 eV
Virial Ratio       :            2.00593165


DFT components:
N(Alpha)           :       63.000162528524 electrons
N(Beta)            :       63.000162528524 electrons
N(Total)           :      126.000325057047 electrons
E(X)               :      -82.267612640342 Eh       
E(C)               :       -5.012009223458 Eh       
E(XC)              :      -87.279621863799 Eh       
DFET-embed. en.    :        0.000000000000 Eh       
CPCM Solvation Model Properties:
Surface-charge          :           -0.02106054
Charge-correction       :           -0.00017437 Eh              -0.00474 eV
Free-energy (cav+disp)  :  This term is not implemented in the current solvation scheme

---------------
SCF CONVERGENCE
---------------

  Last Energy change         ...    1.2674e-09  Tolerance :   1.0000e-08
  Last MAX-Density change    ...    3.9968e-15  Tolerance :   1.0000e-07
  Last RMS-Density change    ...    4.0305e-17  Tolerance :   5.0000e-09
  Last Orbital Gradient      ...    8.3587e-07  Tolerance :   1.0000e-05
  Last Orbital Rotation      ...    2.9381e-06  Tolerance :   1.0000e-05

             **** THE GBW FILE WAS UPDATED (Nf_water.gbw) ****
             **** DENSITY Nf_water.scfp WAS UPDATED ****
             **** ENERGY FILE WAS UPDATED (Nf_water.en.tmp) ****
             **** THE GBW FILE WAS UPDATED (Nf_water.gbw) ****
             **** DENSITY Nf_water.scfp WAS UPDATED ****
----------------
ORBITAL ENERGIES
----------------

  NO   OCC          E(Eh)            E(eV) 
   0   2.0000     -19.110334      -520.0186 
   1   2.0000     -19.109279      -519.9899 
   2   2.0000     -14.359996      -390.7554 
   3   2.0000     -14.359410      -390.7394 
   4   2.0000     -10.284269      -279.8492 
   5   2.0000     -10.283824      -279.8371 
   6   2.0000     -10.219881      -278.0971 
   7   2.0000     -10.207236      -277.7530 
   8   2.0000     -10.198624      -277.5187 
   9   2.0000     -10.194934      -277.4183 
  10   2.0000     -10.186081      -277.1773 
  11   2.0000     -10.179907      -277.0094 
  12   2.0000     -10.179645      -277.0022 
  13   2.0000     -10.179377      -276.9949 
  14   2.0000     -10.179083      -276.9869 
  15   2.0000     -10.176293      -276.9110 
  16   2.0000     -10.170618      -276.7566 
  17   2.0000      -1.032835       -28.1049 
  18   2.0000      -1.027302       -27.9543 
  19   2.0000      -0.935794       -25.4642 
  20   2.0000      -0.926115       -25.2009 
  21   2.0000      -0.849724       -23.1222 
  22   2.0000      -0.772735       -21.0272 
  23   2.0000      -0.743275       -20.2255 
  24   2.0000      -0.739002       -20.1093 
  25   2.0000      -0.730795       -19.8859 
  26   2.0000      -0.711313       -19.3558 
  27   2.0000      -0.680484       -18.5169 
  28   2.0000      -0.668690       -18.1960 
  29   2.0000      -0.600294       -16.3348 
  30   2.0000      -0.585419       -15.9301 
  31   2.0000      -0.560525       -15.2526 
  32   2.0000      -0.536585       -14.6012 
  33   2.0000      -0.510289       -13.8857 
  34   2.0000      -0.495430       -13.4813 
  35   2.0000      -0.488906       -13.3038 
  36   2.0000      -0.478441       -13.0190 
  37   2.0000      -0.463181       -12.6038 
  38   2.0000      -0.456770       -12.4294 
  39   2.0000      -0.453091       -12.3292 
  40   2.0000      -0.445980       -12.1357 
  41   2.0000      -0.440376       -11.9832 
  42   2.0000      -0.414641       -11.2830 
  43   2.0000      -0.413998       -11.2655 
  44   2.0000      -0.408757       -11.1228 
  45   2.0000      -0.403763       -10.9870 
  46   2.0000      -0.400053       -10.8860 
  47   2.0000      -0.395182       -10.7535 
  48   2.0000      -0.392902       -10.6914 
  49   2.0000      -0.390734       -10.6324 
  50   2.0000      -0.377396       -10.2695 
  51   2.0000      -0.377306       -10.2670 
  52   2.0000      -0.354911        -9.6576 
  53   2.0000      -0.353133        -9.6092 
  54   2.0000      -0.350865        -9.5475 
  55   2.0000      -0.336649        -9.1607 
  56   2.0000      -0.333138        -9.0652 
  57   2.0000      -0.258093        -7.0231 
  58   2.0000      -0.255174        -6.9436 
  59   2.0000      -0.248893        -6.7727 
  60   2.0000      -0.243293        -6.6203 
  61   2.0000      -0.238387        -6.4869 
  62   2.0000      -0.233926        -6.3655 
  63   0.0000      -0.004274        -0.1163 
  64   0.0000       0.001044         0.0284 
  65   0.0000       0.016702         0.4545 
  66   0.0000       0.022433         0.6104 
  67   0.0000       0.090102         2.4518 
  68   0.0000       0.103904         2.8274 
  69   0.0000       0.118931         3.2363 
  70   0.0000       0.136665         3.7188 
  71   0.0000       0.142083         3.8663 
  72   0.0000       0.143232         3.8975 
  73   0.0000       0.149536         4.0691 
  74   0.0000       0.153753         4.1838 
  75   0.0000       0.160165         4.3583 
  76   0.0000       0.166444         4.5292 
  77   0.0000       0.169878         4.6226 
  78   0.0000       0.173685         4.7262 
  79   0.0000       0.175514         4.7760 
  80   0.0000       0.179488         4.8841 
  81   0.0000       0.188908         5.1404 
  82   0.0000       0.192991         5.2516 
  83   0.0000       0.197222         5.3667 
  84   0.0000       0.202092         5.4992 
  85   0.0000       0.208935         5.6854 
  86   0.0000       0.212638         5.7862 
  87   0.0000       0.223930         6.0934 
  88   0.0000       0.227876         6.2008 
  89   0.0000       0.242077         6.5873 
  90   0.0000       0.257140         6.9971 
  91   0.0000       0.272107         7.4044 
  92   0.0000       0.291924         7.9437 
  93   0.0000       0.311918         8.4877 
  94   0.0000       0.316697         8.6178 
  95   0.0000       0.324480         8.8296 
  96   0.0000       0.338538         9.2121 
  97   0.0000       0.349482         9.5099 
  98   0.0000       0.368631        10.0310 
  99   0.0000       0.377803        10.2806 
 100   0.0000       0.406659        11.0658 
 101   0.0000       0.463420        12.6103 
 102   0.0000       0.476491        12.9660 
 103   0.0000       0.489213        13.3122 
 104   0.0000       0.504092        13.7170 
 105   0.0000       0.511145        13.9090 
 106   0.0000       0.531945        14.4750 
 107   0.0000       0.532979        14.5031 
 108   0.0000       0.544209        14.8087 
 109   0.0000       0.556990        15.1565 
 110   0.0000       0.559702        15.2303 
 111   0.0000       0.562291        15.3007 
 112   0.0000       0.570819        15.5328 
 113   0.0000       0.585204        15.9242 
 114   0.0000       0.596991        16.2449 
 115   0.0000       0.605051        16.4643 
 116   0.0000       0.616729        16.7821 
 117   0.0000       0.618994        16.8437 
 118   0.0000       0.623475        16.9656 
 119   0.0000       0.631534        17.1849 
 120   0.0000       0.640718        17.4348 
 121   0.0000       0.644307        17.5325 
 122   0.0000       0.649407        17.6713 
 123   0.0000       0.654911        17.8210 
 124   0.0000       0.664162        18.0728 
 125   0.0000       0.674379        18.3508 
 126   0.0000       0.684939        18.6381 
 127   0.0000       0.702620        19.1193 
 128   0.0000       0.708017        19.2661 
 129   0.0000       0.722490        19.6600 
 130   0.0000       0.729658        19.8550 
 131   0.0000       0.751779        20.4569 
 132   0.0000       0.769659        20.9435 
 133   0.0000       0.793169        21.5832 
 134   0.0000       0.802406        21.8346 
 135   0.0000       0.817039        22.2328 
 136   0.0000       0.823945        22.4207 
 137   0.0000       0.832880        22.6638 
 138   0.0000       0.840206        22.8632 
 139   0.0000       0.847324        23.0569 
 140   0.0000       0.852289        23.1920 
 141   0.0000       0.855077        23.2678 
 142   0.0000       0.862353        23.4658 
 143   0.0000       0.871037        23.7021 
 144   0.0000       0.875733        23.8299 
 145   0.0000       0.888824        24.1861 
 146   0.0000       0.895795        24.3758 
 147   0.0000       0.901505        24.5312 
 148   0.0000       0.910127        24.7658 
 149   0.0000       0.914724        24.8909 
 150   0.0000       0.929261        25.2865 
 151   0.0000       0.931300        25.3420 
 152   0.0000       0.940077        25.5808 
 153   0.0000       0.955730        26.0067 
 154   0.0000       0.966758        26.3068 
 155   0.0000       0.969078        26.3700 
 156   0.0000       0.977483        26.5987 
 157   0.0000       0.982768        26.7425 
 158   0.0000       0.989045        26.9133 
 159   0.0000       0.994449        27.0603 
 160   0.0000       1.012667        27.5561 
 161   0.0000       1.030420        28.0392 
 162   0.0000       1.055537        28.7226 
 163   0.0000       1.084020        29.4977 
 164   0.0000       1.085671        29.5426 
 165   0.0000       1.105340        30.0778 
 166   0.0000       1.110178        30.2095 
 167   0.0000       1.119027        30.4503 
 168   0.0000       1.148531        31.2531 
 169   0.0000       1.156672        31.4746 
 170   0.0000       1.178277        32.0626 
 171   0.0000       1.189885        32.3784 
 172   0.0000       1.202409        32.7192 
 173   0.0000       1.220021        33.1985 
 174   0.0000       1.253269        34.1032 
 175   0.0000       1.268142        34.5079 
 176   0.0000       1.286682        35.0124 
 177   0.0000       1.304841        35.5065 
 178   0.0000       1.349314        36.7167 
 179   0.0000       1.371974        37.3333 
 180   0.0000       1.380675        37.5701 
 181   0.0000       1.397715        38.0338 
 182   0.0000       1.422488        38.7079 
 183   0.0000       1.427587        38.8466 
 184   0.0000       1.441394        39.2223 
 185   0.0000       1.453831        39.5608 
 186   0.0000       1.458222        39.6802 
 187   0.0000       1.478507        40.2322 
 188   0.0000       1.484343        40.3910 
 189   0.0000       1.499580        40.8056 
 190   0.0000       1.508242        41.0414 
 191   0.0000       1.519575        41.3497 
 192   0.0000       1.548069        42.1251 
 193   0.0000       1.558408        42.4064 
 194   0.0000       1.606272        43.7089 
 195   0.0000       1.631680        44.4003 
 196   0.0000       1.661311        45.2066 
 197   0.0000       1.711170        46.5633 
 198   0.0000       1.741791        47.3965 
 199   0.0000       1.750467        47.6326 
 200   0.0000       1.770152        48.1683 
 201   0.0000       1.789422        48.6927 
 202   0.0000       1.805151        49.1207 
 203   0.0000       1.814105        49.3643 
 204   0.0000       1.825104        49.6636 
 205   0.0000       1.830708        49.8161 
 206   0.0000       1.844853        50.2010 
 207   0.0000       1.865879        50.7731 
 208   0.0000       1.892541        51.4987 
 209   0.0000       1.904302        51.8187 
 210   0.0000       1.913331        52.0644 
 211   0.0000       1.920660        52.2638 
 212   0.0000       1.930899        52.5424 
 213   0.0000       1.956258        53.2325 
 214   0.0000       1.964222        53.4492 
 215   0.0000       1.986350        54.0513 
 216   0.0000       1.989052        54.1248 
 217   0.0000       1.993941        54.2579 
 218   0.0000       2.002675        54.4956 
 219   0.0000       2.013065        54.7783 
 220   0.0000       2.026588        55.1463 
 221   0.0000       2.046107        55.6774 
 222   0.0000       2.063356        56.1468 
 223   0.0000       2.074010        56.4367 
 224   0.0000       2.094321        56.9894 
 225   0.0000       2.100654        57.1617 
 226   0.0000       2.114469        57.5376 
 227   0.0000       2.123381        57.7801 
 228   0.0000       2.137129        58.1542 
 229   0.0000       2.151008        58.5319 
 230   0.0000       2.172207        59.1088 
 231   0.0000       2.177252        59.2460 
 232   0.0000       2.212618        60.2084 
 233   0.0000       2.236658        60.8626 
 234   0.0000       2.249640        61.2158 
 235   0.0000       2.260765        61.5185 
 236   0.0000       2.268683        61.7340 
 237   0.0000       2.288735        62.2796 
 238   0.0000       2.307943        62.8023 
 239   0.0000       2.316953        63.0475 
 240   0.0000       2.328177        63.3529 
 241   0.0000       2.338721        63.6398 
 242   0.0000       2.359799        64.2134 
 243   0.0000       2.376572        64.6698 
 244   0.0000       2.398836        65.2756 
 245   0.0000       2.416919        65.7677 
 246   0.0000       2.433185        66.2103 
 247   0.0000       2.464938        67.0744 
 248   0.0000       2.485360        67.6301 
 249   0.0000       2.499771        68.0222 
 250   0.0000       2.572765        70.0085 
 251   0.0000       2.574879        70.0660 
 252   0.0000       2.583284        70.2947 
 253   0.0000       2.594697        70.6053 
 254   0.0000       2.626545        71.4719 
 255   0.0000       2.634424        71.6863 
 256   0.0000       2.649364        72.0929 
 257   0.0000       2.667547        72.5876 
 258   0.0000       2.685999        73.0898 
 259   0.0000       2.727131        74.2090 
 260   0.0000       2.732365        74.3514 
 261   0.0000       2.747773        74.7707 
 262   0.0000       2.753800        74.9347 
 263   0.0000       2.758348        75.0585 
 264   0.0000       2.794624        76.0456 
 265   0.0000       2.884564        78.4930 
 266   0.0000       2.915093        79.3237 
 267   0.0000       2.966242        80.7156 
 268   0.0000       3.002171        81.6932 
 269   0.0000       3.032582        82.5207 
 270   0.0000       3.064615        83.3924 
 271   0.0000       3.166233        86.1576 
 272   0.0000       3.184682        86.6596 
 273   0.0000       3.415828        92.9494 

                    ********************************
                    * MULLIKEN POPULATION ANALYSIS *
                    ********************************

-----------------------
MULLIKEN ATOMIC CHARGES
-----------------------
   0 C :   -0.568695
   1 H :    0.191723
   2 H :    0.181957
   3 H :    0.203962
   4 C :    0.535221
   5 N :   -0.370032
   6 C :   -0.253748
   7 H :    0.185588
   8 H :    0.176525
   9 C :    0.145445
  10 C :   -0.178718
  11 C :   -0.199327
  12 C :   -0.150660
  13 H :    0.151916
  14 C :   -0.147355
  15 H :    0.153313
  16 C :   -0.148369
  17 H :    0.151698
  18 H :    0.152959
  19 H :    0.151770
  20 C :   -0.253869
  21 H :    0.187936
  22 H :    0.208675
  23 C :    0.520904
  24 N :   -0.358304
  25 O :   -0.543328
  26 O :   -0.534199
  27 C :   -0.335316
  28 H :    0.174528
  29 H :    0.175101
  30 H :    0.192176
  31 C :   -0.332709
  32 H :    0.174123
  33 H :    0.173764
  34 H :    0.185347
Sum of atomic charges:    0.0000000

--------------------------------
MULLIKEN REDUCED ORBITAL CHARGES
--------------------------------
  0 C s       :     3.324978  s :     3.324978
      pz      :     1.107824  p :     3.211726
      px      :     0.986872
      py      :     1.117030
      dz2     :     0.003942  d :     0.031990
      dxz     :     0.007182
      dyz     :     0.008370
      dx2y2   :     0.009310
      dxy     :     0.003187
  1 H s       :     0.808277  s :     0.808277
  2 H s       :     0.818043  s :     0.818043
  3 H s       :     0.796038  s :     0.796038
  4 C s       :     2.983862  s :     2.983862
      pz      :     0.773626  p :     2.373230
      px      :     0.829756
      py      :     0.769848
      dz2     :     0.025532  d :     0.107686
      dxz     :     0.018030
      dyz     :     0.018737
      dx2y2   :     0.024494
      dxy     :     0.020893
  5 N s       :     3.537688  s :     3.537688
      pz      :     1.295681  p :     3.796191
      px      :     1.161947
      py      :     1.338562
      dz2     :     0.006344  d :     0.036153
      dxz     :     0.008284
      dyz     :     0.006498
      dx2y2   :     0.006673
      dxy     :     0.008355
  6 C s       :     3.250145  s :     3.250145
      pz      :     1.066300  p :     2.949689
      px      :     0.813117
      py      :     1.070272
      dz2     :     0.014367  d :     0.053915
      dxz     :     0.008218
      dyz     :     0.004971
      dx2y2   :     0.015588
      dxy     :     0.010769
  7 H s       :     0.814412  s :     0.814412
  8 H s       :     0.823475  s :     0.823475
  9 C s       :     3.134005  s :     3.134005
      pz      :     0.866458  p :     2.680135
      px      :     0.907923
      py      :     0.905754
      dz2     :     0.010522  d :     0.040415
      dxz     :     0.009265
      dyz     :     0.009064
      dx2y2   :     0.005452
      dxy     :     0.006113
 10 C s       :     3.207622  s :     3.207622
      pz      :     0.978685  p :     2.935097
      px      :     0.970803
      py      :     0.985610
      dz2     :     0.008292  d :     0.035999
      dxz     :     0.008256
      dyz     :     0.009865
      dx2y2   :     0.004180
      dxy     :     0.005405
 11 C s       :     3.209076  s :     3.209076
      pz      :     0.997776  p :     2.954061
      px      :     0.982671
      py      :     0.973614
      dz2     :     0.011332  d :     0.036190
      dxz     :     0.006635
      dyz     :     0.006503
      dx2y2   :     0.006287
      dxy     :     0.005432
 12 C s       :     3.202190  s :     3.202190
      pz      :     0.994952  p :     2.912238
      px      :     0.966576
      py      :     0.950710
      dz2     :     0.011198  d :     0.036231
      dxz     :     0.006747
      dyz     :     0.006520
      dx2y2   :     0.006258
      dxy     :     0.005509
 13 H s       :     0.848084  s :     0.848084
 14 C s       :     3.199691  s :     3.199691
      pz      :     0.951649  p :     2.911503
      px      :     0.973935
      py      :     0.985919
      dz2     :     0.008143  d :     0.036160
      dxz     :     0.008290
      dyz     :     0.010245
      dx2y2   :     0.004174
      dxy     :     0.005309
 15 H s       :     0.846687  s :     0.846687
 16 C s       :     3.198216  s :     3.198216
      pz      :     0.941734  p :     2.914082
      px      :     0.990969
      py      :     0.981378
      dz2     :     0.009413  d :     0.036071
      dxz     :     0.008285
      dyz     :     0.008921
      dx2y2   :     0.002865
      dxy     :     0.006587
 17 H s       :     0.848302  s :     0.848302
 18 H s       :     0.847041  s :     0.847041
 19 H s       :     0.848230  s :     0.848230
 20 C s       :     3.246075  s :     3.246075
      pz      :     0.980279  p :     2.955719
      px      :     1.033227
      py      :     0.942213
      dz2     :     0.006611  d :     0.052075
      dxz     :     0.013512
      dyz     :     0.012218
      dx2y2   :     0.005841
      dxy     :     0.013893
 21 H s       :     0.812064  s :     0.812064
 22 H s       :     0.791325  s :     0.791325
 23 C s       :     2.984005  s :     2.984005
      pz      :     0.779555  p :     2.386776
      px      :     0.784108
      py      :     0.823113
      dz2     :     0.021940  d :     0.108315
      dxz     :     0.026935
      dyz     :     0.011897
      dx2y2   :     0.018120
      dxy     :     0.029423
 24 N s       :     3.531072  s :     3.531072
      pz      :     1.289513  p :     3.789746
      px      :     1.122213
      py      :     1.378019
      dz2     :     0.007618  d :     0.037486
      dxz     :     0.008625
      dyz     :     0.005449
      dx2y2   :     0.007996
      dxy     :     0.007797
 25 O s       :     3.858519  s :     3.858519
      pz      :     1.612654  p :     4.659610
      px      :     1.385640
      py      :     1.661316
      dz2     :     0.003391  d :     0.025199
      dxz     :     0.007651
[...]
     68       0.000467   0.004242  -0.000798
     69      -0.000024   0.000344   0.000004
     70       0.000002  -0.000346   0.000013
     71      -0.000004   0.000035  -0.000006
     72       0.000018  -0.000501   0.000021
     73      -0.000003  -0.000076   0.000015
     74       0.000001   0.000033   0.000011
     75       0.000012  -0.000005  -0.000019
     76      -0.000004   0.000112  -0.000005
     77      -0.000001   0.000090  -0.000008
     78       0.000192   0.000065   0.000192
     79       0.000114  -0.000077   0.000069
     80      -0.000013   0.000069   0.000023
     81      -0.001152   0.047071  -0.003256
     82       0.000923  -0.028364   0.001981
     83       0.001580  -0.070351   0.004665
     84      -0.000301   0.020392  -0.001193
     85       0.001037  -0.105635   0.006114
     86      -0.000545   0.111758  -0.006200
     87      -0.001224   0.042291  -0.002807
     88      -0.005908   0.185439  -0.012013
     89      -0.001492   0.044917  -0.002779
     90       0.015010  -0.617504   0.042737
     91      -0.006427   0.270257  -0.018842
     92      -0.016818   0.684607  -0.046940
     93      -0.000125   0.002295  -0.000088
     94      -0.000035   0.001070  -0.000071
     95      -0.000061   0.001470  -0.000080
     96       0.000063  -0.001953   0.000131
     97       0.000155  -0.005001   0.000369
     98      -0.000046   0.000956  -0.000045
     99       0.000009  -0.000699   0.000043
    100      -0.000061   0.001771  -0.000104
    101       0.000177  -0.006254   0.000448
    102       0.001560  -0.030444   0.001214
    103       0.000237  -0.004750   0.000204
    104       0.000631  -0.012437   0.000514


-----------
IR SPECTRUM
-----------

 Mode   freq       eps      Int      T**2         TX        TY        TZ
       cm**-1   L/(mol*cm) km/mol    a.u.
----------------------------------------------------------------------------
  6:     29.83   0.000549    2.78  0.005746  (-0.014966  0.031379 -0.067359)
  7:     47.81   0.000360    1.82  0.002352  (-0.033979 -0.027220  0.021374)
  8:     50.41   0.000071    0.36  0.000438  (-0.017230 -0.011651  0.002388)
  9:     71.49   0.000442    2.23  0.001930  (-0.028220 -0.000122  0.033664)
 10:     76.80   0.001500    7.58  0.006095  ( 0.007002  0.069900  0.034054)
 11:     94.55   0.001554    7.85  0.005129  ( 0.009325  0.061369  0.035720)
 12:     98.17   0.000334    1.69  0.001063  (-0.015350 -0.025139  0.013965)
 13:    123.45   0.000471    2.38  0.001191  (-0.021646  0.010684 -0.024667)
 14:    156.73   0.001271    6.43  0.002532  (-0.028226 -0.041652  0.000132)
 15:    184.47   0.000332    1.68  0.000562  ( 0.009315  0.017022  0.013606)
 16:    191.04   0.001216    6.14  0.001986  ( 0.038424  0.012481 -0.018816)
 17:    213.23   0.000025    0.13  0.000036  ( 0.003257 -0.003111  0.004018)
 18:    236.27   0.000586    2.96  0.000775  (-0.018455 -0.007499  0.019437)
 19:    248.45   0.002067   10.44  0.002596  (-0.008236 -0.046053  0.020180)
 20:    291.39   0.000633    3.20  0.000678  ( 0.012166  0.008444 -0.021413)
 21:    322.41   0.002123   10.73  0.002055  (-0.018153 -0.030460 -0.028242)
 22:    327.74   0.000504    2.55  0.000480  ( 0.000681  0.021457  0.004369)
 23:    408.28   0.001116    5.64  0.000853  (-0.010123 -0.025408  0.010244)
 24:    409.93   0.001555    7.86  0.001184  (-0.006958  0.018203  0.028359)
 25:    418.69   0.000067    0.34  0.000050  (-0.006247 -0.003270 -0.000640)
 26:    451.53   0.001083    5.47  0.000749  ( 0.022635 -0.005242 -0.014454)
 27:    464.30   0.001014    5.12  0.000681  (-0.017939  0.007197  0.017541)
 28:    521.01   0.005739   29.00  0.003437  (-0.050402  0.003128  0.029788)
 29:    575.60   0.005398   27.28  0.002927  (-0.013013  0.028617 -0.044028)
 30:    588.48   0.001843    9.31  0.000977  ( 0.027892 -0.014109  0.000036)
 31:    611.41   0.000293    1.48  0.000149  ( 0.011255  0.002378 -0.004131)
 32:    623.95   0.010977   55.47  0.005490  ( 0.012764  0.068648  0.024792)
 33:    634.16   0.000096    0.49  0.000047  (-0.001104  0.001554  0.006609)
 34:    692.01   0.001563    7.90  0.000705  (-0.026178 -0.000522 -0.004398)
 35:    719.43   0.011926   60.27  0.005173  (-0.052347  0.046992  0.014991)
 36:    753.60   0.002676   13.52  0.001108  ( 0.023653  0.022322  0.007089)
 37:    774.92   0.005686   28.73  0.002290  ( 0.015233 -0.043172 -0.013921)
 38:    807.61   0.002293   11.59  0.000886  ( 0.026874  0.012260  0.003685)
 39:    834.27   0.003350   16.93  0.001253  ( 0.028678  0.017576  0.011037)
 40:    870.40   0.000005    0.02  0.000002  ( 0.000473  0.001096  0.000509)
 41:    931.74   0.000655    3.31  0.000219  ( 0.012890  0.002130 -0.006968)
 42:    953.38   0.002489   12.58  0.000815  ( 0.021807 -0.015461  0.010014)
 43:    977.43   0.000950    4.80  0.000303  ( 0.012282 -0.009365 -0.008043)
 44:    983.39   0.000036    0.18  0.000011  ( 0.002629  0.000362  0.002099)
 45:   1006.22   0.009055   45.76  0.002808  ( 0.015427  0.036013  0.035685)
 46:   1008.15   0.000130    0.66  0.000040  (-0.006260  0.000868 -0.000603)
 47:   1016.17   0.000128    0.65  0.000039  (-0.005586 -0.002441 -0.001493)
 48:   1017.70   0.006922   34.98  0.002122  (-0.004644 -0.028032  0.036264)
 49:   1055.21   0.001415    7.15  0.000418  (-0.015794 -0.012523 -0.003477)
 50:   1062.40   0.002906   14.68  0.000853  (-0.001536 -0.023587 -0.017168)
 51:   1090.42   0.001846    9.33  0.000528  ( 0.019367  0.003922 -0.011740)
 52:   1091.00   0.002672   13.50  0.000764  ( 0.012034 -0.015757  0.019269)
 53:   1120.10   0.002117   10.70  0.000590  (-0.010496  0.012674 -0.017859)
 54:   1135.32   0.000631    3.19  0.000173  ( 0.011184  0.001486  0.006791)
 55:   1178.37   0.002076   10.49  0.000550  ( 0.013291  0.015775  0.011149)
 56:   1182.25   0.000032    0.16  0.000008  ( 0.000296 -0.001398 -0.002532)
 57:   1190.30   0.010614   53.64  0.002783  (-0.047871  0.018202  0.012641)
 58:   1197.14   0.018921   95.62  0.004932  (-0.031091 -0.039017 -0.049431)
 59:   1203.86   0.000038    0.19  0.000010  (-0.000712 -0.000471 -0.003029)
 60:   1237.72   0.001686    8.52  0.000425  ( 0.018234  0.002354  0.009334)
 61:   1279.54   0.028451  143.78  0.006939  ( 0.062037  0.040984 -0.037557)
 62:   1291.61   0.015154   76.58  0.003661  (-0.037725  0.034050  0.032844)
 63:   1312.04   0.014747   74.52  0.003508  ( 0.015183  0.035472 -0.044930)
 64:   1349.97   0.018963   95.83  0.004384  ( 0.006949  0.034352 -0.056172)
 65:   1363.00   0.001605    8.11  0.000367  (-0.007840  0.008343 -0.015374)
 66:   1377.29   0.002328   11.76  0.000527  (-0.003897  0.018861 -0.012509)
 67:   1400.32   0.011094   56.07  0.002472  (-0.031602 -0.035495  0.014625)
 68:   1414.25   0.003633   18.36  0.000802  (-0.023575  0.004308  0.015076)
 69:   1440.97   0.016623   84.00  0.003600  ( 0.023946  0.037622  0.040138)
 70:   1457.22   0.020090  101.52  0.004302  ( 0.020679 -0.015116 -0.060383)
 71:   1466.97   0.021595  109.13  0.004594  ( 0.015000  0.061948 -0.023051)
 72:   1485.25   0.004143   20.94  0.000870  (-0.019990 -0.018060  0.012028)
 73:   1492.87   0.001742    8.80  0.000364  ( 0.017510 -0.004335  0.006230)
 74:   1498.79   0.002158   10.90  0.000449  (-0.014534  0.007169  0.013661)
 75:   1500.80   0.002189   11.06  0.000455  ( 0.006935 -0.012102  0.016141)
 76:   1504.37   0.004002   20.22  0.000830  ( 0.016197 -0.015667 -0.017953)
 77:   1507.36   0.005664   28.62  0.001173  (-0.025654 -0.021908 -0.005880)
 78:   1515.29   0.004422   22.35  0.000911  ( 0.014318 -0.025327  0.008019)
 79:   1517.12   0.006215   31.41  0.001278  (-0.030866 -0.004973  0.017347)
 80:   1531.48   0.014684   74.21  0.002992  ( 0.031693  0.015136 -0.041934)
 81:   1542.27   0.004600   23.25  0.000931  ( 0.025484  0.016502  0.003020)
 82:   1553.96   0.016085   81.29  0.003230  ( 0.012073 -0.040897 -0.037574)
 83:   1641.38   0.000555    2.81  0.000106  (-0.001821  0.007323 -0.006975)
 84:   1660.75   0.000568    2.87  0.000107  ( 0.009846  0.002896  0.001189)
 85:   1704.47   0.121095  611.97  0.022171  (-0.062359  0.090567 -0.100399)
 86:   1712.29   0.103822  524.67  0.018921  ( 0.107936  0.051598  0.067888)
 87:   3045.38   0.008379   42.34  0.000859  ( 0.015832 -0.021516 -0.012041)
 88:   3052.71   0.013422   67.83  0.001372  ( 0.016126  0.010533  0.031640)
 89:   3065.26   0.003842   19.42  0.000391  (-0.012004  0.006533 -0.014295)
 90:   3069.86   0.000548    2.77  0.000056  ( 0.006262  0.000954 -0.003947)
 91:   3078.09   0.011282   57.01  0.001144  (-0.000160  0.010994  0.031983)
 92:   3099.17   0.009762   49.33  0.000983  (-0.005011 -0.025393  0.017692)
 93:   3110.18   0.002876   14.53  0.000289  (-0.009607 -0.012082 -0.007094)
 94:   3112.14   0.004562   23.05  0.000457  (-0.001037  0.021042 -0.003682)
 95:   3140.76   0.002102   10.62  0.000209  (-0.008245 -0.010683 -0.005176)
 96:   3150.51   0.001167    5.90  0.000116  (-0.008682  0.005905 -0.002307)
 97:   3168.92   0.002169   10.96  0.000214  (-0.000269  0.010146 -0.010515)
 98:   3181.51   0.001669    8.43  0.000164  (-0.006630 -0.003943 -0.010208)
 99:   3188.28   0.000468    2.36  0.000046  (-0.004144 -0.004933 -0.002067)
100:   3195.94   0.000964    4.87  0.000094  (-0.009630  0.001105 -0.000375)
101:   3197.38   0.006888   34.81  0.000672  ( 0.005685 -0.000992  0.025278)
102:   3207.18   0.006593   33.32  0.000641  ( 0.013992  0.017959 -0.011099)
103:   3211.43   0.001285    6.50  0.000125  (-0.001270  0.000064 -0.011104)
104:   3213.87   0.002889   14.60  0.000280  (-0.011714 -0.004903 -0.010919)

* The epsilon (eps) is given for a Dirac delta lineshape.
** The dipole moment derivative (T) already includes vibrational overlap.

The first frequency considered to be a vibration is 6
The total number of vibrations considered is 99


--------------------------
THERMOCHEMISTRY AT 298.15K
--------------------------

Temperature         ... 298.15 K
Pressure            ... 1.00 atm
Total Mass          ... 234.30 AMU

Throughout the following assumptions are being made:
  (1) The electronic state is orbitally nondegenerate
  (2) There are no thermally accessible electronically excited states
  (3) Hindered rotations indicated by low frequency modes are not
      treated as such but are treated as vibrations and this may
      cause some error
  (4) All equations used are the standard statistical mechanics
      equations for an ideal gas
  (5) All vibrations are strictly harmonic

freq.      29.83  E(vib)   ...       0.55 
freq.      47.81  E(vib)   ...       0.53 
freq.      50.41  E(vib)   ...       0.52 
freq.      71.49  E(vib)   ...       0.50 
freq.      76.80  E(vib)   ...       0.49 
freq.      94.55  E(vib)   ...       0.47 
freq.      98.17  E(vib)   ...       0.46 
freq.     123.45  E(vib)   ...       0.43 
freq.     156.73  E(vib)   ...       0.40 
freq.     184.47  E(vib)   ...       0.37 
freq.     191.04  E(vib)   ...       0.36 
freq.     213.23  E(vib)   ...       0.34 
freq.     236.27  E(vib)   ...       0.32 
freq.     248.45  E(vib)   ...       0.31 
freq.     291.39  E(vib)   ...       0.27 
freq.     322.41  E(vib)   ...       0.25 
freq.     327.74  E(vib)   ...       0.24 
freq.     408.28  E(vib)   ...       0.19 
freq.     409.93  E(vib)   ...       0.19 
freq.     418.69  E(vib)   ...       0.18 
freq.     451.53  E(vib)   ...       0.16 
freq.     464.30  E(vib)   ...       0.16 
freq.     521.01  E(vib)   ...       0.13 
freq.     575.60  E(vib)   ...       0.11 
freq.     588.48  E(vib)   ...       0.10 
freq.     611.41  E(vib)   ...       0.10 
freq.     623.95  E(vib)   ...       0.09 
freq.     634.16  E(vib)   ...       0.09 
freq.     692.01  E(vib)   ...       0.07 
freq.     719.43  E(vib)   ...       0.07 
freq.     753.60  E(vib)   ...       0.06 
freq.     774.92  E(vib)   ...       0.05 
freq.     807.61  E(vib)   ...       0.05 
freq.     834.27  E(vib)   ...       0.04 
freq.     870.40  E(vib)   ...       0.04 
freq.     931.74  E(vib)   ...       0.03 
freq.     953.38  E(vib)   ...       0.03 
freq.     977.43  E(vib)   ...       0.03 
freq.     983.39  E(vib)   ...       0.02 
freq.    1006.22  E(vib)   ...       0.02 
freq.    1008.15  E(vib)   ...       0.02 
freq.    1016.17  E(vib)   ...       0.02 
freq.    1017.70  E(vib)   ...       0.02 
freq.    1055.21  E(vib)   ...       0.02 
freq.    1062.40  E(vib)   ...       0.02 
freq.    1090.42  E(vib)   ...       0.02 
freq.    1091.00  E(vib)   ...       0.02 
freq.    1120.10  E(vib)   ...       0.01 
freq.    1135.32  E(vib)   ...       0.01 
freq.    1178.37  E(vib)   ...       0.01 
freq.    1182.25  E(vib)   ...       0.01 
freq.    1190.30  E(vib)   ...       0.01 
freq.    1197.14  E(vib)   ...       0.01 
freq.    1203.86  E(vib)   ...       0.01 
freq.    1237.72  E(vib)   ...       0.01 
freq.    1279.54  E(vib)   ...       0.01 
freq.    1291.61  E(vib)   ...       0.01 
freq.    1312.04  E(vib)   ...       0.01 
freq.    1349.97  E(vib)   ...       0.01 
freq.    1363.00  E(vib)   ...       0.01 
freq.    1377.29  E(vib)   ...       0.01 
freq.    1400.32  E(vib)   ...       0.00 
freq.    1414.25  E(vib)   ...       0.00 
freq.    1440.97  E(vib)   ...       0.00 
freq.    1457.22  E(vib)   ...       0.00 
freq.    1466.97  E(vib)   ...       0.00 
freq.    1485.25  E(vib)   ...       0.00 
freq.    1492.87  E(vib)   ...       0.00 
freq.    1498.79  E(vib)   ...       0.00 
freq.    1500.80  E(vib)   ...       0.00 
freq.    1504.37  E(vib)   ...       0.00 
freq.    1507.36  E(vib)   ...       0.00 
freq.    1515.29  E(vib)   ...       0.00 
freq.    1517.12  E(vib)   ...       0.00 
freq.    1531.48  E(vib)   ...       0.00 
freq.    1542.27  E(vib)   ...       0.00 
freq.    1553.96  E(vib)   ...       0.00 
freq.    1641.38  E(vib)   ...       0.00 
freq.    1660.75  E(vib)   ...       0.00 
freq.    1704.47  E(vib)   ...       0.00 
freq.    1712.29  E(vib)   ...       0.00 
freq.    3045.38  E(vib)   ...       0.00 
freq.    3052.71  E(vib)   ...       0.00 
freq.    3065.26  E(vib)   ...       0.00 
freq.    3069.86  E(vib)   ...       0.00 
freq.    3078.09  E(vib)   ...       0.00 
freq.    3099.17  E(vib)   ...       0.00 
freq.    3110.18  E(vib)   ...       0.00 
freq.    3112.14  E(vib)   ...       0.00 
freq.    3140.76  E(vib)   ...       0.00 
freq.    3150.51  E(vib)   ...       0.00 
freq.    3168.92  E(vib)   ...       0.00 
freq.    3181.51  E(vib)   ...       0.00 
freq.    3188.28  E(vib)   ...       0.00 
freq.    3195.94  E(vib)   ...       0.00 
freq.    3197.38  E(vib)   ...       0.00 
freq.    3207.18  E(vib)   ...       0.00 
freq.    3211.43  E(vib)   ...       0.00 
freq.    3213.87  E(vib)   ...       0.00 

------------
INNER ENERGY
------------

The inner energy is: U= E(el) + E(ZPE) + E(vib) + E(rot) + E(trans)
    E(el)   - is the total energy from the electronic structure calculation
              = E(kin-el) + E(nuc-el) + E(el-el) + E(nuc-nuc)
    E(ZPE)  - the the zero temperature vibrational energy from the frequency calculation
    E(vib)  - the the finite temperature correction to E(ZPE) due to population
              of excited vibrational states
    E(rot)  - is the rotational thermal energy
    E(trans)- is the translational thermal energy

Summary of contributions to the inner energy U:
Electronic energy                ...   -765.79605027 Eh
Zero point energy                ...      0.29746560 Eh     186.66 kcal/mol
Thermal vibrational correction   ...      0.01456132 Eh       9.14 kcal/mol
Thermal rotational correction    ...      0.00141627 Eh       0.89 kcal/mol
Thermal translational correction ...      0.00141627 Eh       0.89 kcal/mol
-----------------------------------------------------------------------
Total thermal energy                   -765.48119081 Eh


Summary of corrections to the electronic energy:
(perhaps to be used in another calculation)
Total thermal correction                  0.01739386 Eh      10.91 kcal/mol
Non-thermal (ZPE) correction              0.29746560 Eh     186.66 kcal/mol
-----------------------------------------------------------------------
Total correction                          0.31485946 Eh     197.58 kcal/mol


--------
ENTHALPY
--------

The enthalpy is H = U + kB*T
                kB is Boltzmann's constant
Total free energy                 ...   -765.48119081 Eh 
Thermal Enthalpy correction       ...      0.00094421 Eh       0.59 kcal/mol
-----------------------------------------------------------------------
Total Enthalpy                    ...   -765.48024660 Eh


Note: Only C1 symmetry has been detected, increase convergence thresholds 
      if your molecule has a higher symmetry. Symmetry factor of 1.0 is   
      used for the rotational entropy correction. 
 

Note: Rotational entropy computed according to Herzberg 
Infrared and Raman Spectra, Chapter V,1, Van Nostrand Reinhold, 1945 
Point Group:  C1, Symmetry Number:   1  
Rotational constants in cm-1:     0.023181     0.011339     0.009601 

Vibrational entropy computed according to the QRRHO of S. Grimme
Chem.Eur.J. 2012 18 9955


-------
ENTROPY
-------

The entropy contributions are T*S = T*(S(el)+S(vib)+S(rot)+S(trans))
     S(el)   - electronic entropy
     S(vib)  - vibrational entropy
     S(rot)  - rotational entropy
     S(trans)- translational entropy
The entropies will be listed as multiplied by the temperature to get
units of energy

Electronic entropy                ...      0.00000000 Eh      0.00 kcal/mol
Vibrational entropy               ...      0.02594338 Eh     16.28 kcal/mol
Rotational entropy                ...      0.01559596 Eh      9.79 kcal/mol
Translational entropy             ...      0.02007710 Eh     12.60 kcal/mol
-----------------------------------------------------------------------
Final entropy term                ...      0.06161643 Eh     38.66 kcal/mol

In case the symmetry of your molecule has not been determined correctly
or in case you have a reason to use a different symmetry number we print 
out the resulting rotational entropy values for sn=1,12 :
 --------------------------------------------------------
|  sn= 1 | S(rot)=       0.01559596 Eh      9.79 kcal/mol|
|  sn= 2 | S(rot)=       0.01494150 Eh      9.38 kcal/mol|
|  sn= 3 | S(rot)=       0.01455867 Eh      9.14 kcal/mol|
|  sn= 4 | S(rot)=       0.01428705 Eh      8.97 kcal/mol|
|  sn= 5 | S(rot)=       0.01407636 Eh      8.83 kcal/mol|
|  sn= 6 | S(rot)=       0.01390421 Eh      8.73 kcal/mol|
|  sn= 7 | S(rot)=       0.01375867 Eh      8.63 kcal/mol|
|  sn= 8 | S(rot)=       0.01363259 Eh      8.55 kcal/mol|
|  sn= 9 | S(rot)=       0.01352138 Eh      8.48 kcal/mol|
|  sn=10 | S(rot)=       0.01342190 Eh      8.42 kcal/mol|
|  sn=11 | S(rot)=       0.01333191 Eh      8.37 kcal/mol|
|  sn=12 | S(rot)=       0.01324976 Eh      8.31 kcal/mol|
 --------------------------------------------------------


-------------------
GIBBS FREE ENERGY
-------------------

The Gibbs free energy is G = H - T*S

Total enthalpy                    ...   -765.48024660 Eh 
Total entropy correction          ...     -0.06161643 Eh    -38.66 kcal/mol
-----------------------------------------------------------------------
Final Gibbs free energy         ...   -765.54186303 Eh

For completeness - the Gibbs free energy minus the electronic energy
G-E(el)                           ...      0.25418724 Eh    159.50 kcal/mol


Timings for individual modules:

Sum of individual times         ...     2000.874 sec (=  33.348 min)
GTO integral calculation        ...       16.996 sec (=   0.283 min)   0.8 %
SCF iterations                  ...      822.995 sec (=  13.717 min)  41.1 %
SCF Gradient evaluation         ...      243.810 sec (=   4.063 min)  12.2 %
Geometry relaxation             ...        1.139 sec (=   0.019 min)   0.1 %
Analytical frequency calculation...      915.934 sec (=  15.266 min)  45.8 %
                             ****ORCA TERMINATED NORMALLY****
TOTAL RUN TIME: 0 days 0 hours 33 minutes 25 seconds 694 msec
