
                                 *****************
                                 * O   R   C   A *
                                 *****************

                                            #,                                       
                                            ###                                      
                                            ####                                     
                                            #####                                    
                                            ######                                   
                                           ########,                                 
                                     ,,################,,,,,                         
                               ,,#################################,,                 
                          ,,##########################################,,             
                       ,#########################################, ''#####,          
                    ,#############################################,,   '####,        
                  ,##################################################,,,,####,       
                ,###########''''           ''''###############################       
              ,#####''   ,,,,##########,,,,          '''####'''          '####       
            ,##' ,,,,###########################,,,                        '##       
           ' ,,###''''                  '''############,,,                           
         ,,##''                                '''############,,,,        ,,,,,,###''
      ,#''                                            '''#######################'''  
     '                                                          ''''####''''         
             ,#######,   #######,   ,#######,      ##                                
            ,#'     '#,  ##    ##  ,#'     '#,    #''#        ######   ,####,        
            ##       ##  ##   ,#'  ##            #'  '#       #        #'  '#        
            ##       ##  #######   ##           ,######,      #####,   #    #        
            '#,     ,#'  ##    ##  '#,     ,#' ,#      #,         ##   #,  ,#        
             '#######'   ##     ##  '#######'  #'      '#     #####' # '####'        



                  #######################################################
                  #                        -***-                        #
                  #          Department of theory and spectroscopy      #
                  #    Directorship and core code : Frank Neese         #
                  #        Max Planck Institute fuer Kohlenforschung    #
                  #                Kaiser Wilhelm Platz 1               #
                  #                 D-45470 Muelheim/Ruhr               #
                  #                      Germany                        #
                  #                                                     #
                  #                  All rights reserved                #
                  #                        -***-                        #
                  #######################################################


                         Program Version 5.0.4 -  RELEASE  -


 With contributions from (in alphabetic order):
   Daniel Aravena         : Magnetic Suceptibility
   Michael Atanasov       : Ab Initio Ligand Field Theory (pilot matlab implementation)
   Alexander A. Auer      : GIAO ZORA, VPT2 properties, NMR spectrum
   Ute Becker             : Parallelization
   Giovanni Bistoni       : ED, misc. LED, open-shell LED, HFLD
   Martin Brehm           : Molecular dynamics
   Dmytro Bykov           : SCF Hessian
   Vijay G. Chilkuri      : MRCI spin determinant printing, contributions to CSF-ICE
   Dipayan Datta          : RHF DLPNO-CCSD density
   Achintya Kumar Dutta   : EOM-CC, STEOM-CC
   Dmitry Ganyushin       : Spin-Orbit,Spin-Spin,Magnetic field MRCI
   Miquel Garcia          : C-PCM and meta-GGA Hessian, CC/C-PCM, Gaussian charge scheme
   Yang Guo               : DLPNO-NEVPT2, F12-NEVPT2, CIM, IAO-localization
   Andreas Hansen         : Spin unrestricted coupled pair/coupled cluster methods
   Benjamin Helmich-Paris : MC-RPA, TRAH-SCF, COSX integrals
   Lee Huntington         : MR-EOM, pCC
   Robert Izsak           : Overlap fitted RIJCOSX, COSX-SCS-MP3, EOM
   Marcus Kettner         : VPT2
   Christian Kollmar      : KDIIS, OOCD, Brueckner-CCSD(T), CCSD density, CASPT2, CASPT2-K
   Simone Kossmann        : Meta GGA functionals, TD-DFT gradient, OOMP2, MP2 Hessian
   Martin Krupicka        : Initial AUTO-CI
   Lucas Lang             : DCDCAS
   Marvin Lechner         : AUTO-CI (C++ implementation), FIC-MRCC
   Dagmar Lenk            : GEPOL surface, SMD
   Dimitrios Liakos       : Extrapolation schemes; Compound Job, initial MDCI parallelization
   Dimitrios Manganas     : Further ROCIS development; embedding schemes
   Dimitrios Pantazis     : SARC Basis sets
   Anastasios Papadopoulos: AUTO-CI, single reference methods and gradients
   Taras Petrenko         : DFT Hessian,TD-DFT gradient, ASA, ECA, R-Raman, ABS, FL, XAS/XES, NRVS
   Peter Pinski           : DLPNO-MP2, DLPNO-MP2 Gradient
   Christoph Reimann      : Effective Core Potentials
   Marius Retegan         : Local ZFS, SOC
   Christoph Riplinger    : Optimizer, TS searches, QM/MM, DLPNO-CCSD(T), (RO)-DLPNO pert. Triples
   Tobias Risthaus        : Range-separated hybrids, TD-DFT gradient, RPA, STAB
   Michael Roemelt        : Original ROCIS implementation
   Masaaki Saitow         : Open-shell DLPNO-CCSD energy and density
   Barbara Sandhoefer     : DKH picture change effects
   Avijit Sen             : IP-ROCIS
   Kantharuban Sivalingam : CASSCF convergence, NEVPT2, FIC-MRCI
   Bernardo de Souza      : ESD, SOC TD-DFT
   Georgi Stoychev        : AutoAux, RI-MP2 NMR, DLPNO-MP2 response
   Willem Van den Heuvel  : Paramagnetic NMR
   Boris Wezisla          : Elementary symmetry handling
   Frank Wennmohs         : Technical directorship


 We gratefully acknowledge several colleagues who have allowed us to
 interface, adapt or use parts of their codes:
   Stefan Grimme, W. Hujo, H. Kruse, P. Pracht,  : VdW corrections, initial TS optimization,
                  C. Bannwarth, S. Ehlert          DFT functionals, gCP, sTDA/sTD-DF
   Ed Valeev, F. Pavosevic, A. Kumar             : LibInt (2-el integral package), F12 methods
   Garnet Chan, S. Sharma, J. Yang, R. Olivares  : DMRG
   Ulf Ekstrom                                   : XCFun DFT Library
   Mihaly Kallay                                 : mrcc  (arbitrary order and MRCC methods)
   Jiri Pittner, Ondrej Demel                    : Mk-CCSD
   Frank Weinhold                                : gennbo (NPA and NBO analysis)
   Christopher J. Cramer and Donald G. Truhlar   : smd solvation model
   Lars Goerigk                                  : TD-DFT with DH, B97 family of functionals
   V. Asgeirsson, H. Jonsson                     : NEB implementation
   FAccTs GmbH                                   : IRC, NEB, NEB-TS, DLPNO-Multilevel, CI-OPT
                                                   MM, QMMM, 2- and 3-layer-ONIOM, Crystal-QMMM,
                                                   LR-CPCM, SF, NACMEs, symmetry and pop. for TD-DFT,
                                                   nearIR, NL-DFT gradient (VV10), updates on ESD,
                                                   ML-optimized integration grids
   S Lehtola, MJT Oliveira, MAL Marques          : LibXC Library
   Liviu Ungur et al                             : ANISO software


 Your calculation uses the libint2 library for the computation of 2-el integrals
 For citations please refer to: http://libint.valeyev.net

 Your ORCA version has been built with support for libXC version: 5.1.0
 For citations please refer to: https://tddft.org/programs/libxc/

 This ORCA versions uses:
   CBLAS   interface :  Fast vector & matrix operations
   LAPACKE interface :  Fast linear algebra routines
   SCALAPACK package :  Parallel linear algebra routines
   Shared memory     :  Shared parallel matrices
   BLAS/LAPACK       :  OpenBLAS 0.3.15  USE64BITINT DYNAMIC_ARCH NO_AFFINITY SkylakeX SINGLE_THREADED
        Core in use  :  SkylakeX
   Copyright (c) 2011-2014, The OpenBLAS Project




***************************************
The coordinates will be read from file: /users/fjb15167/WWenergy/structures/Nkeqm.xyz
***************************************


Your calculation utilizes the atom-pairwise dispersion correction
based on tight binding partial charges (D4)
Cite in your paper:
E.Caldeweyher, C.Bannwarth, S.Grimme, J.Chem.Phys., (2017), 147, 034112.
E.Caldeweyher, S.Ehlert, A.Hansen, H.Neugebauer, S.Grimme, J.Chem.Phys., (2018), in progress.
   

================================================================================

----- Orbital basis set information -----
Your calculation utilizes the basis: 6-31+G(d)
   H-He, Li-Ne : W. J. Hehre, R. Ditchfield and J.A. Pople, J. Chem. Phys. 56, 2257 (1972).
                 Note: He and Ne are unpublished basis sets taken from the Gaussian program.
                 Note: Li and B from J. D. Dill and J. A. Pople, J. Chem. Phys. 62, 2921 (1975).
   Na - Ar     : M. M. Francl, W. J. Pietro, W. J. Hehre, J. S. Binkley, M. S. Gordon, 
                 D. J. DeFrees and J. A. Pople, J. Chem. Phys. 77, 3654 (1982).
   K - Zn      : V. A. Rassolov, J. A. Pople, M. A. Ratner, and T. L. Windus, J. Chem. Phys. 109, 1223 (1998).
   Additional Pol./Diff. from the 6-311G equivalent.

----- AuxJ basis set information -----
Your calculation utilizes the AutoAux generation procedure.
  G. L. Stoychev, A. A. Auer, F. Neese, J. Chem. Theory Comput. 13, 554 (2017)

----- AuxC basis set information -----
Your calculation utilizes the AutoAux generation procedure.
  G. L. Stoychev, A. A. Auer, F. Neese, J. Chem. Theory Comput. 13, 554 (2017)

----- AuxJK basis set information -----
Your calculation utilizes the AutoAux generation procedure.
  G. L. Stoychev, A. A. Auer, F. Neese, J. Chem. Theory Comput. 13, 554 (2017)

================================================================================
                                        WARNINGS
                       Please study these warnings very carefully!
================================================================================


WARNING: Geometry Optimization
  ===> : Switching off AutoStart
         For restart on a previous wavefunction, please use MOREAD

INFO   : the flag for use of the SHARK integral package has been found!

================================================================================
                                       INPUT FILE
================================================================================
NAME = Nkeqm_gas.inp
|  1> ! OPT FREQ B3LYP 6-31+G(d) D4 AUTOAUX
|  2> 
|  3> %PAL NPROCS 4 END
|  4> 
|  5> %maxcore 3375
|  6> 
|  7> *xyzfile 1 1 /users/fjb15167/WWenergy/structures/Nkeqm.xyz
|  8> 
|  9>                          ****END OF INPUT****
================================================================================

                       *****************************
                       * Geometry Optimization Run *
                       *****************************

Geometry optimization settings:
Update method            Update   .... BFGS
Choice of coordinates    CoordSys .... Z-matrix Internals
Initial Hessian          InHess   .... Almoef's Model

Convergence Tolerances:
Energy Change            TolE     ....  5.0000e-06 Eh
Max. Gradient            TolMAXG  ....  3.0000e-04 Eh/bohr
RMS Gradient             TolRMSG  ....  1.0000e-04 Eh/bohr
Max. Displacement        TolMAXD  ....  4.0000e-03 bohr
RMS Displacement         TolRMSD  ....  2.0000e-03 bohr
Strict Convergence                ....  False
------------------------------------------------------------------------------
                        ORCA OPTIMIZATION COORDINATE SETUP
------------------------------------------------------------------------------

The optimization will be done in new redundant internal coordinates
Making redundant internal coordinates   ...  (new redundants) done
Evaluating the initial hessian          ...  (Almloef) done
Evaluating the coordinates              ...  done
Calculating the B-matrix                .... done
Calculating the G-matrix                .... done
Diagonalizing the G-matrix              .... done
Small eigenvalue found = 3.168e-03
Small eigenvalue found = 6.582e-03
Small eigenvalue found = 1.091e-02
Small eigenvalue found = 1.397e-02
Small eigenvalue found = 1.783e-02
Small eigenvalue found = 2.259e-02
Small eigenvalue found = 2.887e-02
The first mode is                       ....   86
The number of degrees of freedom        ....  114

    -----------------------------------------------------------------
                    Redundant Internal Coordinates


    -----------------------------------------------------------------
         Definition                    Initial Value    Approx d2E/dq
    -----------------------------------------------------------------
      1. B(H   1,C   0)                  1.0931         0.356060   
      2. B(H   2,C   0)                  1.0938         0.355139   
      3. B(H   3,C   0)                  1.0890         0.361378   
      4. B(C   4,C   0)                  1.5242         0.381552   
      5. B(O   5,C   4)                  1.2186         1.050158   
      6. B(N   6,C   4)                  1.3904         0.558756   
      7. B(C   7,N   6)                  1.4540         0.442306   
      8. B(H   8,C   7)                  1.0951         0.353365   
      9. B(H   9,C   7)                  1.0925         0.356860   
     10. B(C  10,N   6)                  1.4586         0.434988   
     11. B(H  11,C  10)                  1.0934         0.355579   
     12. B(H  12,C  10)                  1.0937         0.355292   
     13. B(C  13,C  10)                  1.5320         0.370782   
     14. B(H  14,C  13)                  1.0895         0.360731   
     15. B(H  15,C  13)                  1.0940         0.354846   
     16. B(C  16,C   7)                  1.5412         0.358491   
     17. B(N  17,C  16)                  1.3562         0.633505   
     18. B(O  18,C  16)                  1.2409         0.967764   
     19. B(C  19,N  17)                  1.4605         0.431972   
     20. B(H  20,C  19)                  1.0931         0.356074   
     21. B(H  21,C  19)                  1.0944         0.354333   
     22. B(H  22,C  19)                  1.0881         0.362608   
     23. B(C  23,N  17)                  1.4562         0.438740   
     24. B(H  24,C  23)                  1.0934         0.355629   
     25. B(H  25,C  23)                  1.0890         0.361444   
     26. B(H  26,C  23)                  1.0967         0.351373   
     27. B(N  27,C  13)                  1.5166         0.351478   
     28. B(C  28,N  27)                  1.4986         0.375512   
     29. B(H  29,C  28)                  1.0913         0.358388   
     30. B(H  30,C  28)                  1.0893         0.361009   
     31. B(C  31,N  27)                  1.5001         0.373416   
     32. B(H  32,C  31)                  1.0905         0.359379   
     33. B(H  33,C  31)                  1.0899         0.360230   
     34. B(C  34,N  27)                  1.5060         0.365424   
     35. B(H  35,C  34)                  1.0877         0.363122   
     36. B(H  36,C  34)                  1.0864         0.364945   
     37. B(H  37,C  31)                  1.0909         0.358854   
     38. B(H  38,C  28)                  1.0905         0.359389   
     39. B(H  39,C  34)                  1.0910         0.358789   
     40. A(H   2,C   0,C   4)          110.4474         0.324706   
     41. A(H   1,C   0,C   4)          112.1494         0.324844   
     42. A(H   3,C   0,C   4)          107.2012         0.325637   
     43. A(H   2,C   0,H   3)          108.8395         0.290368   
     44. A(H   1,C   0,H   2)          108.7958         0.289694   
     45. A(H   1,C   0,H   3)          109.3452         0.290486   
     46. A(C   0,C   4,N   6)          116.9933         0.388481   
     47. A(O   5,C   4,N   6)          120.7094         0.462510   
     48. A(C   0,C   4,O   5)          122.2581         0.434457   
     49. A(C   4,N   6,C   7)          120.9047         0.396118   
     50. A(C   4,N   6,C  10)          112.2064         0.394960   
     51. A(C   7,N   6,C  10)          116.1854         0.379196   
     52. A(N   6,C   7,H   9)          109.3951         0.330981   
     53. A(H   9,C   7,C  16)          111.3365         0.321657   
     54. A(N   6,C   7,C  16)          109.9706         0.369071   
     55. A(H   8,C   7,H   9)          106.5922         0.289568   
     56. A(H   8,C   7,C  16)          111.1800         0.321140   
     57. A(N   6,C   7,H   8)          108.2589         0.330442   
     58. A(H  12,C  10,C  13)          112.8406         0.323206   
     59. A(H  11,C  10,C  13)          110.3487         0.323249   
     60. A(N   6,C  10,C  13)          108.8119         0.370153   
     61. A(H  11,C  10,H  12)          107.7476         0.289652   
     62. A(N   6,C  10,H  12)          108.8556         0.329828   
     63. A(N   6,C  10,H  11)          108.1210         0.329872   
     64. A(H  14,C  13,H  15)          109.2090         0.290249   
     65. A(H  15,C  13,N  27)          105.9049         0.318419   
     66. A(C  10,C  13,H  15)          111.1454         0.323139   
     67. A(C  10,C  13,H  14)          110.1346         0.324012   
     68. A(H  14,C  13,N  27)          105.9184         0.319275   
     69. A(C  10,C  13,N  27)          114.2620         0.356909   
     70. A(N  17,C  16,O  18)          123.9583         0.466235   
     71. A(C   7,C  16,O  18)          118.4172         0.423375   
     72. A(C   7,C  16,N  17)          117.6139         0.392797   
     73. A(C  16,N  17,C  19)          119.0302         0.403285   
     74. A(C  19,N  17,C  23)          115.6082         0.378209   
     75. A(C  16,N  17,C  23)          124.4968         0.404392   
     76. A(H  20,C  19,H  21)          109.0724         0.289592   
     77. A(H  21,C  19,H  22)          109.6125         0.290419   
     78. A(H  20,C  19,H  22)          110.0505         0.290643   
     79. A(N  17,C  19,H  22)          108.4898         0.330561   
     80. A(N  17,C  19,H  21)          110.1953         0.329302   
     81. A(N  17,C  19,H  20)          109.4106         0.329569   
     82. A(H  25,C  23,H  26)          109.0063         0.289891   
     83. A(H  24,C  23,H  26)          108.4086         0.289155   
     84. A(N  17,C  23,H  26)          111.0795         0.329692   
     85. A(H  24,C  23,H  25)          107.9347         0.290439   
     86. A(N  17,C  23,H  25)          111.5247         0.331236   
     87. A(N  17,C  23,H  24)          108.7855         0.330349   
     88. A(C  31,N  27,C  34)          108.3097         0.357485   
     89. A(C  28,N  27,C  34)          109.7825         0.357826   
     90. A(C  13,N  27,C  34)          111.3288         0.353831   
     91. A(C  28,N  27,C  31)          108.9374         0.359145   
     92. A(C  13,N  27,C  31)          108.0135         0.355131   
     93. A(C  13,N  27,C  28)          110.3971         0.355468   
     94. A(H  29,C  28,H  30)          110.3846         0.290737   
     95. A(N  27,C  28,H  30)          109.2118         0.322789   
     96. A(N  27,C  28,H  29)          108.7356         0.322404   
     97. A(H  30,C  28,H  38)          109.7714         0.290864   
     98. A(H  29,C  28,H  38)          110.0583         0.290532   
     99. A(N  27,C  28,H  38)          108.6433         0.322551   
    100. A(H  32,C  31,H  33)          110.2217         0.290764   
    101. A(N  27,C  31,H  33)          108.9473         0.322379   
    102. A(N  27,C  31,H  32)          108.4949         0.322254   
    103. A(H  33,C  31,H  37)          110.1945         0.290698   
    104. A(H  32,C  31,H  37)          110.1231         0.290590   
    105. A(N  27,C  31,H  37)          108.8163         0.322177   
    106. A(H  35,C  34,H  36)          108.8919         0.291834   
    107. A(N  27,C  34,H  36)          109.7481         0.321924   
    108. A(N  27,C  34,H  35)          108.5914         0.321660   
    109. A(H  36,C  34,H  39)          110.6613         0.291284   
    110. A(H  35,C  34,H  39)          111.3424         0.291055   
    111. A(N  27,C  34,H  39)          107.5681         0.321029   
    112. D(O   5,C   4,C   0,H   1)   -126.0036         0.010858   
    113. D(O   5,C   4,C   0,H   2)    112.4608         0.010858   
    114. D(N   6,C   4,C   0,H   1)     51.7344         0.010858   
    115. D(N   6,C   4,C   0,H   2)    -69.8013         0.010858   
    116. D(O   5,C   4,C   0,H   3)     -5.9761         0.010858   
    117. D(N   6,C   4,C   0,H   3)    171.7619         0.010858   
    118. D(C   7,N   6,C   4,C   0)     23.7218         0.024928   
    119. D(C  10,N   6,C   4,C   0)    166.8384         0.024928   
    120. D(C  10,N   6,C   4,O   5)    -15.3865         0.024928   
    121. D(C   7,N   6,C   4,O   5)   -158.5031         0.024928   
    122. D(H   9,C   7,N   6,C  10)    167.0321         0.016683   
    123. D(H   9,C   7,N   6,C   4)    -51.2272         0.016683   
    124. D(H   8,C   7,N   6,C  10)     51.2506         0.016683   
    125. D(C  16,C   7,N   6,C   4)     71.3441         0.016683   
    126. D(H   8,C   7,N   6,C   4)   -167.0087         0.016683   
    127. D(C  16,C   7,N   6,C  10)    -70.3966         0.016683   
    128. D(C  13,C  10,N   6,C   4)     77.5487         0.016133   
    129. D(C  13,C  10,N   6,C   7)   -137.4719         0.016133   
    130. D(H  12,C  10,N   6,C   7)     99.1839         0.016133   
    131. D(H  12,C  10,N   6,C   4)    -45.7955         0.016133   
    132. D(H  11,C  10,N   6,C   7)    -17.6036         0.016133   
    133. D(H  11,C  10,N   6,C   4)   -162.5829         0.016133   
    134. D(H  15,C  13,C  10,H  12)   -147.7860         0.010987   
    135. D(N  27,C  13,C  10,H  11)     92.5870         0.010987   
    136. D(H  15,C  13,C  10,H  11)    -27.1896         0.010987   
    137. D(H  15,C  13,C  10,N   6)     91.2863         0.010987   
    138. D(H  14,C  13,C  10,H  12)     91.0469         0.010987   
    139. D(N  27,C  13,C  10,N   6)   -148.9371         0.010987   
    140. D(H  14,C  13,C  10,H  11)   -148.3566         0.010987   
    141. D(N  27,C  13,C  10,H  12)    -28.0094         0.010987   
    142. D(H  14,C  13,C  10,N   6)    -29.8808         0.010987   
    143. D(O  18,C  16,C   7,H   9)    120.6027         0.009671   
    144. D(O  18,C  16,C   7,H   8)   -120.7032         0.009671   
    145. D(O  18,C  16,C   7,N   6)     -0.8149         0.009671   
    146. D(N  17,C  16,C   7,H   9)    -60.5312         0.009671   
    147. D(N  17,C  16,C   7,H   8)     58.1629         0.009671   
    148. D(N  17,C  16,C   7,N   6)    178.0511         0.009671   
    149. D(C  23,N  17,C  16,O  18)   -173.2380         0.032610   
    150. D(C  23,N  17,C  16,C   7)      7.9644         0.032610   
    151. D(C  19,N  17,C  16,O  18)     -4.3710         0.032610   
    152. D(C  19,N  17,C  16,C   7)    176.8314         0.032610   
    153. D(H  22,C  19,N  17,C  16)     10.2402         0.015909   
    154. D(H  21,C  19,N  17,C  23)     60.0686         0.015909   
    155. D(H  21,C  19,N  17,C  16)   -109.7672         0.015909   
    156. D(H  20,C  19,N  17,C  23)    -59.8495         0.015909   
    157. D(H  22,C  19,N  17,C  23)   -179.9239         0.015909   
    158. D(H  20,C  19,N  17,C  16)    130.3146         0.015909   
    159. D(H  26,C  23,N  17,C  19)    -70.3159         0.016413   
    160. D(H  26,C  23,N  17,C  16)     98.8936         0.016413   
    161. D(H  25,C  23,N  17,C  19)    167.8661         0.016413   
    162. D(H  25,C  23,N  17,C  16)    -22.9244         0.016413   
    163. D(H  24,C  23,N  17,C  19)     48.9322         0.016413   
    164. D(H  24,C  23,N  17,C  16)   -141.8583         0.016413   
    165. D(C  34,N  27,C  13,H  15)   -169.9714         0.011383   
    166. D(C  34,N  27,C  13,H  14)    -54.0573         0.011383   
    167. D(C  34,N  27,C  13,C  10)     67.3540         0.011383   
    168. D(C  31,N  27,C  13,H  15)    -51.1811         0.011383   
    169. D(C  31,N  27,C  13,H  14)     64.7329         0.011383   
    170. D(C  31,N  27,C  13,C  10)   -173.8557         0.011383   
    171. D(C  28,N  27,C  13,H  15)     67.8317         0.011383   
    172. D(C  28,N  27,C  13,H  14)   -176.2542         0.011383   
    173. D(C  28,N  27,C  13,C  10)    -54.8429         0.011383   
    174. D(H  29,C  28,N  27,C  13)    -55.5913         0.012922   
    175. D(H  38,C  28,N  27,C  31)    -56.9206         0.012922   
    176. D(H  38,C  28,N  27,C  13)   -175.3703         0.012922   
    177. D(H  30,C  28,N  27,C  34)    -58.1829         0.012922   
    178. D(H  30,C  28,N  27,C  31)   -176.6314         0.012922   
    179. D(H  30,C  28,N  27,C  13)     64.9190         0.012922   
    180. D(H  29,C  28,N  27,C  34)   -178.6932         0.012922   
    181. D(H  38,C  28,N  27,C  34)     61.5279         0.012922   
    182. D(H  29,C  28,N  27,C  31)     62.8583         0.012922   
    183. D(H  37,C  31,N  27,C  34)    -57.6511         0.012783   
    184. D(H  37,C  31,N  27,C  13)   -178.3460         0.012783   
    185. D(H  33,C  31,N  27,C  34)   -177.8212         0.012783   
    186. D(H  33,C  31,N  27,C  28)    -58.4519         0.012783   
    187. D(H  33,C  31,N  27,C  13)     61.4840         0.012783   
    188. D(H  32,C  31,N  27,C  34)     62.1662         0.012783   
    189. D(H  37,C  31,N  27,C  28)     61.7181         0.012783   
    190. D(H  32,C  31,N  27,C  28)   -178.4645         0.012783   
    191. D(H  32,C  31,N  27,C  13)    -58.5287         0.012783   
    192. D(H  39,C  34,N  27,C  31)     58.8607         0.012260   
    193. D(H  39,C  34,N  27,C  28)    -59.9751         0.012260   
    194. D(H  39,C  34,N  27,C  13)    177.4735         0.012260   
    195. D(H  36,C  34,N  27,C  31)    179.3179         0.012260   
    196. D(H  36,C  34,N  27,C  28)     60.4821         0.012260   
    197. D(H  36,C  34,N  27,C  13)    -62.0693         0.012260   
    198. D(H  35,C  34,N  27,C  31)    -61.7539         0.012260   
    199. D(H  35,C  34,N  27,C  28)    179.4103         0.012260   
    200. D(H  35,C  34,N  27,C  13)     56.8589         0.012260   
    -----------------------------------------------------------------

Number of atoms                         .... 40
Number of degrees of freedom            .... 200

         *************************************************************
         *                GEOMETRY OPTIMIZATION CYCLE   1            *
         *************************************************************
---------------------------------
CARTESIAN COORDINATES (ANGSTROEM)
---------------------------------
  C      1.039000    2.743000    0.144000
  H      1.237000    3.067000   -0.881000
  H      1.988000    2.480000    0.620000
  H      0.582000    3.561000    0.699000
  C      0.072000    1.566000    0.198000
  O     -0.945000    1.590000    0.869000
  N      0.373000    0.465000   -0.596000
  C      1.738000    0.203000   -1.023000
  H      1.711000   -0.556000   -1.812000
  H      2.157000    1.106000   -1.473000
  C     -0.427000   -0.703000   -0.245000
  H      0.058000   -1.587000   -0.668000
  H     -0.432000   -0.814000    0.843000
  C     -1.832000   -0.534000   -0.832000
  H     -2.090000    0.523000   -0.889000
  H     -1.898000   -0.975000   -1.831000
  C      2.583000   -0.270000    0.176000
  N      3.878000   -0.598000   -0.058000
  O      2.038000   -0.349000    1.288000
  C      4.726000   -0.983000    1.067000
  H      5.242000   -1.917000    0.830000
  H      5.469000   -0.204000    1.264000
  H      4.096000   -1.117000    1.944000
  C      4.569000   -0.379000   -1.321000
  H      5.231000   -1.228000   -1.512000
  H      3.869000   -0.306000   -2.152000
  H      5.177000    0.533000   -1.285000
  N     -2.931000   -1.187000   -0.016000
  C     -2.627000   -2.638000    0.203000
  H     -2.477000   -3.115000   -0.767000
  H     -1.729000   -2.728000    0.813000
  C     -4.213000   -1.069000   -0.786000
  H     -4.413000   -0.012000   -0.965000
  H     -4.107000   -1.598000   -1.733000
  C     -3.111000   -0.498000    1.311000
  H     -3.320000    0.554000    1.130000
  H     -2.198000   -0.580000    1.894000
  H     -5.019000   -1.509000   -0.197000
  H     -3.471000   -3.097000    0.719000
  H     -3.941000   -0.985000    1.825000

----------------------------
CARTESIAN COORDINATES (A.U.)
----------------------------
  NO LB      ZA    FRAG     MASS         X           Y           Z
   0 C     6.0000    0    12.011    1.963425    5.183519    0.272121
   1 H     1.0000    0     1.008    2.337591    5.795790   -1.664849
   2 H     1.0000    0     1.008    3.756776    4.686521    1.171630
   3 H     1.0000    0     1.008    1.099821    6.729315    1.320919
   4 C     6.0000    0    12.011    0.136060    2.959311    0.374166
   5 O     8.0000    0    15.999   -1.785791    3.004665    1.642172
   6 N     7.0000    0    14.007    0.704868    0.878723   -1.126277
   7 C     6.0000    0    12.011    3.284344    0.383614   -1.933190
   8 H     1.0000    0     1.008    3.233321   -1.050688   -3.424184
   9 H     1.0000    0     1.008    4.076139    2.090037   -2.783567
  10 C     6.0000    0    12.011   -0.806913   -1.328477   -0.462983
  11 H     1.0000    0     1.008    0.109604   -2.998995   -1.262337
  12 H     1.0000    0     1.008   -0.816362   -1.538237    1.593039
  13 C     6.0000    0    12.011   -3.461978   -1.009114   -1.572252
  14 H     1.0000    0     1.008   -3.949528    0.988327   -1.679967
  15 H     1.0000    0     1.008   -3.586700   -1.842483   -3.460089
  16 C     6.0000    0    12.011    4.881163   -0.510226    0.332592
  17 N     7.0000    0    14.007    7.328358   -1.130056   -0.109604
  18 O     8.0000    0    15.999    3.851262   -0.659514    2.433967
  19 C     6.0000    0    12.011    8.930846   -1.857601    2.016338
  20 H     1.0000    0     1.008    9.905944   -3.622605    1.568473
  21 H     1.0000    0     1.008   10.334912   -0.385504    2.388614
  22 H     1.0000    0     1.008    7.740318   -2.110824    3.673628
  23 C     6.0000    0    12.011    8.634159   -0.716206   -2.496328
  24 H     1.0000    0     1.008    9.885157   -2.320584   -2.857266
  25 H     1.0000    0     1.008    7.311350   -0.578256   -4.066691
  26 H     1.0000    0     1.008    9.783112    1.007224   -2.428298
  27 N     7.0000    0    14.007   -5.538787   -2.243105   -0.030236
  28 C     6.0000    0    12.011   -4.964311   -4.985098    0.383614
  29 H     1.0000    0     1.008   -4.680852   -5.886497   -1.449420
  30 H     1.0000    0     1.008   -3.267336   -5.155173    1.536347
  31 C     6.0000    0    12.011   -7.961416   -2.020117   -1.485325
  32 H     1.0000    0     1.008   -8.339361   -0.022677   -1.823586
  33 H     1.0000    0     1.008   -7.761105   -3.019782   -3.274895
  34 C     6.0000    0    12.011   -5.878938   -0.941084    2.477431
  35 H     1.0000    0     1.008   -6.273891    1.046908    2.135391
  36 H     1.0000    0     1.008   -4.153618   -1.096041    3.579141
  37 H     1.0000    0     1.008   -9.484535   -2.851597   -0.372276
  38 H     1.0000    0     1.008   -6.559239   -5.852482    1.358713
  39 H     1.0000    0     1.008   -7.447411   -1.861380    3.448750

--------------------------------
INTERNAL COORDINATES (ANGSTROEM)
--------------------------------
 C      0   0   0     0.000000000000     0.00000000     0.00000000
 H      1   0   0     1.093071360891     0.00000000     0.00000000
 H      1   2   0     1.093776028262   108.79580384     0.00000000
 H      1   2   3     1.089035352962   109.34523435   118.75131122
 C      1   2   3     1.524248667377   112.14944802   237.52224566
 O      5   1   2     1.218649252246   122.25813226   233.99644394
 N      5   1   2     1.390409292259   116.99328056    51.73436092
 C      7   5   1     1.454028197801   120.90467590    23.72182432
 H      8   7   5     1.095139717114   108.25891206   192.99130066
 H      8   7   5     1.092460525603   109.39508745   308.77282201
 C      7   5   1     1.458569504686   112.20639708   166.83844642
 H     11   7   5     1.093439527363   108.12095328   197.41705679
 H     11   7   5     1.093658996214   108.85559333   314.20448654
 C     11   7   5     1.532042753973   108.81189171    77.54868097
 H     14  11   7     1.089523749167   110.13459186   330.11923661
 H     14  11   7     1.094000914076   111.14541052    91.28630762
 C      8   7   5     1.541218673648   109.97059800    71.34414211
 N     17   8   7     1.356231912322   117.61387291   178.05113076
 O     17   8   7     1.240890809056   118.41724377   359.18506296
 C     18  17   8     1.460463625018   119.03024387   176.83139830
 H     20  18  17     1.093060382596   109.41062805   130.31463237
 H     20  18  17     1.094394353056   110.19525973   250.23275116
 H     20  18  17     1.088110748040   108.48979298    10.24021730
 C     18  17   8     1.456231781002   124.49681330     7.96441146
 H     24  18  17     1.093401115785   108.78547659   218.14168211
 H     24  18  17     1.088985766665   111.52472295   337.07559974
 H     24  18  17     1.096678622022   111.07948656    98.89358358
 N     14  11   7     1.516596848210   114.26201852   211.06289521
 C     28  14  11     1.498592005851   110.39705280   305.15712322
 H     29  28  14     1.091296934844   108.73564722   304.40866730
 H     29  28  14     1.089313545312   109.21182128    64.91896485
 C     28  14  11     1.500115995515   108.01346142   186.14428221
 H     32  28  14     1.090545734942   108.49494052   301.47134530
 H     32  28  14     1.089901830442   108.94733624    61.48398999
 C     28  14  11     1.506004648067   111.32877204    67.35402816
 H     35  28  14     1.087725149107   108.59142568    56.85892911
 H     35  28  14     1.086361818180   109.74810102   297.93066075
 H     32  28  14     1.090943169922   108.81630604   181.65403314
 H     29  28  14     1.090537940651   108.64331867   184.62973224
 H     35  28  14     1.090992667253   107.56814397   177.47350632

---------------------------
INTERNAL COORDINATES (A.U.)
---------------------------
 C      0   0   0     0.000000000000     0.00000000     0.00000000
 H      1   0   0     2.065605516917     0.00000000     0.00000000
 H      1   2   0     2.066937145263   108.79580384     0.00000000
 H      1   2   3     2.057978567256   109.34523435   118.75131122
 C      1   2   3     2.880412541337   112.14944802   237.52224566
 O      5   1   2     2.302913340053   122.25813226   233.99644394
 N      5   1   2     2.627492776429   116.99328056    51.73436092
 C      7   5   1     2.747715084843   120.90467590    23.72182432
 H      8   7   5     2.069514143725   108.25891206   192.99130066
 H      8   7   5     2.064451205509   109.39508745   308.77282201
 C      7   5   1     2.756296911146   112.20639708   166.83844642
 H     11   7   5     2.066301250721   108.12095328   197.41705679
 H     11   7   5     2.066715986744   108.85559333   314.20448654
 C     11   7   5     2.895141230467   108.81189171    77.54868097
 H     14  11   7     2.058901502330   110.13459186   330.11923661
 H     14  11   7     2.067362117864   111.14541052    91.28630762
 C      8   7   5     2.912481205679   109.97059800    71.34414211
 N     17   8   7     2.562906888372   117.61387291   178.05113076
 O     17   8   7     2.344943791216   118.41724377   359.18506296
 C     18  17   8     2.759876279837   119.03024387   176.83139830
 H     20  18  17     2.065584770945   109.41062805   130.31463237
 H     20  18  17     2.068105609785   110.19525973   250.23275116
 H     20  18  17     2.056231317172   108.48979298    10.24021730
 C     18  17   8     2.751879253606   124.49681330     7.96441146
 H     24  18  17     2.066228663358   108.78547659   218.14168211
 H     24  18  17     2.057884862736   111.52472295   337.07559974
 H     24  18  17     2.072422252548   111.07948656    98.89358358
 N     14  11   7     2.865952698685   114.26201852   211.06289521
 C     28  14  11     2.831928477542   110.39705280   305.15712322
 H     29  28  14     2.062252337643   108.73564722   304.40866730
 H     29  28  14     2.058504274610   109.21182128    64.91896485
 C     28  14  11     2.834808400638   108.01346142   186.14428221
 H     32  28  14     2.060832775556   108.49494052   301.47134530
 H     32  28  14     2.059615972394   108.94733624    61.48398999
 C     28  14  11     2.845936341259   111.32877204    67.35402816
 H     35  28  14     2.055502640791   108.59142568    56.85892911
 H     35  28  14     2.052926318710   109.74810102   297.93066075
 H     32  28  14     2.061583818825   108.81630604   181.65403314
 H     29  28  14     2.060818046481   108.64331867   184.62973224
 H     35  28  14     2.061677355225   107.56814397   177.47350632

---------------------
BASIS SET INFORMATION
---------------------
There are 4 groups of distinct atoms

 Group   1 Type C   : 11s5p1d contracted to 4s3p1d pattern {6311/311/1}
 Group   2 Type H   : 4s contracted to 2s pattern {31}
 Group   3 Type O   : 11s5p1d contracted to 4s3p1d pattern {6311/311/1}
 Group   4 Type N   : 11s5p1d contracted to 4s3p1d pattern {6311/311/1}

Atom   0C    basis set group =>   1
Atom   1H    basis set group =>   2
Atom   2H    basis set group =>   2
Atom   3H    basis set group =>   2
Atom   4C    basis set group =>   1
Atom   5O    basis set group =>   3
Atom   6N    basis set group =>   4
Atom   7C    basis set group =>   1
Atom   8H    basis set group =>   2
Atom   9H    basis set group =>   2
Atom  10C    basis set group =>   1
Atom  11H    basis set group =>   2
Atom  12H    basis set group =>   2
Atom  13C    basis set group =>   1
Atom  14H    basis set group =>   2
Atom  15H    basis set group =>   2
Atom  16C    basis set group =>   1
Atom  17N    basis set group =>   4
Atom  18O    basis set group =>   3
Atom  19C    basis set group =>   1
Atom  20H    basis set group =>   2
Atom  21H    basis set group =>   2
Atom  22H    basis set group =>   2
Atom  23C    basis set group =>   1
Atom  24H    basis set group =>   2
Atom  25H    basis set group =>   2
Atom  26H    basis set group =>   2
Atom  27N    basis set group =>   4
Atom  28C    basis set group =>   1
Atom  29H    basis set group =>   2
Atom  30H    basis set group =>   2
Atom  31C    basis set group =>   1
Atom  32H    basis set group =>   2
Atom  33H    basis set group =>   2
Atom  34C    basis set group =>   1
Atom  35H    basis set group =>   2
Atom  36H    basis set group =>   2
Atom  37H    basis set group =>   2
Atom  38H    basis set group =>   2
Atom  39H    basis set group =>   2
---------------------------------
AUXILIARY/J BASIS SET INFORMATION
---------------------------------
There are 4 groups of distinct atoms

 Group   1 Type C   : 16s13p12d2f contracted to 16s13p12d2f pattern {1111111111111111/1111111111111/111111111111/11}
 Group   2 Type H   : 9s2p contracted to 9s2p pattern {111111111/11}
 Group   3 Type O   : 16s13p12d3f contracted to 16s13p12d3f pattern {1111111111111111/1111111111111/111111111111/111}
 Group   4 Type N   : 16s13p12d3f contracted to 16s13p12d3f pattern {1111111111111111/1111111111111/111111111111/111}

Atom   0C    basis set group =>   1
Atom   1H    basis set group =>   2
Atom   2H    basis set group =>   2
Atom   3H    basis set group =>   2
Atom   4C    basis set group =>   1
Atom   5O    basis set group =>   3
Atom   6N    basis set group =>   4
Atom   7C    basis set group =>   1
Atom   8H    basis set group =>   2
Atom   9H    basis set group =>   2
Atom  10C    basis set group =>   1
Atom  11H    basis set group =>   2
Atom  12H    basis set group =>   2
Atom  13C    basis set group =>   1
Atom  14H    basis set group =>   2
Atom  15H    basis set group =>   2
Atom  16C    basis set group =>   1
Atom  17N    basis set group =>   4
Atom  18O    basis set group =>   3
Atom  19C    basis set group =>   1
Atom  20H    basis set group =>   2
Atom  21H    basis set group =>   2
Atom  22H    basis set group =>   2
Atom  23C    basis set group =>   1
Atom  24H    basis set group =>   2
Atom  25H    basis set group =>   2
Atom  26H    basis set group =>   2
Atom  27N    basis set group =>   4
Atom  28C    basis set group =>   1
Atom  29H    basis set group =>   2
Atom  30H    basis set group =>   2
Atom  31C    basis set group =>   1
Atom  32H    basis set group =>   2
Atom  33H    basis set group =>   2
Atom  34C    basis set group =>   1
Atom  35H    basis set group =>   2
Atom  36H    basis set group =>   2
Atom  37H    basis set group =>   2
Atom  38H    basis set group =>   2
Atom  39H    basis set group =>   2
---------------------------------
AUXILIARY/C BASIS SET INFORMATION
---------------------------------
There are 4 groups of distinct atoms

 Group   1 Type C   : 16s13p12d2f contracted to 16s13p12d2f pattern {1111111111111111/1111111111111/111111111111/11}
 Group   2 Type H   : 9s2p contracted to 9s2p pattern {111111111/11}
 Group   3 Type O   : 16s13p12d3f contracted to 16s13p12d3f pattern {1111111111111111/1111111111111/111111111111/111}
 Group   4 Type N   : 16s13p12d3f contracted to 16s13p12d3f pattern {1111111111111111/1111111111111/111111111111/111}

Atom   0C    basis set group =>   1
Atom   1H    basis set group =>   2
Atom   2H    basis set group =>   2
Atom   3H    basis set group =>   2
Atom   4C    basis set group =>   1
Atom   5O    basis set group =>   3
Atom   6N    basis set group =>   4
Atom   7C    basis set group =>   1
Atom   8H    basis set group =>   2
Atom   9H    basis set group =>   2
Atom  10C    basis set group =>   1
Atom  11H    basis set group =>   2
Atom  12H    basis set group =>   2
Atom  13C    basis set group =>   1
Atom  14H    basis set group =>   2
Atom  15H    basis set group =>   2
Atom  16C    basis set group =>   1
Atom  17N    basis set group =>   4
Atom  18O    basis set group =>   3
Atom  19C    basis set group =>   1
Atom  20H    basis set group =>   2
Atom  21H    basis set group =>   2
Atom  22H    basis set group =>   2
Atom  23C    basis set group =>   1
Atom  24H    basis set group =>   2
Atom  25H    basis set group =>   2
Atom  26H    basis set group =>   2
Atom  27N    basis set group =>   4
Atom  28C    basis set group =>   1
Atom  29H    basis set group =>   2
Atom  30H    basis set group =>   2
Atom  31C    basis set group =>   1
Atom  32H    basis set group =>   2
Atom  33H    basis set group =>   2
Atom  34C    basis set group =>   1
Atom  35H    basis set group =>   2
Atom  36H    basis set group =>   2
Atom  37H    basis set group =>   2
Atom  38H    basis set group =>   2
Atom  39H    basis set group =>   2
----------------------------------
AUXILIARY/JK BASIS SET INFORMATION
----------------------------------
There are 4 groups of distinct atoms

 Group   1 Type C   : 16s13p12d2f contracted to 16s13p12d2f pattern {1111111111111111/1111111111111/111111111111/11}
 Group   2 Type H   : 9s2p contracted to 9s2p pattern {111111111/11}
 Group   3 Type O   : 16s13p12d3f contracted to 16s13p12d3f pattern {1111111111111111/1111111111111/111111111111/111}
 Group   4 Type N   : 16s13p12d3f contracted to 16s13p12d3f pattern {1111111111111111/1111111111111/111111111111/111}

Atom   0C    basis set group =>   1
Atom   1H    basis set group =>   2
Atom   2H    basis set group =>   2
Atom   3H    basis set group =>   2
Atom   4C    basis set group =>   1
Atom   5O    basis set group =>   3
Atom   6N    basis set group =>   4
Atom   7C    basis set group =>   1
Atom   8H    basis set group =>   2
Atom   9H    basis set group =>   2
Atom  10C    basis set group =>   1
Atom  11H    basis set group =>   2
Atom  12H    basis set group =>   2
Atom  13C    basis set group =>   1
Atom  14H    basis set group =>   2
Atom  15H    basis set group =>   2
Atom  16C    basis set group =>   1
Atom  17N    basis set group =>   4
Atom  18O    basis set group =>   3
Atom  19C    basis set group =>   1
Atom  20H    basis set group =>   2
Atom  21H    basis set group =>   2
Atom  22H    basis set group =>   2
Atom  23C    basis set group =>   1
Atom  24H    basis set group =>   2
Atom  25H    basis set group =>   2
Atom  26H    basis set group =>   2
Atom  27N    basis set group =>   4
Atom  28C    basis set group =>   1
Atom  29H    basis set group =>   2
Atom  30H    basis set group =>   2
Atom  31C    basis set group =>   1
Atom  32H    basis set group =>   2
Atom  33H    basis set group =>   2
Atom  34C    basis set group =>   1
Atom  35H    basis set group =>   2
Atom  36H    basis set group =>   2
Atom  37H    basis set group =>   2
Atom  38H    basis set group =>   2
Atom  39H    basis set group =>   2


           ************************************************************
           *        Program running with 4 parallel MPI-processes     *
           *              working on a common directory               *
           ************************************************************
------------------------------------------------------------------------------
                           ORCA GTO INTEGRAL CALCULATION
                           -- RI-GTO INTEGRALS CHOSEN --
------------------------------------------------------------------------------
------------------------------------------------------------------------------
                   ___                                                        
                  /   \      - P O W E R E D   B Y -                         
                 /     \                                                     
                 |  |  |   _    _      __       _____    __    __             
                 |  |  |  | |  | |    /  \     |  _  \  |  |  /  |          
                  \  \/   | |  | |   /    \    | | | |  |  | /  /          
                 / \  \   | |__| |  /  /\  \   | |_| |  |  |/  /          
                |  |  |   |  __  | /  /__\  \  |    /   |      \           
                |  |  |   | |  | | |   __   |  |    \   |  |\   \          
                \     /   | |  | | |  |  |  |  | |\  \  |  | \   \       
                 \___/    |_|  |_| |__|  |__|  |_| \__\ |__|  \__/        
                                                                              
                      - O R C A' S   B I G   F R I E N D -                    
                                      &                                       
                       - I N T E G R A L  F E E D E R -                       
                                                                              
 v1 FN, 2020, v2 2021                                                         
------------------------------------------------------------------------------


Reading SHARK input file Nkeqm_gas.SHARKINP.tmp ... ok
----------------------
SHARK INTEGRAL PACKAGE
----------------------

Number of atoms                             ...     40
Number of basis functions                   ...    336
Number of shells                            ...    176
Maximum angular momentum                    ...      2
Integral batch strategy                     ... SHARK/LIBINT Hybrid
RI-J (if used) integral strategy            ... SPLIT-RIJ (Revised 2003 algorithm where possible)
Printlevel                                  ...      1
Contraction scheme used                     ... SEGMENTED contraction
Coulomb Range Separation                    ... NOT USED
Exchange Range Separation                   ... NOT USED
Finite Nucleus Model                        ... NOT USED
Auxiliary Coulomb fitting basis             ... AVAILABLE
   # of basis functions in Aux-J            ...   2459
   # of shells in Aux-J                     ...    957
   Maximum angular momentum in Aux-J        ...      3
Auxiliary J/K fitting basis                 ... AVAILABLE
   # of basis functions in Aux-JK           ...   2459
   # of shells in Aux-JK                    ...    957
   Maximum angular momentum in Aux-JK       ...      3
Auxiliary Correlation fitting basis         ... AVAILABLE
   # of basis functions in Aux-C            ...   2459
   # of shells in Aux-C                     ...    957
   Maximum angular momentum in Aux-C        ...      3
Auxiliary 'external' fitting basis          ... NOT available
Integral threshold                          ...     2.500000e-11
Primitive cut-off                           ...     2.500000e-12
Primitive pair pre-selection threshold      ...     2.500000e-12

Calculating pre-screening integrals         ... done (  0.1 sec) Dimension = 176
Organizing shell pair data                  ... done (  2.0 sec)
Shell pair information
Total number of shell pairs                 ...     15576
Shell pairs after pre-screening             ...     13300
Total number of primitive shell pairs       ...     68304
Primitive shell pairs kept                  ...     37001
          la=0 lb=0:   5157 shell pairs
          la=1 lb=0:   4890 shell pairs
          la=1 lb=1:   1136 shell pairs
          la=2 lb=0:   1344 shell pairs
          la=2 lb=1:    681 shell pairs
          la=2 lb=2:     92 shell pairs

Calculating one electron integrals          ... done (  0.0 sec)
Calculating RI/J V-Matrix + Cholesky decomp.... done (  0.4 sec)
Calculating RI/JK V-Matrix + Cholesky decomp... done (  0.4 sec)
Calculating RI/C V-Matrix + Cholesky decomp.... done (  0.4 sec)
Calculating Nuclear repulsion               ... done (  0.0 sec) ENN=   1243.885373454350 Eh

SHARK setup successfully completed in   3.8 seconds

Maximum memory used throughout the entire GTOINT-calculation: 53.5 MB


           ************************************************************
           *        Program running with 4 parallel MPI-processes     *
           *              working on a common directory               *
           ************************************************************
-------------------------------------------------------------------------------
                                 ORCA SCF
-------------------------------------------------------------------------------

------------
SCF SETTINGS
------------
Hamiltonian:
 Density Functional     Method          .... DFT(GTOs)
 Exchange Functional    Exchange        .... B88
   X-Alpha parameter    XAlpha          ....  0.666667
   Becke's b parameter  XBeta           ....  0.004200
 Correlation Functional Correlation     .... LYP
 LDA part of GGA corr.  LDAOpt          .... VWN-5
 Gradients option       PostSCFGGA      .... off
 Hybrid DFT is turned on
   Fraction HF Exchange ScalHFX         ....  0.200000
   Scaling of DF-GGA-X  ScalDFX         ....  0.720000
   Scaling of DF-GGA-C  ScalDFC         ....  0.810000
   Scaling of DF-LDA-C  ScalLDAC        ....  1.000000
   Perturbative correction              ....  0.000000
   Density functional embedding theory  .... OFF
   NL short-range parameter             ....  4.800000
 RI-approximation to the Coulomb term is turned on
   Number of AuxJ basis functions       .... 2459
   RIJ-COSX (HFX calculated with COS-X)).... on


General Settings:
 Integral files         IntName         .... Nkeqm_gas
 Hartree-Fock type      HFTyp           .... RHF
 Total Charge           Charge          ....    1
 Multiplicity           Mult            ....    1
 Number of Electrons    NEL             ....  126
 Basis Dimension        Dim             ....  336
 Nuclear Repulsion      ENuc            ....   1243.8853734543 Eh

Convergence Acceleration:
 DIIS                   CNVDIIS         .... on
   Start iteration      DIISMaxIt       ....    12
   Startup error        DIISStart       ....  0.200000
   # of expansion vecs  DIISMaxEq       ....     5
   Bias factor          DIISBfac        ....   1.050
   Max. coefficient     DIISMaxC        ....  10.000
 Trust-Rad. Augm. Hess. CNVTRAH         .... auto
   Auto Start mean grad. ratio tolernc. ....  1.125000
   Auto Start start iteration           ....    20
   Auto Start num. interpolation iter.  ....    10
   Max. Number of Micro iterations      ....    16
   Max. Number of Macro iterations      .... Maxiter - #DIIS iter
   Number of Davidson start vectors     ....     2
   Converg. threshold I  (grad. norm)   ....   1.000e-05
   Converg. threshold II (energy diff.) ....   1.000e-08
   Grad. Scal. Fac. for Micro threshold ....   0.100
   Minimum threshold for Micro iter.    ....   0.010
   NR start threshold (gradient norm)   ....   0.001
   Initial trust radius                 ....   0.400
   Minimum AH scaling param. (alpha)    ....   1.000
   Maximum AH scaling param. (alpha)    .... 1000.000
   Orbital update algorithm             .... Taylor
   White noise on init. David. guess    .... on
   Maximum white noise                  ....   0.010
   Quad. conv. algorithm                .... NR
 SOSCF                  CNVSOSCF        .... on
   Start iteration      SOSCFMaxIt      ....   150
   Startup grad/error   SOSCFStart      ....  0.003300
 Level Shifting         CNVShift        .... on
   Level shift para.    LevelShift      ....    0.2500
   Turn off err/grad.   ShiftErr        ....    0.0010
 Zerner damping         CNVZerner       .... off
 Static damping         CNVDamp         .... on
   Fraction old density DampFac         ....    0.7000
   Max. Damping (<1)    DampMax         ....    0.9800
   Min. Damping (>=0)   DampMin         ....    0.0000
   Turn off err/grad.   DampErr         ....    0.1000
 Fernandez-Rico         CNVRico         .... off

SCF Procedure:
 Maximum # iterations   MaxIter         ....   125
 SCF integral mode      SCFMode         .... Direct
   Integral package                     .... SHARK and LIBINT hybrid scheme
 Reset frequency        DirectResetFreq ....    20
 Integral Threshold     Thresh          ....  2.500e-11 Eh
 Primitive CutOff       TCut            ....  2.500e-12 Eh

Convergence Tolerance:
 Convergence Check Mode ConvCheckMode   .... Total+1el-Energy
 Convergence forced     ConvForced      .... 0
 Energy Change          TolE            ....  1.000e-08 Eh
 1-El. energy change                    ....  1.000e-05 Eh
 Orbital Gradient       TolG            ....  1.000e-05
 Orbital Rotation angle TolX            ....  1.000e-05
 DIIS Error             TolErr          ....  5.000e-07


Diagonalization of the overlap matrix:
Smallest eigenvalue                        ... 6.429e-06
Time for diagonalization                   ...    0.019 sec
Threshold for overlap eigenvalues          ... 1.000e-08
Number of eigenvalues below threshold      ... 0
Time for construction of square roots      ...    0.009 sec
Total time needed                          ...    0.029 sec

Time for model grid setup =    0.390 sec

------------------------------
INITIAL GUESS: MODEL POTENTIAL
------------------------------
Loading Hartree-Fock densities                     ... done
Calculating cut-offs                               ... done
Initializing the effective Hamiltonian             ... done
Setting up the integral package (SHARK)            ... done
Starting the Coulomb interaction                   ... done (   0.4 sec)
Reading the grid                                   ... done
Mapping shells                                     ... done
Starting the XC term evaluation                    ... done (   0.3 sec)
  promolecular density results
     # of electrons  =    126.971189153
     EX              =    -99.881051418
     EC              =     -4.249924735
     EX+EC           =   -104.130976153
Transforming the Hamiltonian                       ... done (   0.0 sec)
Diagonalizing the Hamiltonian                      ... done (   0.0 sec)
Back transforming the eigenvectors                 ... done (   0.0 sec)
Now organizing SCF variables                       ... done
                      ------------------
                      INITIAL GUESS DONE (   1.2 sec)
                      ------------------
-------------------
DFT GRID GENERATION
-------------------

General Integration Accuracy     IntAcc      ... 4.388
Radial Grid Type                 RadialGrid  ... OptM3 with GC (2021)
Angular Grid (max. ang.)         AngularGrid ... 4 (Lebedev-302)
Angular grid pruning method      GridPruning ... 4 (adaptive)
Weight generation scheme         WeightScheme... Becke
Basis function cutoff            BFCut       ... 1.0000e-11
Integration weight cutoff        WCut        ... 1.0000e-14
Angular grids for H and He will be reduced by one unit
Partially contracted basis set               ... off
Rotationally invariant grid construction     ... off

Total number of grid points                  ...   175317
Total number of batches                      ...     2760
Average number of points per batch           ...       63
Average number of grid points per atom       ...     4383
Time for grid setup =    1.581 sec

--------------------
COSX GRID GENERATION
--------------------

GRIDX 1
-------
General Integration Accuracy     IntAcc      ... 3.816
Radial Grid Type                 RadialGrid  ... OptM3 with GC (2021)
Angular Grid (max. ang.)         AngularGrid ... 1 (Lebedev-50)
Angular grid pruning method      GridPruning ... 4 (adaptive)
Weight generation scheme         WeightScheme... Becke
Basis function cutoff            BFCut       ... 1.0000e-11
Integration weight cutoff        WCut        ... 1.0000e-14
Angular grids for H and He will be reduced by one unit
Partially contracted basis set               ... on
Rotationally invariant grid construction     ... off

Total number of grid points                  ...    22403
Total number of batches                      ...      373
Average number of points per batch           ...       60
Average number of grid points per atom       ...      560
UseSFitting                                  ... on

GRIDX 2
-------
General Integration Accuracy     IntAcc      ... 4.020
Radial Grid Type                 RadialGrid  ... OptM3 with GC (2021)
Angular Grid (max. ang.)         AngularGrid ... 2 (Lebedev-110)
Angular grid pruning method      GridPruning ... 4 (adaptive)
Weight generation scheme         WeightScheme... Becke
Basis function cutoff            BFCut       ... 1.0000e-11
Integration weight cutoff        WCut        ... 1.0000e-14
Angular grids for H and He will be reduced by one unit
Partially contracted basis set               ... on
Rotationally invariant grid construction     ... off

Total number of grid points                  ...    49399
Total number of batches                      ...      789
Average number of points per batch           ...       62
Average number of grid points per atom       ...     1235
UseSFitting                                  ... on

GRIDX 3
-------
General Integration Accuracy     IntAcc      ... 4.338
Radial Grid Type                 RadialGrid  ... OptM3 with GC (2021)
Angular Grid (max. ang.)         AngularGrid ... 3 (Lebedev-194)
Angular grid pruning method      GridPruning ... 4 (adaptive)
Weight generation scheme         WeightScheme... Becke
Basis function cutoff            BFCut       ... 1.0000e-11
Integration weight cutoff        WCut        ... 1.0000e-14
Angular grids for H and He will be reduced by one unit
Partially contracted basis set               ... on
Rotationally invariant grid construction     ... off

Total number of grid points                  ...   106337
Total number of batches                      ...     1682
Average number of points per batch           ...       63
Average number of grid points per atom       ...     2658
UseSFitting                                  ... on

Time for X-Grid setup             =    2.313 sec

--------------
SCF ITERATIONS
--------------
ITER       Energy         Delta-E        Max-DP      RMS-DP      [F,P]     Damp
               ***  Starting incremental Fock matrix formation  ***
  0   -747.2314785394   0.000000000000 0.23273311  0.00346701  0.2774750 0.7000
  1   -747.4348685111  -0.203389971769 0.15817458  0.00249600  0.1026991 0.7000
                               ***Turning on DIIS***
  2   -747.5098547316  -0.074986220485 0.49259949  0.00466343  0.0372141 0.0000
  3   -747.6356471878  -0.125792456154 0.15972621  0.00171722  0.0479597 0.0000
  4   -747.6600844288  -0.024437241050 0.06775509  0.00068984  0.0179840 0.0000
  5   -747.6620679973  -0.001983568462 0.02597910  0.00028931  0.0049007 0.0000
                      *** Initiating the SOSCF procedure ***
                           *** Shutting down DIIS ***
                      *** Re-Reading the Fockian *** 
                      *** Removing any level shift *** 
ITER      Energy       Delta-E        Grad      Rot      Max-DP    RMS-DP
  6   -747.66217376  -0.0001057666  0.000198  0.000198  0.008006  0.000108
               *** Restarting incremental Fock matrix formation ***
  7   -747.66216602   0.0000077396  0.000149  0.000582  0.005057  0.000081
  8   -747.66216388   0.0000021491  0.000338  0.000483  0.002915  0.000028
  9   -747.66216842  -0.0000045494  0.000060  0.000146  0.001713  0.000016
 10   -747.66216806   0.0000003617  0.000117  0.000104  0.000833  0.000009
 11   -747.66216859  -0.0000005230  0.000006  0.000010  0.000933  0.000008
 12   -747.66216860  -0.0000000156  0.000007  0.000004  0.002587  0.000017
                  ***Gradient check signals convergence***
              ***Rediagonalizing the Fockian in SOSCF/NRSCF***

               *****************************************************
               *                     SUCCESS                       *
               *           SCF CONVERGED AFTER  13 CYCLES          *
               *****************************************************

Old exchange energy                            =    -20.327981884 Eh
New exchange energy                            =    -20.328023624 Eh
Exchange energy change after final integration =     -0.000041740 Eh
Total energy after final integration           =   -747.662210347 Eh
Final COS-X integration done in                =    21.897 sec

----------------
TOTAL SCF ENERGY
----------------

Total Energy       :         -747.66221035 Eh          -20344.92306 eV

Components:
Nuclear Repulsion  :         1243.88537345 Eh           33847.84180 eV
Electronic Energy  :        -1991.54758380 Eh          -54192.76486 eV
One Electron Energy:        -3467.90854295 Eh          -94366.58896 eV
Two Electron Energy:         1476.36095914 Eh           40173.82410 eV
Max COSX asymmetry :            0.00000870 Eh               0.00024 eV

Virial components:
Potential Energy   :        -1490.97551156 Eh          -40571.50629 eV
Kinetic Energy     :          743.31330121 Eh           20226.58323 eV
Virial Ratio       :            2.00585071


DFT components:
N(Alpha)           :       62.999916124269 electrons
N(Beta)            :       62.999916124269 electrons
N(Total)           :      125.999832248538 electrons
E(X)               :      -80.693077169594 Eh       
E(C)               :       -4.968343009337 Eh       
E(XC)              :      -85.661420178931 Eh       
DFET-embed. en.    :        0.000000000000 Eh       

---------------
SCF CONVERGENCE
---------------

  Last Energy change         ...   -5.1292e-09  Tolerance :   1.0000e-08
  Last MAX-Density change    ...    4.4409e-15  Tolerance :   1.0000e-07
  Last RMS-Density change    ...    3.8795e-17  Tolerance :   5.0000e-09
  Last Orbital Gradient      ...    4.4499e-07  Tolerance :   1.0000e-05
  Last Orbital Rotation      ...    6.0713e-07  Tolerance :   1.0000e-05

             **** THE GBW FILE WAS UPDATED (Nkeqm_gas.gbw) ****
             **** DENSITY Nkeqm_gas.scfp WAS UPDATED ****
             **** ENERGY FILE WAS UPDATED (Nkeqm_gas.en.tmp) ****
             **** THE GBW FILE WAS UPDATED (Nkeqm_gas.gbw) ****
             **** DENSITY Nkeqm_gas.scfp WAS UPDATED ****
----------------
ORBITAL ENERGIES
----------------

  NO   OCC          E(Eh)            E(eV) 
   0   2.0000     -19.234893      -523.4081 
   1   2.0000     -19.221690      -523.0488 
   2   2.0000     -14.608755      -397.5244 
   3   2.0000     -14.481667      -394.0662 
   4   2.0000     -14.473399      -393.8412 
   5   2.0000     -10.400624      -283.0154 
   6   2.0000     -10.393684      -282.8265 
   7   2.0000     -10.379068      -282.4288 
   8   2.0000     -10.378452      -282.4120 
   9   2.0000     -10.375570      -282.3336 
  10   2.0000     -10.363245      -281.9982 
  11   2.0000     -10.352234      -281.6986 
  12   2.0000     -10.345589      -281.5178 
  13   2.0000     -10.318510      -280.7809 
  14   2.0000     -10.297410      -280.2068 
  15   2.0000     -10.280002      -279.7331 
  16   2.0000      -1.169762       -31.8308 
  17   2.0000      -1.162401       -31.6306 
  18   2.0000      -1.141198       -31.0536 
  19   2.0000      -1.059665       -28.8349 
  20   2.0000      -1.043045       -28.3827 
  21   2.0000      -0.924182       -25.1483 
  22   2.0000      -0.900937       -24.5157 
  23   2.0000      -0.891868       -24.2690 
  24   2.0000      -0.859893       -23.3989 
  25   2.0000      -0.850821       -23.1520 
  26   2.0000      -0.825218       -22.4553 
  27   2.0000      -0.805329       -21.9141 
  28   2.0000      -0.786944       -21.4138 
  29   2.0000      -0.757389       -20.6096 
  30   2.0000      -0.686017       -18.6675 
  31   2.0000      -0.674386       -18.3510 
  32   2.0000      -0.671524       -18.2731 
  33   2.0000      -0.657965       -17.9041 
  34   2.0000      -0.639146       -17.3921 
  35   2.0000      -0.626581       -17.0501 
  36   2.0000      -0.622449       -16.9377 
  37   2.0000      -0.603896       -16.4329 
  38   2.0000      -0.589437       -16.0394 
  39   2.0000      -0.587497       -15.9866 
  40   2.0000      -0.578462       -15.7407 
  41   2.0000      -0.568451       -15.4683 
  42   2.0000      -0.565893       -15.3987 
  43   2.0000      -0.554955       -15.1011 
  44   2.0000      -0.553372       -15.0580 
  45   2.0000      -0.549930       -14.9643 
  46   2.0000      -0.546151       -14.8615 
  47   2.0000      -0.543790       -14.7973 
  48   2.0000      -0.537388       -14.6231 
  49   2.0000      -0.525452       -14.2983 
  50   2.0000      -0.514184       -13.9917 
  51   2.0000      -0.509759       -13.8712 
  52   2.0000      -0.507552       -13.8112 
  53   2.0000      -0.504340       -13.7238 
  54   2.0000      -0.502282       -13.6678 
  55   2.0000      -0.492743       -13.4082 
  56   2.0000      -0.480188       -13.0666 
  57   2.0000      -0.466496       -12.6940 
  58   2.0000      -0.463926       -12.6241 
  59   2.0000      -0.383653       -10.4397 
  60   2.0000      -0.370984       -10.0950 
  61   2.0000      -0.361211        -9.8291 
  62   2.0000      -0.349296        -9.5048 
  63   0.0000      -0.127466        -3.4685 
  64   0.0000      -0.106294        -2.8924 
  65   0.0000      -0.100872        -2.7449 
  66   0.0000      -0.097325        -2.6484 
  67   0.0000      -0.093086        -2.5330 
  68   0.0000      -0.092685        -2.5221 
  69   0.0000      -0.089851        -2.4450 
  70   0.0000      -0.081620        -2.2210 
  71   0.0000      -0.076095        -2.0707 
  72   0.0000      -0.073726        -2.0062 
  73   0.0000      -0.069314        -1.8861 
  74   0.0000      -0.062556        -1.7022 
  75   0.0000      -0.058459        -1.5907 
  76   0.0000      -0.055497        -1.5102 
  77   0.0000      -0.043966        -1.1964 
  78   0.0000      -0.037263        -1.0140 
  79   0.0000      -0.032552        -0.8858 
  80   0.0000      -0.030715        -0.8358 
  81   0.0000      -0.028935        -0.7874 
  82   0.0000      -0.025790        -0.7018 
  83   0.0000      -0.022799        -0.6204 
  84   0.0000      -0.012393        -0.3372 
  85   0.0000      -0.011068        -0.3012 
  86   0.0000      -0.007442        -0.2025 
  87   0.0000      -0.004963        -0.1351 
  88   0.0000       0.001102         0.0300 
  89   0.0000       0.002034         0.0554 
  90   0.0000       0.003705         0.1008 
  91   0.0000       0.007050         0.1918 
  92   0.0000       0.009382         0.2553 
  93   0.0000       0.017222         0.4686 
  94   0.0000       0.021058         0.5730 
  95   0.0000       0.025003         0.6804 
  96   0.0000       0.028992         0.7889 
  97   0.0000       0.030171         0.8210 
  98   0.0000       0.033691         0.9168 
  99   0.0000       0.036078         0.9817 
 100   0.0000       0.039845         1.0842 
 101   0.0000       0.042488         1.1561 
 102   0.0000       0.048842         1.3291 
 103   0.0000       0.052479         1.4280 
 104   0.0000       0.057346         1.5605 
 105   0.0000       0.062683         1.7057 
 106   0.0000       0.067735         1.8432 
 107   0.0000       0.069224         1.8837 
 108   0.0000       0.072032         1.9601 
 109   0.0000       0.079170         2.1543 
 110   0.0000       0.082773         2.2524 
 111   0.0000       0.086541         2.3549 
 112   0.0000       0.089394         2.4325 
 113   0.0000       0.093268         2.5380 
 114   0.0000       0.098751         2.6871 
 115   0.0000       0.104517         2.8440 
 116   0.0000       0.111576         3.0361 
 117   0.0000       0.113709         3.0942 
 118   0.0000       0.116140         3.1603 
 119   0.0000       0.119597         3.2544 
 120   0.0000       0.125631         3.4186 
 121   0.0000       0.130180         3.5424 
 122   0.0000       0.136997         3.7279 
 123   0.0000       0.139215         3.7882 
 124   0.0000       0.141806         3.8587 
 125   0.0000       0.144012         3.9188 
 126   0.0000       0.148516         4.0413 
 127   0.0000       0.149775         4.0756 
 128   0.0000       0.160724         4.3735 
 129   0.0000       0.164469         4.4754 
 130   0.0000       0.166921         4.5422 
 131   0.0000       0.171454         4.6655 
 132   0.0000       0.173203         4.7131 
 133   0.0000       0.178153         4.8478 
 134   0.0000       0.181919         4.9503 
 135   0.0000       0.184038         5.0079 
 136   0.0000       0.188939         5.1413 
 137   0.0000       0.193823         5.2742 
 138   0.0000       0.198827         5.4104 
 139   0.0000       0.200966         5.4686 
 140   0.0000       0.207406         5.6438 
 141   0.0000       0.212145         5.7728 
 142   0.0000       0.222328         6.0499 
 143   0.0000       0.228526         6.2185 
 144   0.0000       0.234144         6.3714 
 145   0.0000       0.235820         6.4170 
 146   0.0000       0.241964         6.5842 
 147   0.0000       0.247558         6.7364 
 148   0.0000       0.252632         6.8745 
 149   0.0000       0.256066         6.9679 
 150   0.0000       0.266803         7.2601 
 151   0.0000       0.269411         7.3310 
 152   0.0000       0.274302         7.4641 
 153   0.0000       0.280053         7.6206 
 154   0.0000       0.287329         7.8186 
 155   0.0000       0.291659         7.9364 
 156   0.0000       0.305308         8.3079 
 157   0.0000       0.308214         8.3869 
 158   0.0000       0.317493         8.6394 
 159   0.0000       0.331254         9.0139 
 160   0.0000       0.336613         9.1597 
 161   0.0000       0.355174         9.6648 
 162   0.0000       0.363628         9.8948 
 163   0.0000       0.386252        10.5104 
 164   0.0000       0.404431        11.0051 
 165   0.0000       0.413362        11.2481 
 166   0.0000       0.431540        11.7428 
 167   0.0000       0.440086        11.9754 
 168   0.0000       0.497029        13.5248 
 169   0.0000       0.507784        13.8175 
 170   0.0000       0.532549        14.4914 
 171   0.0000       0.535607        14.5746 
 172   0.0000       0.544617        14.8198 
 173   0.0000       0.550688        14.9850 
 174   0.0000       0.561474        15.2785 
 175   0.0000       0.577534        15.7155 
 176   0.0000       0.579789        15.7769 
 177   0.0000       0.582184        15.8420 
 178   0.0000       0.602764        16.4020 
 179   0.0000       0.604925        16.4609 
 180   0.0000       0.618787        16.8380 
 181   0.0000       0.622055        16.9270 
 182   0.0000       0.624078        16.9820 
 183   0.0000       0.648045        17.6342 
 184   0.0000       0.658684        17.9237 
 185   0.0000       0.679577        18.4922 
 186   0.0000       0.685665        18.6579 
 187   0.0000       0.693059        18.8591 
 188   0.0000       0.701557        19.0903 
 189   0.0000       0.708840        19.2885 
 190   0.0000       0.721380        19.6298 
 191   0.0000       0.731924        19.9167 
 192   0.0000       0.742104        20.1937 
 193   0.0000       0.753351        20.4997 
 194   0.0000       0.766722        20.8636 
 195   0.0000       0.769764        20.9463 
 196   0.0000       0.783964        21.3327 
 197   0.0000       0.790787        21.5184 
 198   0.0000       0.795508        21.6469 
 199   0.0000       0.803308        21.8591 
 200   0.0000       0.811303        22.0767 
 201   0.0000       0.841187        22.8899 
 202   0.0000       0.850221        23.1357 
 203   0.0000       0.857948        23.3460 
 204   0.0000       0.862534        23.4707 
 205   0.0000       0.864789        23.5321 
 206   0.0000       0.872428        23.7400 
 207   0.0000       0.881408        23.9843 
 208   0.0000       0.884290        24.0628 
 209   0.0000       0.885150        24.0862 
 210   0.0000       0.903830        24.5945 
 211   0.0000       0.907074        24.6828 
 212   0.0000       0.909743        24.7554 
 213   0.0000       0.918920        25.0051 
 214   0.0000       0.920978        25.0611 
 215   0.0000       0.925698        25.1895 
 216   0.0000       0.938559        25.5395 
 217   0.0000       0.949078        25.8257 
 218   0.0000       0.963086        26.2069 
 219   0.0000       0.984155        26.7802 
 220   0.0000       0.992906        27.0183 
 221   0.0000       1.000002        27.2115 
 222   0.0000       1.017096        27.6766 
 223   0.0000       1.024427        27.8761 
 224   0.0000       1.027830        27.9687 
 225   0.0000       1.035345        28.1732 
 226   0.0000       1.054837        28.7036 
 227   0.0000       1.060624        28.8611 
 228   0.0000       1.069706        29.1082 
 229   0.0000       1.083014        29.4703 
 230   0.0000       1.085187        29.5294 
 231   0.0000       1.114532        30.3280 
 232   0.0000       1.121426        30.5155 
 233   0.0000       1.144931        31.1551 
 234   0.0000       1.160918        31.5902 
 235   0.0000       1.178220        32.0610 
 236   0.0000       1.195769        32.5385 
 237   0.0000       1.212919        33.0052 
 238   0.0000       1.216851        33.1122 
 239   0.0000       1.233170        33.5563 
 240   0.0000       1.270248        34.5652 
 241   0.0000       1.281585        34.8737 
 242   0.0000       1.297918        35.3182 
 243   0.0000       1.304514        35.4976 
 244   0.0000       1.306139        35.5419 
 245   0.0000       1.311373        35.6843 
 246   0.0000       1.343895        36.5692 
 247   0.0000       1.355680        36.8899 
 248   0.0000       1.372300        37.3422 
 249   0.0000       1.380545        37.5665 
 250   0.0000       1.401067        38.1250 
 251   0.0000       1.410502        38.3817 
 252   0.0000       1.422482        38.7077 
 253   0.0000       1.439258        39.1642 
 254   0.0000       1.473645        40.0999 
 255   0.0000       1.492137        40.6031 
 256   0.0000       1.501134        40.8479 
 257   0.0000       1.536860        41.8201 
 258   0.0000       1.549563        42.1658 
 259   0.0000       1.563162        42.5358 
 260   0.0000       1.576983        42.9119 
 261   0.0000       1.602816        43.6148 
 262   0.0000       1.636072        44.5198 
 263   0.0000       1.646739        44.8101 
 264   0.0000       1.672989        45.5243 
 265   0.0000       1.687612        45.9223 
 266   0.0000       1.702164        46.3182 
 267   0.0000       1.722219        46.8640 
 268   0.0000       1.734617        47.2013 
 269   0.0000       1.758774        47.8587 
 270   0.0000       1.764647        48.0185 
 271   0.0000       1.770736        48.1842 
 272   0.0000       1.785125        48.5757 
 273   0.0000       1.791883        48.7596 
 274   0.0000       1.796376        48.8819 
 275   0.0000       1.805647        49.1342 
 276   0.0000       1.831716        49.8435 
 277   0.0000       1.842364        50.1333 
 278   0.0000       1.865056        50.7508 
 279   0.0000       1.880722        51.1770 
 280   0.0000       1.888072        51.3770 
 281   0.0000       1.910963        51.9999 
 282   0.0000       1.912817        52.0504 
 283   0.0000       1.928689        52.4823 
 284   0.0000       1.955875        53.2221 
 285   0.0000       1.967635        53.5421 
 286   0.0000       1.977253        53.8038 
 287   0.0000       1.984071        53.9893 
 288   0.0000       1.992159        54.2094 
 289   0.0000       2.004475        54.5445 
 290   0.0000       2.010003        54.6950 
 291   0.0000       2.036175        55.4071 
 292   0.0000       2.050728        55.8032 
 293   0.0000       2.066907        56.2434 
 294   0.0000       2.083346        56.6907 
 295   0.0000       2.086604        56.7794 
 296   0.0000       2.097051        57.0637 
 297   0.0000       2.106630        57.3243 
 298   0.0000       2.106898        57.3316 
 299   0.0000       2.119268        57.6682 
 300   0.0000       2.128205        57.9114 
 301   0.0000       2.136285        58.1313 
 302   0.0000       2.148568        58.4655 
 303   0.0000       2.152698        58.5779 
 304   0.0000       2.199776        59.8589 
 305   0.0000       2.206720        60.0479 
 306   0.0000       2.230030        60.6822 
 307   0.0000       2.250235        61.2320 
 308   0.0000       2.260876        61.5216 
 309   0.0000       2.291103        62.3441 
 310   0.0000       2.307658        62.7946 
 311   0.0000       2.329388        63.3859 
 312   0.0000       2.357280        64.1448 
 313   0.0000       2.366816        64.4043 
 314   0.0000       2.389984        65.0348 
 315   0.0000       2.402329        65.3707 
 316   0.0000       2.430513        66.1376 
 317   0.0000       2.441402        66.4339 
 318   0.0000       2.475638        67.3655 
 319   0.0000       2.517601        68.5074 
 320   0.0000       2.540466        69.1296 
 321   0.0000       2.557787        69.6009 
 322   0.0000       2.582734        70.2798 
 323   0.0000       2.592957        70.5580 
 324   0.0000       2.597760        70.6886 
 325   0.0000       2.628241        71.5181 
 326   0.0000       2.662578        72.4524 
 327   0.0000       2.701078        73.5001 
 328   0.0000       2.716277        73.9137 
 329   0.0000       2.737436        74.4894 
 330   0.0000       2.851663        77.5977 
 331   0.0000       2.904226        79.0280 
 332   0.0000       3.016863        82.0930 
 333   0.0000       3.055249        83.1376 
 334   0.0000       3.105861        84.5148 
 335   0.0000       3.138587        85.4053 

                    ********************************
                    * MULLIKEN POPULATION ANALYSIS *
                    ********************************

-----------------------
MULLIKEN ATOMIC CHARGES
-----------------------
   0 C :   -0.949932
   1 H :    0.237661
   2 H :    0.259704
   3 H :    0.256793
   4 C :    0.800695
   5 O :   -0.486998
   6 N :   -0.033278
   7 C :   -0.831725
   8 H :    0.240446
   9 H :    0.259014
  10 C :   -0.452244
  11 H :    0.221868
  12 H :    0.282734
[...]
----------------------------------------------------------------------------
  6:     32.56   0.000700    3.54  0.006705  ( 0.018022 -0.077426 -0.019639)
  7:     36.17   0.000190    0.96  0.001642  (-0.018799  0.024271 -0.026453)
  8:     44.05   0.001040    5.25  0.007365  ( 0.055379  0.039909  0.052018)
  9:     64.29   0.000274    1.39  0.001331  ( 0.024656  0.020537  0.017353)
 10:     68.96   0.000120    0.60  0.000541  ( 0.003145 -0.022202  0.006200)
 11:     78.89   0.000158    0.80  0.000624  (-0.012871 -0.021406 -0.000182)
 12:     96.39   0.000722    3.65  0.002339  (-0.040683 -0.022756 -0.012890)
 13:    106.75   0.001123    5.67  0.003282  (-0.013635  0.038065 -0.040586)
 14:    129.50   0.000907    4.59  0.002187  (-0.019376 -0.042355 -0.004160)
 15:    146.44   0.000275    1.39  0.000586  ( 0.020942 -0.011717  0.003160)
 16:    183.57   0.000025    0.13  0.000042  (-0.001514 -0.000184 -0.006327)
 17:    197.29   0.000995    5.03  0.001575  ( 0.017884  0.007427  0.034634)
 18:    207.02   0.000525    2.65  0.000791  ( 0.022946 -0.010803 -0.012170)
 19:    229.73   0.001625    8.21  0.002207  ( 0.038441  0.025222  0.009643)
 20:    240.10   0.000579    2.92  0.000752  ( 0.008899 -0.024917 -0.007220)
 21:    266.87   0.000367    1.86  0.000429  (-0.006674  0.010430  0.016613)
 22:    280.31   0.000091    0.46  0.000102  ( 0.006891  0.004077  0.006119)
 23:    299.81   0.000052    0.26  0.000054  (-0.006740 -0.002985  0.000096)
 24:    319.02   0.001039    5.25  0.001017  ( 0.007335  0.023440  0.020334)
 25:    361.63   0.000132    0.67  0.000114  (-0.006012 -0.008032 -0.003636)
 26:    368.68   0.000122    0.62  0.000103  (-0.009928 -0.001231 -0.001840)
 27:    385.70   0.003173   16.04  0.002567  (-0.047188  0.014556 -0.011351)
 28:    407.29   0.001159    5.86  0.000888  ( 0.012192 -0.027169 -0.001092)
 29:    422.10   0.000516    2.61  0.000381  (-0.016782 -0.009964  0.000718)
 30:    452.32   0.000007    0.03  0.000005  (-0.001774 -0.001167 -0.000331)
 31:    457.48   0.000576    2.91  0.000393  (-0.003007  0.007821 -0.017960)
 32:    477.52   0.001088    5.50  0.000711  (-0.022987 -0.010855  0.008036)
 33:    495.42   0.000157    0.79  0.000099  ( 0.008782  0.003207  0.003380)
 34:    529.23   0.001273    6.43  0.000750  ( 0.017800  0.020485 -0.003735)
 35:    572.36   0.000112    0.57  0.000061  (-0.000136  0.005529  0.005540)
 36:    602.28   0.003831   19.36  0.001985  ( 0.040786 -0.017825 -0.001907)
 37:    612.40   0.000833    4.21  0.000424  ( 0.001437  0.005325 -0.019851)
 38:    658.80   0.002987   15.10  0.001415  (-0.000891  0.025855  0.027307)
 39:    739.70   0.001196    6.04  0.000505  ( 0.001882  0.018025  0.013275)
 40:    765.15   0.000659    3.33  0.000269  ( 0.002074  0.010170  0.012683)
 41:    814.83   0.003502   17.70  0.001341  (-0.025423 -0.002650  0.026229)
 42:    851.62   0.000884    4.47  0.000324  (-0.005324  0.014950  0.008488)
 43:    916.80   0.006208   31.37  0.002113  (-0.044315 -0.008606  0.008677)
 44:    947.55   0.005046   25.50  0.001662  ( 0.026730  0.020804  0.022687)
 45:    964.52   0.000627    3.17  0.000203  ( 0.009249  0.009031  0.005973)
 46:    971.47   0.003629   18.34  0.001166  (-0.003406  0.031955 -0.011529)
 47:    995.45   0.001399    7.07  0.000439  ( 0.001607  0.011365  0.017516)
 48:    999.72   0.003311   16.73  0.001034  (-0.010983  0.029795  0.005014)
 49:   1053.36   0.003852   19.46  0.001141  ( 0.029307 -0.009970 -0.013517)
 50:   1058.89   0.000507    2.56  0.000149  ( 0.008891 -0.003564 -0.007595)
 51:   1069.72   0.001475    7.45  0.000430  ( 0.016305 -0.004749  0.011912)
 52:   1083.47   0.000001    0.01  0.000000  (-0.000209  0.000084 -0.000515)
 53:   1084.21   0.001787    9.03  0.000514  (-0.002997 -0.007916  0.021040)
 54:   1109.43   0.000128    0.65  0.000036  ( 0.001252  0.005753  0.001185)
 55:   1129.00   0.000225    1.14  0.000062  (-0.004247 -0.001815  0.006386)
 56:   1153.56   0.000312    1.58  0.000084  ( 0.006782  0.003023 -0.005412)
 57:   1156.95   0.015884   80.27  0.004284  ( 0.064560 -0.006768 -0.008397)
 58:   1169.90   0.012740   64.38  0.003398  ( 0.056298 -0.014743 -0.003396)
 59:   1178.98   0.000748    3.78  0.000198  (-0.011485 -0.004474 -0.006794)
 60:   1225.00   0.002528   12.78  0.000644  ( 0.019322  0.016422 -0.001005)
 61:   1256.48   0.006271   31.69  0.001557  (-0.003954  0.038795  0.006066)
 62:   1268.64   0.003142   15.88  0.000773  ( 0.003941 -0.024061 -0.013361)
 63:   1278.22   0.006719   33.95  0.001640  ( 0.001443 -0.034370 -0.021376)
 64:   1279.26   0.013111   66.26  0.003198  ( 0.046802 -0.028349  0.014290)
 65:   1304.40   0.000062    0.31  0.000015  (-0.001172  0.001341 -0.003401)
 66:   1349.63   0.000219    1.11  0.000051  (-0.004964 -0.001959  0.004706)
 67:   1368.58   0.002013   10.17  0.000459  (-0.009731 -0.018916 -0.002528)
 68:   1371.75   0.010023   50.65  0.002280  ( 0.045057 -0.001998 -0.015684)
 69:   1382.91   0.008658   43.75  0.001954  ( 0.001911  0.040158  0.018368)
 70:   1415.09   0.001301    6.58  0.000287  (-0.015860 -0.003558  0.004769)
 71:   1433.07   0.016810   84.95  0.003660  (-0.014973  0.054329  0.022014)
 72:   1453.52   0.013307   67.25  0.002857  ( 0.052676 -0.008827 -0.002089)
 73:   1456.26   0.007840   39.62  0.001680  ( 0.023263 -0.027173  0.020014)
 74:   1458.74   0.005018   25.36  0.001073  ( 0.012270  0.028161  0.011396)
 75:   1464.93   0.000520    2.63  0.000111  ( 0.001432 -0.010049 -0.002767)
 76:   1471.12   0.003434   17.36  0.000729  ( 0.003144  0.023977  0.011990)
 77:   1484.03   0.004261   21.53  0.000896  ( 0.027151 -0.007970 -0.009759)
 78:   1488.78   0.001176    5.94  0.000247  (-0.014562 -0.003223  0.004912)
 79:   1492.60   0.001700    8.59  0.000355  ( 0.010073  0.015559  0.003449)
 80:   1494.57   0.002109   10.66  0.000440  ( 0.020852  0.001693  0.001635)
 81:   1495.54   0.001805    9.12  0.000377  ( 0.000404  0.001925 -0.019309)
 82:   1505.79   0.000134    0.67  0.000028  ( 0.002643 -0.000927 -0.004452)
 83:   1508.73   0.001943    9.82  0.000402  ( 0.006861 -0.007445 -0.017301)
 84:   1510.19   0.001045    5.28  0.000216  ( 0.007235 -0.006865  0.010794)
 85:   1512.78   0.003038   15.35  0.000627  (-0.010126  0.008544 -0.021243)
 86:   1519.17   0.001581    7.99  0.000325  (-0.012785 -0.006632  0.010833)
 87:   1521.37   0.000813    4.11  0.000167  (-0.003836  0.006897 -0.010221)
 88:   1523.73   0.004782   24.16  0.000979  (-0.010360 -0.027632 -0.010413)
 89:   1527.73   0.002479   12.53  0.000506  ( 0.017021 -0.013482 -0.005904)
 90:   1532.52   0.011070   55.94  0.002254  (-0.039689 -0.017026 -0.019723)
 91:   1534.55   0.007178   36.28  0.001460  (-0.014053  0.035528 -0.000257)
 92:   1543.34   0.011596   58.60  0.002345  (-0.026589 -0.018111  0.036189)
 93:   1559.22   0.009474   47.88  0.001896  (-0.041400  0.012372 -0.005390)
 94:   1725.10   0.002242   11.33  0.000406  (-0.002522 -0.015219  0.012944)
 95:   1734.72   0.133493  674.62  0.024014  (-0.131469  0.010950  0.081304)
 96:   3038.64   0.006264   31.65  0.000643  ( 0.012681  0.011785 -0.018536)
 97:   3047.75   0.010447   52.80  0.001070  (-0.032303  0.000916 -0.005034)
 98:   3058.04   0.000523    2.64  0.000053  (-0.006047 -0.000370  0.004080)
 99:   3071.47   0.003605   18.22  0.000366  ( 0.013508 -0.004571 -0.012764)
100:   3091.00   0.000290    1.46  0.000029  (-0.004476  0.002243 -0.002048)
101:   3093.64   0.000385    1.95  0.000039  (-0.002395 -0.005516 -0.001645)
102:   3096.05   0.002774   14.02  0.000280  (-0.002682 -0.016487 -0.000792)
103:   3101.23   0.002023   10.22  0.000204  ( 0.004440  0.000457  0.013550)
104:   3101.46   0.006614   33.42  0.000665  ( 0.004933 -0.023202 -0.010140)
105:   3104.39   0.000834    4.22  0.000084  (-0.000816 -0.009121 -0.000042)
106:   3110.08   0.001873    9.47  0.000188  (-0.010255 -0.008571  0.003054)
107:   3119.46   0.000771    3.90  0.000077  ( 0.002671 -0.003018  0.007805)
108:   3141.45   0.002428   12.27  0.000241  (-0.013603  0.001816  0.007269)
109:   3144.29   0.000819    4.14  0.000081  (-0.005566 -0.006735 -0.002231)
110:   3171.80   0.002841   14.36  0.000280  (-0.012697  0.003485 -0.010305)
111:   3174.62   0.000406    2.05  0.000040  ( 0.002015 -0.004640 -0.003782)
112:   3181.29   0.000097    0.49  0.000010  ( 0.001851  0.000131 -0.002471)
113:   3185.89   0.000091    0.46  0.000009  (-0.001281 -0.000189  0.002684)
114:   3187.87   0.000552    2.79  0.000054  ( 0.005121  0.000979 -0.005186)
115:   3191.18   0.000387    1.96  0.000038  ( 0.001966 -0.004617 -0.003561)
116:   3191.85   0.000169    0.85  0.000017  (-0.002134  0.001599 -0.003064)
117:   3197.74   0.000144    0.73  0.000014  (-0.002626 -0.000755 -0.002566)
118:   3204.55   0.000387    1.96  0.000038  (-0.005536 -0.002161  0.001543)
119:   3227.72   0.000056    0.28  0.000005  ( 0.001832  0.000373  0.001370)

* The epsilon (eps) is given for a Dirac delta lineshape.
** The dipole moment derivative (T) already includes vibrational overlap.

The first frequency considered to be a vibration is 6
The total number of vibrations considered is 114


--------------------------
THERMOCHEMISTRY AT 298.15K
--------------------------

Temperature         ... 298.15 K
Pressure            ... 1.00 atm
Total Mass          ... 230.33 AMU

Throughout the following assumptions are being made:
  (1) The electronic state is orbitally nondegenerate
  (2) There are no thermally accessible electronically excited states
  (3) Hindered rotations indicated by low frequency modes are not
      treated as such but are treated as vibrations and this may
      cause some error
  (4) All equations used are the standard statistical mechanics
      equations for an ideal gas
  (5) All vibrations are strictly harmonic

freq.      32.56  E(vib)   ...       0.55 
freq.      36.17  E(vib)   ...       0.54 
freq.      44.05  E(vib)   ...       0.53 
freq.      64.29  E(vib)   ...       0.51 
freq.      68.96  E(vib)   ...       0.50 
freq.      78.89  E(vib)   ...       0.49 
freq.      96.39  E(vib)   ...       0.47 
freq.     106.75  E(vib)   ...       0.45 
freq.     129.50  E(vib)   ...       0.43 
freq.     146.44  E(vib)   ...       0.41 
freq.     183.57  E(vib)   ...       0.37 
freq.     197.29  E(vib)   ...       0.35 
freq.     207.02  E(vib)   ...       0.35 
freq.     229.73  E(vib)   ...       0.32 
freq.     240.10  E(vib)   ...       0.31 
freq.     266.87  E(vib)   ...       0.29 
freq.     280.31  E(vib)   ...       0.28 
freq.     299.81  E(vib)   ...       0.26 
freq.     319.02  E(vib)   ...       0.25 
freq.     361.63  E(vib)   ...       0.22 
freq.     368.68  E(vib)   ...       0.21 
freq.     385.70  E(vib)   ...       0.20 
freq.     407.29  E(vib)   ...       0.19 
freq.     422.10  E(vib)   ...       0.18 
freq.     452.32  E(vib)   ...       0.16 
freq.     457.48  E(vib)   ...       0.16 
freq.     477.52  E(vib)   ...       0.15 
freq.     495.42  E(vib)   ...       0.14 
freq.     529.23  E(vib)   ...       0.13 
freq.     572.36  E(vib)   ...       0.11 
freq.     602.28  E(vib)   ...       0.10 
freq.     612.40  E(vib)   ...       0.10 
freq.     658.80  E(vib)   ...       0.08 
freq.     739.70  E(vib)   ...       0.06 
freq.     765.15  E(vib)   ...       0.06 
freq.     814.83  E(vib)   ...       0.05 
freq.     851.62  E(vib)   ...       0.04 
freq.     916.80  E(vib)   ...       0.03 
freq.     947.55  E(vib)   ...       0.03 
freq.     964.52  E(vib)   ...       0.03 
freq.     971.47  E(vib)   ...       0.03 
freq.     995.45  E(vib)   ...       0.02 
freq.     999.72  E(vib)   ...       0.02 
freq.    1053.36  E(vib)   ...       0.02 
freq.    1058.89  E(vib)   ...       0.02 
freq.    1069.72  E(vib)   ...       0.02 
freq.    1083.47  E(vib)   ...       0.02 
freq.    1084.21  E(vib)   ...       0.02 
freq.    1109.43  E(vib)   ...       0.02 
freq.    1129.00  E(vib)   ...       0.01 
freq.    1153.56  E(vib)   ...       0.01 
freq.    1156.95  E(vib)   ...       0.01 
freq.    1169.90  E(vib)   ...       0.01 
freq.    1178.98  E(vib)   ...       0.01 
freq.    1225.00  E(vib)   ...       0.01 
freq.    1256.48  E(vib)   ...       0.01 
freq.    1268.64  E(vib)   ...       0.01 
freq.    1278.22  E(vib)   ...       0.01 
freq.    1279.26  E(vib)   ...       0.01 
freq.    1304.40  E(vib)   ...       0.01 
freq.    1349.63  E(vib)   ...       0.01 
freq.    1368.58  E(vib)   ...       0.01 
freq.    1371.75  E(vib)   ...       0.01 
freq.    1382.91  E(vib)   ...       0.01 
freq.    1415.09  E(vib)   ...       0.00 
freq.    1433.07  E(vib)   ...       0.00 
freq.    1453.52  E(vib)   ...       0.00 
freq.    1456.26  E(vib)   ...       0.00 
freq.    1458.74  E(vib)   ...       0.00 
freq.    1464.93  E(vib)   ...       0.00 
freq.    1471.12  E(vib)   ...       0.00 
freq.    1484.03  E(vib)   ...       0.00 
freq.    1488.78  E(vib)   ...       0.00 
freq.    1492.60  E(vib)   ...       0.00 
freq.    1494.57  E(vib)   ...       0.00 
freq.    1495.54  E(vib)   ...       0.00 
freq.    1505.79  E(vib)   ...       0.00 
freq.    1508.73  E(vib)   ...       0.00 
freq.    1510.19  E(vib)   ...       0.00 
freq.    1512.78  E(vib)   ...       0.00 
freq.    1519.17  E(vib)   ...       0.00 
freq.    1521.37  E(vib)   ...       0.00 
freq.    1523.73  E(vib)   ...       0.00 
freq.    1527.73  E(vib)   ...       0.00 
freq.    1532.52  E(vib)   ...       0.00 
freq.    1534.55  E(vib)   ...       0.00 
freq.    1543.34  E(vib)   ...       0.00 
freq.    1559.22  E(vib)   ...       0.00 
freq.    1725.10  E(vib)   ...       0.00 
freq.    1734.72  E(vib)   ...       0.00 
freq.    3038.64  E(vib)   ...       0.00 
freq.    3047.75  E(vib)   ...       0.00 
freq.    3058.04  E(vib)   ...       0.00 
freq.    3071.47  E(vib)   ...       0.00 
freq.    3091.00  E(vib)   ...       0.00 
freq.    3093.64  E(vib)   ...       0.00 
freq.    3096.05  E(vib)   ...       0.00 
freq.    3101.23  E(vib)   ...       0.00 
freq.    3101.46  E(vib)   ...       0.00 
freq.    3104.39  E(vib)   ...       0.00 
freq.    3110.08  E(vib)   ...       0.00 
freq.    3119.46  E(vib)   ...       0.00 
freq.    3141.45  E(vib)   ...       0.00 
freq.    3144.29  E(vib)   ...       0.00 
freq.    3171.80  E(vib)   ...       0.00 
freq.    3174.62  E(vib)   ...       0.00 
freq.    3181.29  E(vib)   ...       0.00 
freq.    3185.89  E(vib)   ...       0.00 
freq.    3187.87  E(vib)   ...       0.00 
freq.    3191.18  E(vib)   ...       0.00 
freq.    3191.85  E(vib)   ...       0.00 
freq.    3197.74  E(vib)   ...       0.00 
freq.    3204.55  E(vib)   ...       0.00 
freq.    3227.72  E(vib)   ...       0.00 

------------
INNER ENERGY
------------

The inner energy is: U= E(el) + E(ZPE) + E(vib) + E(rot) + E(trans)
    E(el)   - is the total energy from the electronic structure calculation
              = E(kin-el) + E(nuc-el) + E(el-el) + E(nuc-nuc)
    E(ZPE)  - the the zero temperature vibrational energy from the frequency calculation
    E(vib)  - the the finite temperature correction to E(ZPE) due to population
              of excited vibrational states
    E(rot)  - is the rotational thermal energy
    E(trans)- is the translational thermal energy

Summary of contributions to the inner energy U:
Electronic energy                ...   -747.72856164 Eh
Zero point energy                ...      0.36161519 Eh     226.92 kcal/mol
Thermal vibrational correction   ...      0.01668987 Eh      10.47 kcal/mol
Thermal rotational correction    ...      0.00141627 Eh       0.89 kcal/mol
Thermal translational correction ...      0.00141627 Eh       0.89 kcal/mol
-----------------------------------------------------------------------
Total thermal energy                   -747.34742404 Eh


Summary of corrections to the electronic energy:
(perhaps to be used in another calculation)
Total thermal correction                  0.01952241 Eh      12.25 kcal/mol
Non-thermal (ZPE) correction              0.36161519 Eh     226.92 kcal/mol
-----------------------------------------------------------------------
Total correction                          0.38113761 Eh     239.17 kcal/mol


--------
ENTHALPY
--------

The enthalpy is H = U + kB*T
                kB is Boltzmann's constant
Total free energy                 ...   -747.34742404 Eh 
Thermal Enthalpy correction       ...      0.00094421 Eh       0.59 kcal/mol
-----------------------------------------------------------------------
Total Enthalpy                    ...   -747.34647983 Eh


Note: Only C1 symmetry has been detected, increase convergence thresholds 
      if your molecule has a higher symmetry. Symmetry factor of 1.0 is   
      used for the rotational entropy correction. 
 

Note: Rotational entropy computed according to Herzberg 
Infrared and Raman Spectra, Chapter V,1, Van Nostrand Reinhold, 1945 
Point Group:  C1, Symmetry Number:   1  
Rotational constants in cm-1:     0.031085     0.008390     0.007581 

Vibrational entropy computed according to the QRRHO of S. Grimme
Chem.Eur.J. 2012 18 9955


-------
ENTROPY
-------

The entropy contributions are T*S = T*(S(el)+S(vib)+S(rot)+S(trans))
     S(el)   - electronic entropy
     S(vib)  - vibrational entropy
     S(rot)  - rotational entropy
     S(trans)- translational entropy
The entropies will be listed as multiplied by the temperature to get
units of energy

Electronic entropy                ...      0.00000000 Eh      0.00 kcal/mol
Vibrational entropy               ...      0.02982326 Eh     18.71 kcal/mol
Rotational entropy                ...      0.01571115 Eh      9.86 kcal/mol
Translational entropy             ...      0.02005291 Eh     12.58 kcal/mol
-----------------------------------------------------------------------
Final entropy term                ...      0.06558732 Eh     41.16 kcal/mol

In case the symmetry of your molecule has not been determined correctly
or in case you have a reason to use a different symmetry number we print 
out the resulting rotational entropy values for sn=1,12 :
 --------------------------------------------------------
|  sn= 1 | S(rot)=       0.01571115 Eh      9.86 kcal/mol|
|  sn= 2 | S(rot)=       0.01505669 Eh      9.45 kcal/mol|
|  sn= 3 | S(rot)=       0.01467386 Eh      9.21 kcal/mol|
|  sn= 4 | S(rot)=       0.01440224 Eh      9.04 kcal/mol|
|  sn= 5 | S(rot)=       0.01419155 Eh      8.91 kcal/mol|
|  sn= 6 | S(rot)=       0.01401941 Eh      8.80 kcal/mol|
|  sn= 7 | S(rot)=       0.01387386 Eh      8.71 kcal/mol|
|  sn= 8 | S(rot)=       0.01374778 Eh      8.63 kcal/mol|
|  sn= 9 | S(rot)=       0.01363657 Eh      8.56 kcal/mol|
|  sn=10 | S(rot)=       0.01353709 Eh      8.49 kcal/mol|
|  sn=11 | S(rot)=       0.01344710 Eh      8.44 kcal/mol|
|  sn=12 | S(rot)=       0.01336495 Eh      8.39 kcal/mol|
 --------------------------------------------------------


-------------------
GIBBS FREE ENERGY
-------------------

The Gibbs free energy is G = H - T*S

Total enthalpy                    ...   -747.34647983 Eh 
Total entropy correction          ...     -0.06558732 Eh    -41.16 kcal/mol
-----------------------------------------------------------------------
Final Gibbs free energy         ...   -747.41206715 Eh

For completeness - the Gibbs free energy minus the electronic energy
G-E(el)                           ...      0.31649449 Eh    198.60 kcal/mol


Timings for individual modules:

Sum of individual times         ...     3315.023 sec (=  55.250 min)
GTO integral calculation        ...       23.810 sec (=   0.397 min)   0.7 %
SCF iterations                  ...     1417.252 sec (=  23.621 min)  42.8 %
SCF Gradient evaluation         ...      410.474 sec (=   6.841 min)  12.4 %
Geometry relaxation             ...        1.298 sec (=   0.022 min)   0.0 %
Analytical frequency calculation...     1462.189 sec (=  24.370 min)  44.1 %
                             ****ORCA TERMINATED NORMALLY****
TOTAL RUN TIME: 0 days 0 hours 55 minutes 20 seconds 910 msec
