
                                 *****************
                                 * O   R   C   A *
                                 *****************

                                            #,                                       
                                            ###                                      
                                            ####                                     
                                            #####                                    
                                            ######                                   
                                           ########,                                 
                                     ,,################,,,,,                         
                               ,,#################################,,                 
                          ,,##########################################,,             
                       ,#########################################, ''#####,          
                    ,#############################################,,   '####,        
                  ,##################################################,,,,####,       
                ,###########''''           ''''###############################       
              ,#####''   ,,,,##########,,,,          '''####'''          '####       
            ,##' ,,,,###########################,,,                        '##       
           ' ,,###''''                  '''############,,,                           
         ,,##''                                '''############,,,,        ,,,,,,###''
      ,#''                                            '''#######################'''  
     '                                                          ''''####''''         
             ,#######,   #######,   ,#######,      ##                                
            ,#'     '#,  ##    ##  ,#'     '#,    #''#        ######   ,####,        
            ##       ##  ##   ,#'  ##            #'  '#       #        #'  '#        
            ##       ##  #######   ##           ,######,      #####,   #    #        
            '#,     ,#'  ##    ##  '#,     ,#' ,#      #,         ##   #,  ,#        
             '#######'   ##     ##  '#######'  #'      '#     #####' # '####'        



                  #######################################################
                  #                        -***-                        #
                  #          Department of theory and spectroscopy      #
                  #    Directorship and core code : Frank Neese         #
                  #        Max Planck Institute fuer Kohlenforschung    #
                  #                Kaiser Wilhelm Platz 1               #
                  #                 D-45470 Muelheim/Ruhr               #
                  #                      Germany                        #
                  #                                                     #
                  #                  All rights reserved                #
                  #                        -***-                        #
                  #######################################################


                         Program Version 5.0.4 -  RELEASE  -


 With contributions from (in alphabetic order):
   Daniel Aravena         : Magnetic Suceptibility
   Michael Atanasov       : Ab Initio Ligand Field Theory (pilot matlab implementation)
   Alexander A. Auer      : GIAO ZORA, VPT2 properties, NMR spectrum
   Ute Becker             : Parallelization
   Giovanni Bistoni       : ED, misc. LED, open-shell LED, HFLD
   Martin Brehm           : Molecular dynamics
   Dmytro Bykov           : SCF Hessian
   Vijay G. Chilkuri      : MRCI spin determinant printing, contributions to CSF-ICE
   Dipayan Datta          : RHF DLPNO-CCSD density
   Achintya Kumar Dutta   : EOM-CC, STEOM-CC
   Dmitry Ganyushin       : Spin-Orbit,Spin-Spin,Magnetic field MRCI
   Miquel Garcia          : C-PCM and meta-GGA Hessian, CC/C-PCM, Gaussian charge scheme
   Yang Guo               : DLPNO-NEVPT2, F12-NEVPT2, CIM, IAO-localization
   Andreas Hansen         : Spin unrestricted coupled pair/coupled cluster methods
   Benjamin Helmich-Paris : MC-RPA, TRAH-SCF, COSX integrals
   Lee Huntington         : MR-EOM, pCC
   Robert Izsak           : Overlap fitted RIJCOSX, COSX-SCS-MP3, EOM
   Marcus Kettner         : VPT2
   Christian Kollmar      : KDIIS, OOCD, Brueckner-CCSD(T), CCSD density, CASPT2, CASPT2-K
   Simone Kossmann        : Meta GGA functionals, TD-DFT gradient, OOMP2, MP2 Hessian
   Martin Krupicka        : Initial AUTO-CI
   Lucas Lang             : DCDCAS
   Marvin Lechner         : AUTO-CI (C++ implementation), FIC-MRCC
   Dagmar Lenk            : GEPOL surface, SMD
   Dimitrios Liakos       : Extrapolation schemes; Compound Job, initial MDCI parallelization
   Dimitrios Manganas     : Further ROCIS development; embedding schemes
   Dimitrios Pantazis     : SARC Basis sets
   Anastasios Papadopoulos: AUTO-CI, single reference methods and gradients
   Taras Petrenko         : DFT Hessian,TD-DFT gradient, ASA, ECA, R-Raman, ABS, FL, XAS/XES, NRVS
   Peter Pinski           : DLPNO-MP2, DLPNO-MP2 Gradient
   Christoph Reimann      : Effective Core Potentials
   Marius Retegan         : Local ZFS, SOC
   Christoph Riplinger    : Optimizer, TS searches, QM/MM, DLPNO-CCSD(T), (RO)-DLPNO pert. Triples
   Tobias Risthaus        : Range-separated hybrids, TD-DFT gradient, RPA, STAB
   Michael Roemelt        : Original ROCIS implementation
   Masaaki Saitow         : Open-shell DLPNO-CCSD energy and density
   Barbara Sandhoefer     : DKH picture change effects
   Avijit Sen             : IP-ROCIS
   Kantharuban Sivalingam : CASSCF convergence, NEVPT2, FIC-MRCI
   Bernardo de Souza      : ESD, SOC TD-DFT
   Georgi Stoychev        : AutoAux, RI-MP2 NMR, DLPNO-MP2 response
   Willem Van den Heuvel  : Paramagnetic NMR
   Boris Wezisla          : Elementary symmetry handling
   Frank Wennmohs         : Technical directorship


 We gratefully acknowledge several colleagues who have allowed us to
 interface, adapt or use parts of their codes:
   Stefan Grimme, W. Hujo, H. Kruse, P. Pracht,  : VdW corrections, initial TS optimization,
                  C. Bannwarth, S. Ehlert          DFT functionals, gCP, sTDA/sTD-DF
   Ed Valeev, F. Pavosevic, A. Kumar             : LibInt (2-el integral package), F12 methods
   Garnet Chan, S. Sharma, J. Yang, R. Olivares  : DMRG
   Ulf Ekstrom                                   : XCFun DFT Library
   Mihaly Kallay                                 : mrcc  (arbitrary order and MRCC methods)
   Jiri Pittner, Ondrej Demel                    : Mk-CCSD
   Frank Weinhold                                : gennbo (NPA and NBO analysis)
   Christopher J. Cramer and Donald G. Truhlar   : smd solvation model
   Lars Goerigk                                  : TD-DFT with DH, B97 family of functionals
   V. Asgeirsson, H. Jonsson                     : NEB implementation
   FAccTs GmbH                                   : IRC, NEB, NEB-TS, DLPNO-Multilevel, CI-OPT
                                                   MM, QMMM, 2- and 3-layer-ONIOM, Crystal-QMMM,
                                                   LR-CPCM, SF, NACMEs, symmetry and pop. for TD-DFT,
                                                   nearIR, NL-DFT gradient (VV10), updates on ESD,
                                                   ML-optimized integration grids
   S Lehtola, MJT Oliveira, MAL Marques          : LibXC Library
   Liviu Ungur et al                             : ANISO software


 Your calculation uses the libint2 library for the computation of 2-el integrals
 For citations please refer to: http://libint.valeyev.net

 Your ORCA version has been built with support for libXC version: 5.1.0
 For citations please refer to: https://tddft.org/programs/libxc/

 This ORCA versions uses:
   CBLAS   interface :  Fast vector & matrix operations
   LAPACKE interface :  Fast linear algebra routines
   SCALAPACK package :  Parallel linear algebra routines
   Shared memory     :  Shared parallel matrices
   BLAS/LAPACK       :  OpenBLAS 0.3.15  USE64BITINT DYNAMIC_ARCH NO_AFFINITY SkylakeX SINGLE_THREADED
        Core in use  :  SkylakeX
   Copyright (c) 2011-2014, The OpenBLAS Project




***************************************
The coordinates will be read from file: /users/fjb15167/WWenergy/structures/Ns.xyz
***************************************


Your calculation utilizes the atom-pairwise dispersion correction
based on tight binding partial charges (D4)
Cite in your paper:
E.Caldeweyher, C.Bannwarth, S.Grimme, J.Chem.Phys., (2017), 147, 034112.
E.Caldeweyher, S.Ehlert, A.Hansen, H.Neugebauer, S.Grimme, J.Chem.Phys., (2018), in progress.
   

================================================================================

----- Orbital basis set information -----
Your calculation utilizes the basis: 6-31G(d)
   H-He, Li-Ne : W. J. Hehre, R. Ditchfield and J.A. Pople, J. Chem. Phys. 56, 2257 (1972).
                 Note: He and Ne are unpublished basis sets taken from the Gaussian program.
                 Note: Li and B from J. D. Dill and J. A. Pople, J. Chem. Phys. 62, 2921 (1975).
   Na - Ar     : M. M. Francl, W. J. Pietro, W. J. Hehre, J. S. Binkley, M. S. Gordon, 
                 D. J. DeFrees and J. A. Pople, J. Chem. Phys. 77, 3654 (1982).
   K - Zn      : V. A. Rassolov, J. A. Pople, M. A. Ratner, and T. L. Windus, J. Chem. Phys. 109, 1223 (1998).

----- AuxJ basis set information -----
Your calculation utilizes the AutoAux generation procedure.
  G. L. Stoychev, A. A. Auer, F. Neese, J. Chem. Theory Comput. 13, 554 (2017)

----- AuxC basis set information -----
Your calculation utilizes the AutoAux generation procedure.
  G. L. Stoychev, A. A. Auer, F. Neese, J. Chem. Theory Comput. 13, 554 (2017)

----- AuxJK basis set information -----
Your calculation utilizes the AutoAux generation procedure.
  G. L. Stoychev, A. A. Auer, F. Neese, J. Chem. Theory Comput. 13, 554 (2017)

================================================================================
                                        WARNINGS
                       Please study these warnings very carefully!
================================================================================


WARNING: Geometry Optimization
  ===> : Switching off AutoStart
         For restart on a previous wavefunction, please use MOREAD

INFO   : the flag for use of the SHARK integral package has been found!

================================================================================
                                       INPUT FILE
================================================================================
NAME = Ns_water.inp
|  1> ! OPT FREQ B3LYP 6-31G(d) D4 AUTOAUX CPCM(water)
|  2> 
|  3> %PAL NPROCS 4 END
|  4> 
|  5> %maxcore 3375
|  6> 
|  7> *xyzfile 0 1 /users/fjb15167/WWenergy/structures/Ns.xyz
|  8> 
|  9>                          ****END OF INPUT****
================================================================================

                       *****************************
                       * Geometry Optimization Run *
                       *****************************

Geometry optimization settings:
Update method            Update   .... BFGS
Choice of coordinates    CoordSys .... Z-matrix Internals
Initial Hessian          InHess   .... Almoef's Model

Convergence Tolerances:
Energy Change            TolE     ....  5.0000e-06 Eh
Max. Gradient            TolMAXG  ....  3.0000e-04 Eh/bohr
RMS Gradient             TolRMSG  ....  1.0000e-04 Eh/bohr
Max. Displacement        TolMAXD  ....  4.0000e-03 bohr
RMS Displacement         TolRMSD  ....  2.0000e-03 bohr
Strict Convergence                ....  False
------------------------------------------------------------------------------
                        ORCA OPTIMIZATION COORDINATE SETUP
------------------------------------------------------------------------------

The optimization will be done in new redundant internal coordinates
Making redundant internal coordinates   ...  (new redundants) done
Evaluating the initial hessian          ...  (Almloef) done
Evaluating the coordinates              ...  done
Calculating the B-matrix                .... done
Calculating the G-matrix                .... done
Diagonalizing the G-matrix              .... done
Small eigenvalue found = 7.989e-03
Small eigenvalue found = 1.341e-02
Small eigenvalue found = 2.143e-02
The first mode is                       ....   43
The number of degrees of freedom        ....   72

    -----------------------------------------------------------------
                    Redundant Internal Coordinates


    -----------------------------------------------------------------
         Definition                    Initial Value    Approx d2E/dq
    -----------------------------------------------------------------
      1. B(O   4,C   0)                  1.2131         1.071928   
      2. B(C   5,H   3)                  1.0896         0.360607   
      3. B(C   5,C   0)                  1.5271         0.377598   
      4. B(C   5,H   1)                  1.0922         0.357218   
      5. B(C   5,H   2)                  1.0941         0.354734   
      6. B(N   6,C   0)                  1.3928         0.553828   
      7. B(C   7,N   6)                  1.4636         0.427020   
      8. B(H   8,C   7)                  1.0901         0.359995   
      9. B(H   9,C   7)                  1.0957         0.352676   
     10. B(C  10,N   6)                  1.4517         0.446095   
     11. B(H  11,C  10)                  1.0878         0.363044   
     12. B(H  12,C  10)                  1.0947         0.353961   
     13. B(O  13,C  10)                  1.4208         0.499713   
     14. B(H  14,O  13)                  0.9750         0.492112   
     15. B(C  15,C   7)                  1.5227         0.383706   
     16. B(O  16,C  15)                  1.2415         0.965687   
     17. B(N  17,C  15)                  1.3638         0.616183   
     18. B(C  18,N  17)                  1.4550         0.440752   
     19. B(H  19,C  18)                  1.0941         0.354767   
     20. B(H  20,C  18)                  1.0874         0.363514   
     21. B(H  21,C  18)                  1.0973         0.350561   
     22. B(C  22,N  17)                  1.4544         0.441719   
     23. B(H  23,C  22)                  1.0981         0.349551   
     24. B(H  24,C  22)                  1.0864         0.364842   
     25. B(H  25,C  22)                  1.0952         0.353277   
     26. A(C   5,C   0,N   6)          115.2167         0.387178   
     27. A(O   4,C   0,C   5)          122.1565         0.435247   
     28. A(O   4,C   0,N   6)          122.6063         0.463497   
     29. A(H   1,C   5,H   2)          108.4051         0.289789   
     30. A(H   2,C   5,H   3)          108.9174         0.290219   
     31. A(C   0,C   5,H   2)          111.2491         0.324090   
     32. A(C   0,C   5,H   3)          106.6950         0.324965   
     33. A(H   1,C   5,H   3)          110.0313         0.290537   
     34. A(C   0,C   5,H   1)          111.5107         0.324461   
     35. A(C   0,N   6,C  10)          122.8932         0.396095   
     36. A(C   7,N   6,C  10)          116.2028         0.378543   
     37. A(C   0,N   6,C   7)          117.4387         0.393073   
     38. A(H   8,C   7,H   9)          108.1802         0.289877   
     39. A(H   9,C   7,C  15)          105.8224         0.324635   
     40. A(H   8,C   7,C  15)          113.8172         0.325733   
     41. A(N   6,C   7,H   9)          110.5847         0.328422   
     42. A(N   6,C   7,H   8)          107.9259         0.329538   
     43. A(N   6,C   7,C  15)          110.4877         0.371158   
     44. A(H  12,C  10,O  13)          111.4448         0.337299   
     45. A(H  11,C  10,O  13)          105.6181         0.338727   
     46. A(N   6,C  10,O  13)          113.7945         0.389031   
     47. A(H  11,C  10,H  12)          109.2717         0.290426   
     48. A(N   6,C  10,H  12)          107.0258         0.331001   
     49. A(N   6,C  10,H  11)          109.6432         0.332393   
     50. A(C  10,O  13,H  14)          107.5468         0.353408   
     51. A(O  16,C  15,N  17)          123.0501         0.463693   
     52. A(C   7,C  15,N  17)          117.8154         0.395577   
     53. A(C   7,C  15,O  16)          119.1246         0.428394   
     54. A(C  15,N  17,C  18)          118.3941         0.402744   
     55. A(C  18,N  17,C  22)          115.3903         0.379975   
     56. A(C  15,N  17,C  22)          125.1443         0.402900   
     57. A(N  17,C  18,H  20)          108.5583         0.331801   
     58. A(N  17,C  18,H  19)          109.3787         0.330466   
     59. A(H  20,C  18,H  21)          109.4451         0.290046   
     60. A(H  19,C  18,H  21)          108.6538         0.288940   
     61. A(N  17,C  18,H  21)          110.6898         0.329815   
     62. A(H  19,C  18,H  20)          110.1101         0.290589   
     63. A(H  23,C  22,H  25)          108.2191         0.288620   
     64. A(N  17,C  22,H  25)          108.9625         0.330356   
     65. A(H  23,C  22,H  24)          108.5130         0.290080   
     66. A(N  17,C  22,H  24)          112.0083         0.332122   
     67. A(H  24,C  22,H  25)          108.8106         0.290563   
     68. A(N  17,C  22,H  23)          110.2433         0.329778   
     69. D(H   3,C   5,C   0,O   4)     -6.3409         0.010648   
     70. D(H   1,C   5,C   0,N   6)     55.0939         0.010648   
     71. D(H   2,C   5,C   0,N   6)    -66.0633         0.010648   
     72. D(H   2,C   5,C   0,O   4)    112.3307         0.010648   
     73. D(H   1,C   5,C   0,O   4)   -126.5122         0.010648   
     74. D(H   3,C   5,C   0,N   6)    175.2652         0.010648   
     75. D(C   7,N   6,C   0,O   4)     11.4669         0.024465   
     76. D(C  10,N   6,C   0,C   5)    -11.9743         0.024465   
     77. D(C  10,N   6,C   0,O   4)    169.6398         0.024465   
     78. D(C   7,N   6,C   0,C   5)   -170.1472         0.024465   
     79. D(H   9,C   7,N   6,C  10)    -48.0821         0.015546   
     80. D(H   9,C   7,N   6,C   0)    111.5555         0.015546   
     81. D(C  15,C   7,N   6,C   0)   -131.6209         0.015546   
     82. D(H   8,C   7,N   6,C  10)   -166.2322         0.015546   
     83. D(H   8,C   7,N   6,C   0)     -6.5947         0.015546   
     84. D(C  15,C   7,N   6,C  10)     68.7416         0.015546   
     85. D(O  13,C  10,N   6,C   7)     87.3072         0.016973   
     86. D(O  13,C  10,N   6,C   0)    -71.1144         0.016973   
     87. D(H  12,C  10,N   6,C   7)    -36.2596         0.016973   
     88. D(H  12,C  10,N   6,C   0)    165.3188         0.016973   
     89. D(H  11,C  10,N   6,C   7)   -154.6714         0.016973   
     90. D(H  11,C  10,N   6,C   0)     46.9070         0.016973   
     91. D(H  14,O  13,C  10,H  12)     46.7037         0.019741   
     92. D(H  14,O  13,C  10,H  11)    165.2583         0.019741   
     93. D(H  14,O  13,C  10,N   6)    -74.4278         0.019741   
     94. D(N  17,C  15,C   7,H   8)    -44.2135         0.010974   
     95. D(N  17,C  15,C   7,N   6)     77.3931         0.010974   
     96. D(O  16,C  15,C   7,H   9)     18.2386         0.010974   
     97. D(O  16,C  15,C   7,H   8)    136.8963         0.010974   
     98. D(N  17,C  15,C   7,H   9)   -162.8712         0.010974   
     99. D(O  16,C  15,C   7,N   6)   -101.4971         0.010974   
    100. D(C  22,N  17,C  15,O  16)    170.5627         0.030715   
    101. D(C  22,N  17,C  15,C   7)     -8.2806         0.030715   
    102. D(C  18,N  17,C  15,O  16)      2.9756         0.030715   
    103. D(C  18,N  17,C  15,C   7)   -175.8677         0.030715   
    104. D(H  21,C  18,N  17,C  22)    -63.6932         0.016565   
    105. D(H  21,C  18,N  17,C  15)    105.0876         0.016565   
    106. D(H  20,C  18,N  17,C  22)    176.1635         0.016565   
    107. D(H  20,C  18,N  17,C  15)    -15.0558         0.016565   
    108. D(H  19,C  18,N  17,C  22)     55.9944         0.016565   
    109. D(H  19,C  18,N  17,C  15)   -135.2248         0.016565   
    110. D(H  25,C  22,N  17,C  15)    136.5982         0.016639   
    111. D(H  24,C  22,N  17,C  18)   -175.9230         0.016639   
    112. D(H  24,C  22,N  17,C  15)     16.1592         0.016639   
    113. D(H  23,C  22,N  17,C  18)     63.1408         0.016639   
    114. D(H  25,C  22,N  17,C  18)    -55.4839         0.016639   
    115. D(H  23,C  22,N  17,C  15)   -104.7771         0.016639   
    -----------------------------------------------------------------

Number of atoms                         .... 26
Number of degrees of freedom            .... 115

         *************************************************************
         *                GEOMETRY OPTIMIZATION CYCLE   1            *
         *************************************************************
---------------------------------
CARTESIAN COORDINATES (ANGSTROEM)
---------------------------------
  C      1.002000    1.526000   -0.230000
  H      3.075000    1.013000    0.203000
  H      2.145000    1.526000    1.623000
  H      2.621000    2.730000    0.406000
  O      0.446000    2.458000   -0.772000
  C      2.301000    1.699000    0.554000
  N      0.487000    0.232000   -0.247000
  C     -0.626000   -0.039000   -1.158000
  H     -0.936000    0.908000   -1.600000
  H     -0.308000   -0.706000   -1.967000
  C      1.242000   -0.923000    0.204000
  H      1.710000   -0.703000    1.161000
  H      0.528000   -1.743000    0.331000
  O      2.304000   -1.289000   -0.666000
  H      1.909000   -1.715000   -1.449000
  C     -1.744000   -0.773000   -0.430000
  O     -1.863000   -1.999000   -0.585000
  N     -2.558000   -0.044000    0.386000
  C     -3.572000   -0.746000    1.158000
  H     -4.519000   -0.202000    1.093000
  H     -3.687000   -1.747000    0.749000
  H     -3.278000   -0.814000    2.213000
  C     -2.346000    1.347000    0.754000
  H     -1.977000    1.415000    1.786000
  H     -1.631000    1.837000    0.099000
  H     -3.301000    1.880000    0.696000

----------------------------
CARTESIAN COORDINATES (A.U.)
----------------------------
  NO LB      ZA    FRAG     MASS         X           Y           Z
   0 C     6.0000    0    12.011    1.893506    2.883722   -0.434637
   1 H     1.0000    0     1.008    5.810908    1.914293    0.383614
   2 H     1.0000    0     1.008    4.053463    2.883722    3.067026
   3 H     1.0000    0     1.008    4.952972    5.158952    0.767229
   4 O     8.0000    0    15.999    0.842818    4.644947   -1.458869
   5 C     6.0000    0    12.011    4.348260    3.210645    1.046908
   6 N     7.0000    0    14.007    0.920297    0.438416   -0.466762
   7 C     6.0000    0    12.011   -1.182969   -0.073699   -2.188303
   8 H     1.0000    0     1.008   -1.768784    1.715871   -3.023562
   9 H     1.0000    0     1.008   -0.582036   -1.334147   -3.717091
  10 C     6.0000    0    12.011    2.347040   -1.744217    0.385504
  11 H     1.0000    0     1.008    3.231432   -1.328477    2.193972
  12 H     1.0000    0     1.008    0.997775   -3.293793    0.625499
  13 O     8.0000    0    15.999    4.353929   -2.435857   -1.258558
  14 H     1.0000    0     1.008    3.607487   -3.240880   -2.738213
  15 C     6.0000    0    12.011   -3.295682   -1.460758   -0.812582
  16 O     8.0000    0    15.999   -3.520560   -3.777563   -1.105490
  17 N     7.0000    0    14.007   -4.833919   -0.083148    0.729434
  18 C     6.0000    0    12.011   -6.750102   -1.409736    2.188303
  19 H     1.0000    0     1.008   -8.539672   -0.381725    2.065471
  20 H     1.0000    0     1.008   -6.967420   -3.301352    1.415405
  21 H     1.0000    0     1.008   -6.194522   -1.538237    4.181964
  22 C     6.0000    0    12.011   -4.433298    2.545461    1.424854
  23 H     1.0000    0     1.008   -3.735989    2.673962    3.375051
  24 H     1.0000    0     1.008   -3.082143    3.471427    0.187083
  25 H     1.0000    0     1.008   -6.237986    3.552685    1.315249

--------------------------------
INTERNAL COORDINATES (ANGSTROEM)
--------------------------------
 C      0   0   0     0.000000000000     0.00000000     0.00000000
 H      1   0   0     2.178987608960     0.00000000     0.00000000
 H      2   1   0     1.773265067608    65.92531104     0.00000000
 H      3   2   1     1.776873940380    60.46643814   287.72537210
 O      1   2   3     1.213063889496   134.88758127   106.43583382
 C      4   3   2     1.089616905155    35.62510800    35.68827198
 N      1   2   3     1.392820878649    97.78562242   261.10412739
 C      7   1   2     1.463602063404   117.43870524   212.55780834
 H      8   7   1     1.090079354910   107.92586144   353.40528593
 H      8   7   1     1.095670570929   110.58472104   111.55545537
 C      7   1   2     1.451706237501   122.89315990    10.73068846
 H     11   7   1     1.087783526259   109.64319184    46.90697676
 H     11   7   1     1.094680318632   107.02576194   165.31882253
 O     11   7   1     1.420809628346   113.79448056   288.88562842
 H     14  11   7     0.974982051117   107.54680526   285.57220973
 C      8   7   1     1.522715994531   110.48765556   228.37909526
 O     16   8   7     1.241475734761   119.12464192   258.50287180
 N     16   8   7     1.363778941031   117.81538153    77.39305245
 C     18  16   8     1.454985910585   118.39405224   184.13229347
 H     19  18  16     1.094061241430   109.37868515   224.77518704
 H     19  18  16     1.087431377145   108.55825974   344.94424645
 H     19  18  16     1.097308069778   110.68977469   105.08761484
 C     18  16   8     1.454389562669   125.14434802   351.71937182
 H     23  18  16     1.098093347580   110.24326424   255.22291276
 H     23  18  16     1.086439137734   112.00829008    16.15918305
 H     23  18  16     1.095206829781   108.96254554   136.59821341

---------------------------
INTERNAL COORDINATES (A.U.)
---------------------------
 C      0   0   0     0.000000000000     0.00000000     0.00000000
 H      1   0   0     4.117689830142     0.00000000     0.00000000
 H      2   1   0     3.350985340629    65.92531104     0.00000000
 H      3   2   1     3.357805121819    60.46643814   287.72537210
 O      1   2   3     2.292358534097   134.88758127   106.43583382
 C      4   3   2     2.059077541634    35.62510800    35.68827198
 N      1   2   3     2.632050014254    97.78562242   261.10412739
 C      7   1   2     2.765807068875   117.43870524   212.55780834
 H      8   7   1     2.059951445021   107.92586144   353.40528593
 H      8   7   1     2.070517312053   110.58472104   111.55545537
 C      7   1   2     2.743327215783   122.89315990    10.73068846
 H     11   7   1     2.055612957620   109.64319184    46.90697676
 H     11   7   1     2.068646006408   107.02576194   165.31882253
 O     11   7   1     2.684941086012   113.79448056   288.88562842
 H     14  11   7     1.842449062100   107.54680526   285.57220973
 C      8   7   1     2.877516209405   110.48765556   228.37909526
 O     16   8   7     2.346049140607   119.12464192   258.50287180
 N     16   8   7     2.577168705758   117.81538153    77.39305245
 C     18  16   8     2.749524899719   118.39405224   184.13229347
 H     19  18  16     2.067476120041   109.37868515   224.77518704
 H     19  18  16     2.054947492237   108.55825974   344.94424645
 H     19  18  16     2.073611736422   110.68977469   105.08761484
 C     18  16   8     2.748397965478   125.14434802   351.71937182
 H     23  18  16     2.075095696407   110.24326424   255.22291276
 H     23  18  16     2.053072431491   112.00829008    16.15918305
 H     23  18  16     2.069640968287   108.96254554   136.59821341

---------------------
BASIS SET INFORMATION
---------------------
There are 4 groups of distinct atoms

 Group   1 Type C   : 10s4p1d contracted to 3s2p1d pattern {631/31/1}
 Group   2 Type H   : 4s contracted to 2s pattern {31}
 Group   3 Type O   : 10s4p1d contracted to 3s2p1d pattern {631/31/1}
 Group   4 Type N   : 10s4p1d contracted to 3s2p1d pattern {631/31/1}

Atom   0C    basis set group =>   1
Atom   1H    basis set group =>   2
Atom   2H    basis set group =>   2
Atom   3H    basis set group =>   2
Atom   4O    basis set group =>   3
Atom   5C    basis set group =>   1
Atom   6N    basis set group =>   4
Atom   7C    basis set group =>   1
Atom   8H    basis set group =>   2
Atom   9H    basis set group =>   2
Atom  10C    basis set group =>   1
Atom  11H    basis set group =>   2
Atom  12H    basis set group =>   2
Atom  13O    basis set group =>   3
Atom  14H    basis set group =>   2
Atom  15C    basis set group =>   1
Atom  16O    basis set group =>   3
Atom  17N    basis set group =>   4
Atom  18C    basis set group =>   1
Atom  19H    basis set group =>   2
Atom  20H    basis set group =>   2
Atom  21H    basis set group =>   2
Atom  22C    basis set group =>   1
Atom  23H    basis set group =>   2
Atom  24H    basis set group =>   2
Atom  25H    basis set group =>   2
---------------------------------
AUXILIARY/J BASIS SET INFORMATION
---------------------------------
There are 4 groups of distinct atoms

 Group   1 Type C   : 13s11p10d2f contracted to 13s11p10d2f pattern {1111111111111/11111111111/1111111111/11}
 Group   2 Type H   : 9s2p contracted to 9s2p pattern {111111111/11}
 Group   3 Type O   : 14s11p10d2f contracted to 14s11p10d2f pattern {11111111111111/11111111111/1111111111/11}
 Group   4 Type N   : 14s11p10d2f contracted to 14s11p10d2f pattern {11111111111111/11111111111/1111111111/11}

Atom   0C    basis set group =>   1
Atom   1H    basis set group =>   2
Atom   2H    basis set group =>   2
Atom   3H    basis set group =>   2
Atom   4O    basis set group =>   3
Atom   5C    basis set group =>   1
Atom   6N    basis set group =>   4
Atom   7C    basis set group =>   1
Atom   8H    basis set group =>   2
Atom   9H    basis set group =>   2
Atom  10C    basis set group =>   1
Atom  11H    basis set group =>   2
Atom  12H    basis set group =>   2
Atom  13O    basis set group =>   3
Atom  14H    basis set group =>   2
Atom  15C    basis set group =>   1
Atom  16O    basis set group =>   3
Atom  17N    basis set group =>   4
Atom  18C    basis set group =>   1
Atom  19H    basis set group =>   2
Atom  20H    basis set group =>   2
Atom  21H    basis set group =>   2
Atom  22C    basis set group =>   1
Atom  23H    basis set group =>   2
Atom  24H    basis set group =>   2
Atom  25H    basis set group =>   2
---------------------------------
AUXILIARY/C BASIS SET INFORMATION
---------------------------------
There are 4 groups of distinct atoms

 Group   1 Type C   : 13s11p10d2f contracted to 13s11p10d2f pattern {1111111111111/11111111111/1111111111/11}
 Group   2 Type H   : 9s2p contracted to 9s2p pattern {111111111/11}
 Group   3 Type O   : 14s11p10d2f contracted to 14s11p10d2f pattern {11111111111111/11111111111/1111111111/11}
 Group   4 Type N   : 14s11p10d2f contracted to 14s11p10d2f pattern {11111111111111/11111111111/1111111111/11}

Atom   0C    basis set group =>   1
Atom   1H    basis set group =>   2
Atom   2H    basis set group =>   2
Atom   3H    basis set group =>   2
Atom   4O    basis set group =>   3
Atom   5C    basis set group =>   1
Atom   6N    basis set group =>   4
Atom   7C    basis set group =>   1
Atom   8H    basis set group =>   2
Atom   9H    basis set group =>   2
Atom  10C    basis set group =>   1
Atom  11H    basis set group =>   2
Atom  12H    basis set group =>   2
Atom  13O    basis set group =>   3
Atom  14H    basis set group =>   2
Atom  15C    basis set group =>   1
Atom  16O    basis set group =>   3
Atom  17N    basis set group =>   4
Atom  18C    basis set group =>   1
Atom  19H    basis set group =>   2
Atom  20H    basis set group =>   2
Atom  21H    basis set group =>   2
Atom  22C    basis set group =>   1
Atom  23H    basis set group =>   2
Atom  24H    basis set group =>   2
Atom  25H    basis set group =>   2
----------------------------------
AUXILIARY/JK BASIS SET INFORMATION
----------------------------------
There are 4 groups of distinct atoms

 Group   1 Type C   : 13s11p10d2f contracted to 13s11p10d2f pattern {1111111111111/11111111111/1111111111/11}
 Group   2 Type H   : 9s2p contracted to 9s2p pattern {111111111/11}
 Group   3 Type O   : 14s11p10d2f contracted to 14s11p10d2f pattern {11111111111111/11111111111/1111111111/11}
 Group   4 Type N   : 14s11p10d2f contracted to 14s11p10d2f pattern {11111111111111/11111111111/1111111111/11}

Atom   0C    basis set group =>   1
Atom   1H    basis set group =>   2
Atom   2H    basis set group =>   2
Atom   3H    basis set group =>   2
Atom   4O    basis set group =>   3
Atom   5C    basis set group =>   1
Atom   6N    basis set group =>   4
Atom   7C    basis set group =>   1
Atom   8H    basis set group =>   2
Atom   9H    basis set group =>   2
Atom  10C    basis set group =>   1
Atom  11H    basis set group =>   2
Atom  12H    basis set group =>   2
Atom  13O    basis set group =>   3
Atom  14H    basis set group =>   2
Atom  15C    basis set group =>   1
Atom  16O    basis set group =>   3
Atom  17N    basis set group =>   4
Atom  18C    basis set group =>   1
Atom  19H    basis set group =>   2
Atom  20H    basis set group =>   2
Atom  21H    basis set group =>   2
Atom  22C    basis set group =>   1
Atom  23H    basis set group =>   2
Atom  24H    basis set group =>   2
Atom  25H    basis set group =>   2


           ************************************************************
           *        Program running with 4 parallel MPI-processes     *
           *              working on a common directory               *
           ************************************************************
------------------------------------------------------------------------------
                           ORCA GTO INTEGRAL CALCULATION
                           -- RI-GTO INTEGRALS CHOSEN --
------------------------------------------------------------------------------
------------------------------------------------------------------------------
                   ___                                                        
                  /   \      - P O W E R E D   B Y -                         
                 /     \                                                     
                 |  |  |   _    _      __       _____    __    __             
                 |  |  |  | |  | |    /  \     |  _  \  |  |  /  |          
                  \  \/   | |  | |   /    \    | | | |  |  | /  /          
                 / \  \   | |__| |  /  /\  \   | |_| |  |  |/  /          
                |  |  |   |  __  | /  /__\  \  |    /   |      \           
                |  |  |   | |  | | |   __   |  |    \   |  |\   \          
                \     /   | |  | | |  |  |  |  | |\  \  |  | \   \       
                 \___/    |_|  |_| |__|  |__|  |_| \__\ |__|  \__/        
                                                                              
                      - O R C A' S   B I G   F R I E N D -                    
                                      &                                       
                       - I N T E G R A L  F E E D E R -                       
                                                                              
 v1 FN, 2020, v2 2021                                                         
------------------------------------------------------------------------------


Reading SHARK input file Ns_water.SHARKINP.tmp ... ok
----------------------
SHARK INTEGRAL PACKAGE
----------------------

Number of atoms                             ...     26
Number of basis functions                   ...    196
Number of shells                            ...    100
Maximum angular momentum                    ...      2
Integral batch strategy                     ... SHARK/LIBINT Hybrid
RI-J (if used) integral strategy            ... SPLIT-RIJ (Revised 2003 algorithm where possible)
Printlevel                                  ...      1
Contraction scheme used                     ... SEGMENTED contraction
Coulomb Range Separation                    ... NOT USED
Exchange Range Separation                   ... NOT USED
Finite Nucleus Model                        ... NOT USED
Auxiliary Coulomb fitting basis             ... AVAILABLE
   # of basis functions in Aux-J            ...   1535
   # of shells in Aux-J                     ...    591
   Maximum angular momentum in Aux-J        ...      3
Auxiliary J/K fitting basis                 ... AVAILABLE
   # of basis functions in Aux-JK           ...   1535
   # of shells in Aux-JK                    ...    591
   Maximum angular momentum in Aux-JK       ...      3
Auxiliary Correlation fitting basis         ... AVAILABLE
   # of basis functions in Aux-C            ...   1535
   # of shells in Aux-C                     ...    591
   Maximum angular momentum in Aux-C        ...      3
Auxiliary 'external' fitting basis          ... NOT available
Integral threshold                          ...     2.500000e-11
Primitive cut-off                           ...     2.500000e-12
Primitive pair pre-selection threshold      ...     2.500000e-12

Calculating pre-screening integrals         ... done (  0.0 sec) Dimension = 100
Organizing shell pair data                  ... done (  0.4 sec)
Shell pair information
Total number of shell pairs                 ...      5050
Shell pairs after pre-screening             ...      4498
Total number of primitive shell pairs       ...     28260
Primitive shell pairs kept                  ...     15265
          la=0 lb=0:   1787 shell pairs
          la=1 lb=0:   1426 shell pairs
          la=1 lb=1:    290 shell pairs
          la=2 lb=0:    658 shell pairs
          la=2 lb=1:    270 shell pairs
          la=2 lb=2:     67 shell pairs

Calculating one electron integrals          ... done (  0.0 sec)
Calculating RI/J V-Matrix + Cholesky decomp.... done (  2.8 sec)
Calculating RI/JK V-Matrix + Cholesky decomp... done (  0.8 sec)
Calculating RI/C V-Matrix + Cholesky decomp.... done (  0.2 sec)
Calculating Nuclear repulsion               ... done (  0.0 sec) ENN=    775.261840406057 Eh

SHARK setup successfully completed in   5.0 seconds

Maximum memory used throughout the entire GTOINT-calculation: 22.1 MB


           ************************************************************
           *        Program running with 4 parallel MPI-processes     *
           *              working on a common directory               *
           ************************************************************
-------------------------------------------------------------------------------
                                 ORCA SCF
-------------------------------------------------------------------------------

------------
SCF SETTINGS
------------
Hamiltonian:
 Density Functional     Method          .... DFT(GTOs)
 Exchange Functional    Exchange        .... B88
   X-Alpha parameter    XAlpha          ....  0.666667
   Becke's b parameter  XBeta           ....  0.004200
 Correlation Functional Correlation     .... LYP
 LDA part of GGA corr.  LDAOpt          .... VWN-5
 Gradients option       PostSCFGGA      .... off
 Hybrid DFT is turned on
   Fraction HF Exchange ScalHFX         ....  0.200000
   Scaling of DF-GGA-X  ScalDFX         ....  0.720000
   Scaling of DF-GGA-C  ScalDFC         ....  0.810000
   Scaling of DF-LDA-C  ScalLDAC        ....  1.000000
   Perturbative correction              ....  0.000000
   Density functional embedding theory  .... OFF
   NL short-range parameter             ....  4.800000
 RI-approximation to the Coulomb term is turned on
   Number of AuxJ basis functions       .... 1535
   RIJ-COSX (HFX calculated with COS-X)).... on


General Settings:
 Integral files         IntName         .... Ns_water
 Hartree-Fock type      HFTyp           .... RHF
 Total Charge           Charge          ....    0
 Multiplicity           Mult            ....    1
 Number of Electrons    NEL             ....   94
 Basis Dimension        Dim             ....  196
 Nuclear Repulsion      ENuc            ....    775.2618404061 Eh

Convergence Acceleration:
 DIIS                   CNVDIIS         .... on
   Start iteration      DIISMaxIt       ....    12
   Startup error        DIISStart       ....  0.200000
   # of expansion vecs  DIISMaxEq       ....     5
   Bias factor          DIISBfac        ....   1.050
   Max. coefficient     DIISMaxC        ....  10.000
 Trust-Rad. Augm. Hess. CNVTRAH         .... auto
   Auto Start mean grad. ratio tolernc. ....  1.125000
   Auto Start start iteration           ....    20
   Auto Start num. interpolation iter.  ....    10
   Max. Number of Micro iterations      ....    16
   Max. Number of Macro iterations      .... Maxiter - #DIIS iter
   Number of Davidson start vectors     ....     2
   Converg. threshold I  (grad. norm)   ....   1.000e-05
   Converg. threshold II (energy diff.) ....   1.000e-08
   Grad. Scal. Fac. for Micro threshold ....   0.100
   Minimum threshold for Micro iter.    ....   0.010
   NR start threshold (gradient norm)   ....   0.001
   Initial trust radius                 ....   0.400
   Minimum AH scaling param. (alpha)    ....   1.000
   Maximum AH scaling param. (alpha)    .... 1000.000
   Orbital update algorithm             .... Taylor
   White noise on init. David. guess    .... on
   Maximum white noise                  ....   0.010
   Quad. conv. algorithm                .... NR
 SOSCF                  CNVSOSCF        .... on
   Start iteration      SOSCFMaxIt      ....   150
   Startup grad/error   SOSCFStart      ....  0.003300
 Level Shifting         CNVShift        .... on
   Level shift para.    LevelShift      ....    0.2500
   Turn off err/grad.   ShiftErr        ....    0.0010
 Zerner damping         CNVZerner       .... off
 Static damping         CNVDamp         .... on
   Fraction old density DampFac         ....    0.7000
   Max. Damping (<1)    DampMax         ....    0.9800
   Min. Damping (>=0)   DampMin         ....    0.0000
   Turn off err/grad.   DampErr         ....    0.1000
 Fernandez-Rico         CNVRico         .... off

SCF Procedure:
 Maximum # iterations   MaxIter         ....   125
 SCF integral mode      SCFMode         .... Direct
   Integral package                     .... SHARK and LIBINT hybrid scheme
 Reset frequency        DirectResetFreq ....    20
 Integral Threshold     Thresh          ....  2.500e-11 Eh
 Primitive CutOff       TCut            ....  2.500e-12 Eh

Convergence Tolerance:
 Convergence Check Mode ConvCheckMode   .... Total+1el-Energy
 Convergence forced     ConvForced      .... 0
 Energy Change          TolE            ....  1.000e-08 Eh
 1-El. energy change                    ....  1.000e-05 Eh
 Orbital Gradient       TolG            ....  1.000e-05
 Orbital Rotation angle TolX            ....  1.000e-05
 DIIS Error             TolErr          ....  5.000e-07


Diagonalization of the overlap matrix:
Smallest eigenvalue                        ... 3.178e-03
Time for diagonalization                   ...    0.010 sec
Threshold for overlap eigenvalues          ... 1.000e-08
Number of eigenvalues below threshold      ... 0
Time for construction of square roots      ...    0.004 sec
Total time needed                          ...    0.015 sec

Time for model grid setup =    0.183 sec

------------------------------
INITIAL GUESS: MODEL POTENTIAL
------------------------------
Loading Hartree-Fock densities                     ... done
Calculating cut-offs                               ... done
Initializing the effective Hamiltonian             ... done
Setting up the integral package (SHARK)            ... done
Starting the Coulomb interaction                   ... done (   0.1 sec)
Reading the grid                                   ... done
Mapping shells                                     ... done
Starting the XC term evaluation                    ... done (   0.1 sec)
  promolecular density results
     # of electrons  =     93.995471320
     EX              =    -77.914880185
     EC              =     -3.203248603
     EX+EC           =    -81.118128788
Transforming the Hamiltonian                       ... done (   0.0 sec)
Diagonalizing the Hamiltonian                      ... done (   0.0 sec)
Back transforming the eigenvectors                 ... done (   0.0 sec)
Now organizing SCF variables                       ... done
                      ------------------
                      INITIAL GUESS DONE (   0.4 sec)
                      ------------------
-------------------
DFT GRID GENERATION
-------------------

General Integration Accuracy     IntAcc      ... 4.388
Radial Grid Type                 RadialGrid  ... OptM3 with GC (2021)
Angular Grid (max. ang.)         AngularGrid ... 4 (Lebedev-302)
Angular grid pruning method      GridPruning ... 4 (adaptive)
Weight generation scheme         WeightScheme... Becke
Basis function cutoff            BFCut       ... 1.0000e-11
Integration weight cutoff        WCut        ... 1.0000e-14
Angular grids for H and He will be reduced by one unit
Partially contracted basis set               ... off
Rotationally invariant grid construction     ... off

Total number of grid points                  ...   116817
Total number of batches                      ...     1839
Average number of points per batch           ...       63
Average number of grid points per atom       ...     4493
Time for grid setup =    0.834 sec

--------------------
COSX GRID GENERATION
--------------------

GRIDX 1
-------
General Integration Accuracy     IntAcc      ... 3.816
Radial Grid Type                 RadialGrid  ... OptM3 with GC (2021)
Angular Grid (max. ang.)         AngularGrid ... 1 (Lebedev-50)
Angular grid pruning method      GridPruning ... 4 (adaptive)
Weight generation scheme         WeightScheme... Becke
Basis function cutoff            BFCut       ... 1.0000e-11
Integration weight cutoff        WCut        ... 1.0000e-14
Angular grids for H and He will be reduced by one unit
Partially contracted basis set               ... on
Rotationally invariant grid construction     ... off

Total number of grid points                  ...    14920
Total number of batches                      ...      250
Average number of points per batch           ...       59
Average number of grid points per atom       ...      574
UseSFitting                                  ... on

GRIDX 2
-------
General Integration Accuracy     IntAcc      ... 4.020
Radial Grid Type                 RadialGrid  ... OptM3 with GC (2021)
Angular Grid (max. ang.)         AngularGrid ... 2 (Lebedev-110)
Angular grid pruning method      GridPruning ... 4 (adaptive)
Weight generation scheme         WeightScheme... Becke
Basis function cutoff            BFCut       ... 1.0000e-11
Integration weight cutoff        WCut        ... 1.0000e-14
Angular grids for H and He will be reduced by one unit
Partially contracted basis set               ... on
Rotationally invariant grid construction     ... off

Total number of grid points                  ...    31777
Total number of batches                      ...      507
Average number of points per batch           ...       62
Average number of grid points per atom       ...     1222
UseSFitting                                  ... on

GRIDX 3
-------
General Integration Accuracy     IntAcc      ... 4.338
Radial Grid Type                 RadialGrid  ... OptM3 with GC (2021)
Angular Grid (max. ang.)         AngularGrid ... 3 (Lebedev-194)
Angular grid pruning method      GridPruning ... 4 (adaptive)
Weight generation scheme         WeightScheme... Becke
Basis function cutoff            BFCut       ... 1.0000e-11
Integration weight cutoff        WCut        ... 1.0000e-14
Angular grids for H and He will be reduced by one unit
Partially contracted basis set               ... on
Rotationally invariant grid construction     ... off

Total number of grid points                  ...    69430
Total number of batches                      ...     1100
Average number of points per batch           ...       63
Average number of grid points per atom       ...     2670
UseSFitting                                  ... on

Time for X-Grid setup             =    3.920 sec


--------------------
CPCM SOLVATION MODEL
--------------------
CPCM parameters:
  Epsilon                                         ...      80.4000
  Refrac                                          ...       1.3300
  Rsolv                                           ...       1.3000
  Surface type                                    ... GAUSSIAN VDW
  Epsilon function type                           ...         CPCM
Radii:
 Radius for C  used is    3.8550 Bohr (=   2.0400 Ang.)
 Radius for H  used is    2.4944 Bohr (=   1.3200 Ang.)
 Radius for O  used is    3.4469 Bohr (=   1.8240 Ang.)
 Radius for N  used is    3.5149 Bohr (=   1.8600 Ang.)
Calculating surface                               ...        done! (  0.0s)
GEPOL surface points                              ...         1381
GEPOL Volume                                      ...    1444.5894
GEPOL Surface-area                                ...     787.0675
Calculating surface distance matrix               ...        done! (  0.0s)
Performing Cholesky decomposition & store         ...        done! (  0.1s)
Overall time for CPCM initialization              ...                 0.1s
--------------
SCF ITERATIONS
--------------
ITER       Energy         Delta-E        Max-DP      RMS-DP      [F,P]     Damp
               ***  Starting incremental Fock matrix formation  ***
  0   -609.6405984883   0.000000000000 0.09370888  0.00244340  0.2756343 0.7000
  1   -609.8185677085  -0.177969220147 0.05227096  0.00156198  0.1109558 0.7000
                               ***Turning on DIIS***
  2   -609.8844066062  -0.065838897658 0.06207540  0.00230599  0.0366525 0.0000
  3   -609.9948387845  -0.110432178357 0.03527767  0.00106414  0.0548448 0.0000
  4   -610.0152924225  -0.020453637996 0.00903621  0.00033442  0.0135657 0.0000
  5   -610.0167361281  -0.001443705620 0.00295150  0.00009628  0.0040433 0.0000
                      *** Initiating the SOSCF procedure ***
                           *** Shutting down DIIS ***
                      *** Re-Reading the Fockian *** 
                      *** Removing any level shift *** 
ITER      Energy       Delta-E        Grad      Rot      Max-DP    RMS-DP
  6   -610.01680536  -0.0000692272  0.000212  0.000212  0.001259  0.000043
               *** Restarting incremental Fock matrix formation ***
  7   -610.01683178  -0.0000264238  0.000193  0.000771  0.001272  0.000025
  8   -610.01682874   0.0000030434  0.000375  0.000558  0.000837  0.000016
  9   -610.01683373  -0.0000049905  0.000051  0.000137  0.000252  0.000006
 10   -610.01683354   0.0000001911  0.000098  0.000091  0.000180  0.000004
 11   -610.01683380  -0.0000002676  0.000004  0.000006  0.000022  0.000001
 12   -610.01683381  -0.0000000050  0.000004  0.000004  0.000011  0.000000
                  ***Gradient check signals convergence***
              ***Rediagonalizing the Fockian in SOSCF/NRSCF***

               *****************************************************
               *                     SUCCESS                       *
               *           SCF CONVERGED AFTER  13 CYCLES          *
               *****************************************************

Old exchange energy                            =    -15.856398644 Eh
New exchange energy                            =    -15.856394378 Eh
Exchange energy change after final integration =      0.000004266 Eh
Total energy after final integration           =   -610.016829535 Eh
Final COS-X integration done in                =     5.669 sec

----------------
TOTAL SCF ENERGY
----------------

Total Energy       :         -610.01682954 Eh          -16599.40183 eV

Components:
Nuclear Repulsion  :          775.26184041 Eh           21095.94717 eV
Electronic Energy  :        -1385.27866994 Eh          -37695.34900 eV
One Electron Energy:        -2369.97645945 Eh          -64490.33809 eV
Two Electron Energy:          984.69778950 Eh           26794.98908 eV
Max COSX asymmetry :            0.00000259 Eh               0.00007 eV
CPCM Dielectric    :           -0.02127142 Eh              -0.57882 eV

Virial components:
Potential Energy   :        -1216.49092146 Eh          -33102.40087 eV
Kinetic Energy     :          606.47409192 Eh           16502.99904 eV
Virial Ratio       :            2.00584153


DFT components:
N(Alpha)           :       47.000030573900 electrons
N(Beta)            :       47.000030573900 electrons
N(Total)           :       94.000061147801 electrons
E(X)               :      -63.002330923373 Eh       
E(C)               :       -3.774350914111 Eh       
E(XC)              :      -66.776681837484 Eh       
DFET-embed. en.    :        0.000000000000 Eh       
CPCM Solvation Model Properties:
Surface-charge          :           -0.01652601
Charge-correction       :           -0.00007948 Eh              -0.00216 eV
Free-energy (cav+disp)  :  This term is not implemented in the current solvation scheme

---------------
SCF CONVERGENCE
---------------

  Last Energy change         ...    6.7234e-09  Tolerance :   1.0000e-08
  Last MAX-Density change    ...    4.8850e-15  Tolerance :   1.0000e-07
  Last RMS-Density change    ...    6.2719e-17  Tolerance :   5.0000e-09
  Last Orbital Gradient      ...    9.0745e-07  Tolerance :   1.0000e-05
  Last Orbital Rotation      ...    1.9908e-06  Tolerance :   1.0000e-05

             **** THE GBW FILE WAS UPDATED (Ns_water.gbw) ****
             **** DENSITY Ns_water.scfp WAS UPDATED ****
             **** ENERGY FILE WAS UPDATED (Ns_water.en.tmp) ****
             **** THE GBW FILE WAS UPDATED (Ns_water.gbw) ****
             **** DENSITY Ns_water.scfp WAS UPDATED ****
----------------
ORBITAL ENERGIES
----------------

  NO   OCC          E(Eh)            E(eV) 
   0   2.0000     -19.144083      -520.9370 
   1   2.0000     -19.122352      -520.3456 
   2   2.0000     -19.108786      -519.9765 
   3   2.0000     -14.358957      -390.7271 
   4   2.0000     -14.357978      -390.7005 
   5   2.0000     -10.289453      -279.9902 
   6   2.0000     -10.279842      -279.7287 
   7   2.0000     -10.255770      -279.0737 
   8   2.0000     -10.210787      -277.8496 
   9   2.0000     -10.198576      -277.5174 
  10   2.0000     -10.194217      -277.3987 
  11   2.0000     -10.171709      -276.7863 
  12   2.0000      -1.050277       -28.5795 
  13   2.0000      -1.028262       -27.9804 
  14   2.0000      -1.024633       -27.8817 
  15   2.0000      -0.930956       -25.3326 
  16   2.0000      -0.923567       -25.1315 
  17   2.0000      -0.759376       -20.6637 
  18   2.0000      -0.721366       -19.6294 
  19   2.0000      -0.709202       -19.2984 
  20   2.0000      -0.688975       -18.7480 
  21   2.0000      -0.664918       -18.0933 
  22   2.0000      -0.567339       -15.4381 
  23   2.0000      -0.539651       -14.6847 
  24   2.0000      -0.517446       -14.0804 
  25   2.0000      -0.497338       -13.5333 
  26   2.0000      -0.485219       -13.2035 
  27   2.0000      -0.481993       -13.1157 
  28   2.0000      -0.464495       -12.6396 
  29   2.0000      -0.457945       -12.4613 
  30   2.0000      -0.442440       -12.0394 
  31   2.0000      -0.429059       -11.6753 
  32   2.0000      -0.413852       -11.2615 
  33   2.0000      -0.405167       -11.0251 
  34   2.0000      -0.396540       -10.7904 
  35   2.0000      -0.395148       -10.7525 
  36   2.0000      -0.392101       -10.6696 
  37   2.0000      -0.386530       -10.5180 
  38   2.0000      -0.373780       -10.1711 
  39   2.0000      -0.362951        -9.8764 
  40   2.0000      -0.356380        -9.6976 
  41   2.0000      -0.343321        -9.3422 
  42   2.0000      -0.295749        -8.0477 
  43   2.0000      -0.263746        -7.1769 
  44   2.0000      -0.260586        -7.0909 
  45   2.0000      -0.241941        -6.5835 
  46   2.0000      -0.236430        -6.4336 
  47   0.0000       0.013784         0.3751 
  48   0.0000       0.022849         0.6218 
  49   0.0000       0.078982         2.1492 
  50   0.0000       0.106357         2.8941 
  51   0.0000       0.119366         3.2481 
  52   0.0000       0.146422         3.9843 
  53   0.0000       0.148890         4.0515 
  54   0.0000       0.161441         4.3930 
  55   0.0000       0.165725         4.5096 
  56   0.0000       0.167405         4.5553 
  57   0.0000       0.170355         4.6356 
  58   0.0000       0.175996         4.7891 
  59   0.0000       0.179421         4.8823 
  60   0.0000       0.195639         5.3236 
  61   0.0000       0.197216         5.3665 
  62   0.0000       0.200364         5.4522 
  63   0.0000       0.205624         5.5953 
  64   0.0000       0.221658         6.0316 
  65   0.0000       0.224308         6.1037 
  66   0.0000       0.234777         6.3886 
  67   0.0000       0.244787         6.6610 
  68   0.0000       0.265500         7.2246 
  69   0.0000       0.270692         7.3659 
  70   0.0000       0.336622         9.1599 
  71   0.0000       0.354555         9.6479 
  72   0.0000       0.365771         9.9531 
  73   0.0000       0.419670        11.4198 
  74   0.0000       0.471354        12.8262 
  75   0.0000       0.503600        13.7037 
  76   0.0000       0.516651        14.0588 
  77   0.0000       0.523372        14.2417 
  78   0.0000       0.533505        14.5174 
  79   0.0000       0.538608        14.6563 
  80   0.0000       0.547336        14.8938 
  81   0.0000       0.561219        15.2715 
  82   0.0000       0.576470        15.6866 
  83   0.0000       0.610462        16.6115 
  84   0.0000       0.617979        16.8161 
  85   0.0000       0.650730        17.7073 
  86   0.0000       0.659543        17.9471 
  87   0.0000       0.669397        18.2152 
  88   0.0000       0.676107        18.3978 
  89   0.0000       0.702704        19.1216 
  90   0.0000       0.725925        19.7534 
  91   0.0000       0.751842        20.4586 
  92   0.0000       0.765022        20.8173 
  93   0.0000       0.769072        20.9275 
  94   0.0000       0.798681        21.7332 
  95   0.0000       0.800688        21.7878 
  96   0.0000       0.824820        22.4445 
  97   0.0000       0.830467        22.5982 
  98   0.0000       0.838548        22.8180 
  99   0.0000       0.846472        23.0337 
 100   0.0000       0.847421        23.0595 
 101   0.0000       0.854818        23.2608 
 102   0.0000       0.875100        23.8127 
 103   0.0000       0.886242        24.1159 
 104   0.0000       0.896592        24.3975 
 105   0.0000       0.904914        24.6240 
 106   0.0000       0.907016        24.6812 
 107   0.0000       0.918996        25.0071 
 108   0.0000       0.929942        25.3050 
 109   0.0000       0.933835        25.4109 
 110   0.0000       0.959985        26.1225 
 111   0.0000       0.972828        26.4720 
 112   0.0000       0.988515        26.8989 
 113   0.0000       1.005706        27.3666 
 114   0.0000       1.008398        27.4399 
 115   0.0000       1.027559        27.9613 
 116   0.0000       1.041092        28.3296 
 117   0.0000       1.049586        28.5607 
 118   0.0000       1.084064        29.4989 
 119   0.0000       1.100062        29.9342 
 120   0.0000       1.112636        30.2764 
 121   0.0000       1.131916        30.8010 
 122   0.0000       1.161364        31.6023 
 123   0.0000       1.222824        33.2747 
 124   0.0000       1.238579        33.7034 
 125   0.0000       1.262747        34.3611 
 126   0.0000       1.308920        35.6175 
 127   0.0000       1.336324        36.3632 
 128   0.0000       1.353887        36.8411 
 129   0.0000       1.366428        37.1824 
 130   0.0000       1.401183        38.1281 
 131   0.0000       1.432331        38.9757 
 132   0.0000       1.433767        39.0148 
 133   0.0000       1.450677        39.4749 
 134   0.0000       1.485257        40.4159 
 135   0.0000       1.499636        40.8072 
 136   0.0000       1.551535        42.2194 
 137   0.0000       1.593849        43.3708 
 138   0.0000       1.633429        44.4479 
 139   0.0000       1.691153        46.0186 
 140   0.0000       1.712494        46.5993 
 141   0.0000       1.743308        47.4378 
 142   0.0000       1.762241        47.9530 
 143   0.0000       1.766902        48.0798 
 144   0.0000       1.788701        48.6730 
 145   0.0000       1.796446        48.8838 
 146   0.0000       1.815073        49.3906 
 147   0.0000       1.833528        49.8928 
 148   0.0000       1.839324        50.0505 
 149   0.0000       1.885030        51.2943 
 150   0.0000       1.896620        51.6096 
 151   0.0000       1.904345        51.8199 
 152   0.0000       1.923328        52.3364 
 153   0.0000       1.943255        52.8786 
 154   0.0000       1.957564        53.2680 
 155   0.0000       1.966318        53.5062 
 156   0.0000       1.983095        53.9628 
 157   0.0000       2.003338        54.5136 
 158   0.0000       2.022061        55.0231 
 159   0.0000       2.068102        56.2759 
 160   0.0000       2.074677        56.4548 
 161   0.0000       2.085771        56.7567 
 162   0.0000       2.092167        56.9308 
 163   0.0000       2.107661        57.3524 
 164   0.0000       2.134579        58.0849 
 165   0.0000       2.155896        58.6649 
 166   0.0000       2.188222        59.5446 
 167   0.0000       2.219042        60.3832 
 168   0.0000       2.254672        61.3528 
 169   0.0000       2.256613        61.4056 
 170   0.0000       2.283563        62.1389 
 171   0.0000       2.300863        62.6097 
 172   0.0000       2.331377        63.4400 
 173   0.0000       2.335714        63.5580 
 174   0.0000       2.372336        64.5545 
 175   0.0000       2.403948        65.4148 
 176   0.0000       2.416320        65.7514 
 177   0.0000       2.452092        66.7248 
 178   0.0000       2.490710        67.7757 
 179   0.0000       2.505109        68.1675 
 180   0.0000       2.528104        68.7932 
 181   0.0000       2.552047        69.4447 
 182   0.0000       2.608149        70.9713 
 183   0.0000       2.620377        71.3041 
 184   0.0000       2.648173        72.0605 
 185   0.0000       2.659705        72.3743 
 186   0.0000       2.696820        73.3842 
 187   0.0000       2.720187        74.0201 
 188   0.0000       2.734665        74.4140 
 189   0.0000       2.864707        77.9526 
 190   0.0000       2.931097        79.7592 
 191   0.0000       2.954719        80.4020 
 192   0.0000       2.999911        81.6317 
 193   0.0000       3.007683        81.8432 
 194   0.0000       3.156983        85.9059 
 195   0.0000       3.175823        86.4185 

                    ********************************
                    * MULLIKEN POPULATION ANALYSIS *
                    ********************************

-----------------------
MULLIKEN ATOMIC CHARGES
-----------------------
   0 C :    0.540409
   1 H :    0.195818
   2 H :    0.200614
   3 H :    0.179252
   4 O :   -0.497461
   5 C :   -0.566237
   6 N :   -0.394465
   7 C :   -0.262457
   8 H :    0.207413
   9 H :    0.181822
  10 C :    0.055748
  11 H :    0.186169
  12 H :    0.175749
  13 O :   -0.655766
  14 H :    0.437393
  15 C :    0.530715
  16 O :   -0.545416
  17 N :   -0.361685
  18 C :   -0.330444
  19 H :    0.172541
  20 H :    0.184390
  21 H :    0.170562
  22 C :   -0.344521
  23 H :    0.171885
  24 H :    0.194079
  25 H :    0.173893
Sum of atomic charges:   -0.0000000

--------------------------------
MULLIKEN REDUCED ORBITAL CHARGES
--------------------------------
  0 C s       :     2.983551  s :     2.983551
      pz      :     0.793710  p :     2.365846
      px      :     0.812491
      py      :     0.759645
      dz2     :     0.013857  d :     0.110193
      dxz     :     0.012823
      dyz     :     0.022576
      dx2y2   :     0.034392
      dxy     :     0.026545
  1 H s       :     0.804182  s :     0.804182
  2 H s       :     0.799386  s :     0.799386
  3 H s       :     0.820748  s :     0.820748
  4 O s       :     3.850760  s :     3.850760
      pz      :     1.480125  p :     4.620140
      px      :     1.598809
      py      :     1.541205
      dz2     :     0.004817  d :     0.026561
      dxz     :     0.002807
      dyz     :     0.006830
      dx2y2   :     0.005602
      dxy     :     0.006506
  5 C s       :     3.326893  s :     3.326893
      pz      :     1.075014  p :     3.207782
      px      :     1.018531
      py      :     1.114236
      dz2     :     0.009138  d :     0.031562
      dxz     :     0.005809
      dyz     :     0.002458
      dx2y2   :     0.006882
      dxy     :     0.007275
  6 N s       :     3.542598  s :     3.542598
      pz      :     1.452671  p :     3.816457
      px      :     1.265512
      py      :     1.098274
      dz2     :     0.005035  d :     0.035410
      dxz     :     0.005866
      dyz     :     0.005996
      dx2y2   :     0.008564
      dxy     :     0.009949
  7 C s       :     3.257551  s :     3.257551
      pz      :     0.959303  p :     2.953265
      px      :     0.883415
      py      :     1.110547
      dz2     :     0.008040  d :     0.051641
      dxz     :     0.013374
      dyz     :     0.011639
      dx2y2   :     0.010310
      dxy     :     0.008278
  8 H s       :     0.792587  s :     0.792587
  9 H s       :     0.818178  s :     0.818178
 10 C s       :     3.143290  s :     3.143290
      pz      :     0.928531  p :     2.720131
      px      :     0.873813
      py      :     0.917786
      dz2     :     0.015677  d :     0.080831
      dxz     :     0.018885
      dyz     :     0.010905
      dx2y2   :     0.010235
      dxy     :     0.025129
 11 H s       :     0.813831  s :     0.813831
 12 H s       :     0.824251  s :     0.824251
 13 O s       :     3.875762  s :     3.875762
      pz      :     1.400282  p :     4.754555
      px      :     1.559699
      py      :     1.794574
      dz2     :     0.003407  d :     0.025449
      dxz     :     0.009276
      dyz     :     0.003761
      dx2y2   :     0.004607
      dxy     :     0.004398
 14 H s       :     0.562607  s :     0.562607
 15 C s       :     2.974416  s :     2.974416
      pz      :     0.806955  p :     2.387456
      px      :     0.824191
      py      :     0.756310
      dz2     :     0.013903  d :     0.107414
      dxz     :     0.007949
      dyz     :     0.029840
      dx2y2   :     0.020420
      dxy     :     0.035302
 16 O s       :     3.860374  s :     3.860374
      pz      :     1.629614  p :     4.660234
      px      :     1.673902
      py      :     1.356718
      dz2     :     0.002572  d :     0.024809
      dxz     :     0.000417
      dyz     :     0.007550
      dx2y2   :     0.007424
      dxy     :     0.006845
 17 N s       :     3.533677  s :     3.533677
      pz      :     1.360434  p :     3.790230
      px      :     1.305120
      py      :     1.124676
      dz2     :     0.006667  d :     0.037778
      dxz     :     0.005488
      dyz     :     0.007933
      dx2y2   :     0.008055
      dxy     :     0.009635
 18 C s       :     3.259288  s :     3.259288
      pz      :     1.014950  p :     3.023248
      px      :     0.949516
      py      :     1.058782
      dz2     :     0.013745  d :     0.047908
      dxz     :     0.007705
      dyz     :     0.006949
      dx2y2   :     0.009447
      dxy     :     0.010062
 19 H s       :     0.827459  s :     0.827459
 20 H s       :     0.815610  s :     0.815610
 21 H s       :     0.829438  s :     0.829438
 22 C s       :     3.268102  s :     3.268102
      pz      :     1.094630  p :     3.028153
      px      :     1.115887
      py      :     0.817635
      dz2     :     0.011151  d :     0.048266
      dxz     :     0.006800
      dyz     :     0.008242
      dx2y2   :     0.010511
      dxy     :     0.011563
 23 H s       :     0.828115  s :     0.828115
 24 H s       :     0.805921  s :     0.805921
 25 H s       :     0.826107  s :     0.826107


                     *******************************
                     * LOEWDIN POPULATION ANALYSIS *
                     *******************************

----------------------
LOEWDIN ATOMIC CHARGES
----------------------
   0 C :    0.122734
   1 H :    0.155716
   2 H :    0.159678
   3 H :    0.149160
   4 O :   -0.292156
   5 C :   -0.398299
   6 N :   -0.098248
   7 C :   -0.182774
   8 H :    0.159879
   9 H :    0.143099
  10 C :   -0.060153
  11 H :    0.141901
  12 H :    0.134568
  13 O :   -0.428025
  14 H :    0.335133
  15 C :    0.098652
  16 O :   -0.343413
  17 N :   -0.068238
  18 C :   -0.280371
  19 H :    0.136474
  20 H :    0.147237
  21 H :    0.132676
  22 C :   -0.283966
  23 H :    0.133497
  24 H :    0.148433
  25 H :    0.136806

-------------------------------
LOEWDIN REDUCED ORBITAL CHARGES
-------------------------------
  0 C s       :     2.851319  s :     2.851319
      pz      :     0.856873  p :     2.764993
      px      :     0.950948
      py      :     0.957171
      dz2     :     0.030460  d :     0.260955
      dxz     :     0.030069
      dyz     :     0.050861
      dx2y2   :     0.087443
      dxy     :     0.062121
  1 H s       :     0.844284  s :     0.844284
  2 H s       :     0.840322  s :     0.840322
  3 H s       :     0.850840  s :     0.850840
  4 O s       :     3.547118  s :     3.547118
      pz      :     1.488466  p :     4.690118
      px      :     1.620551
      py      :     1.581101
      dz2     :     0.007468  d :     0.054920
      dxz     :     0.006740
      dyz     :     0.014233
      dx2y2   :     0.011913
      dxy     :     0.014566
  5 C s       :     2.985609  s :     2.985609
      pz      :     1.122414  p :     3.350965
      px      :     1.080092
      py      :     1.148459
      dz2     :     0.017191  d :     0.061725
      dxz     :     0.012672
      dyz     :     0.004068
      dx2y2   :     0.013990
      dxy     :     0.013804
  6 N s       :     3.113011  s :     3.113011
      pz      :     1.445406  p :     3.891989
      px      :     1.278605
      py      :     1.167978
      dz2     :     0.012424  d :     0.093248
      dxz     :     0.013127
      dyz     :     0.015092
      dx2y2   :     0.024140
      dxy     :     0.028465
  7 C s       :     2.931568  s :     2.931568
      pz      :     1.036103  p :     3.142102
      px      :     0.976190
      py      :     1.129810
      dz2     :     0.016583  d :     0.109104
      dxz     :     0.029913
      dyz     :     0.023559
      dx2y2   :     0.021256
      dxy     :     0.017793
  8 H s       :     0.840121  s :     0.840121
  9 H s       :     0.856901  s :     0.856901
 10 C s       :     2.911848  s :     2.911848
      pz      :     1.002451  p :     2.972977
      px      :     0.970293
      py      :     1.000233
      dz2     :     0.032364  d :     0.175329
      dxz     :     0.041942
      dyz     :     0.022602
      dx2y2   :     0.022386
      dxy     :     0.056035
 11 H s       :     0.858099  s :     0.858099
 12 H s       :     0.865432  s :     0.865432
 13 O s       :     3.568185  s :     3.568185
      pz      :     1.424104  p :     4.812492
      px      :     1.599916
      py      :     1.788472
      dz2     :     0.007998  d :     0.047348
      dxz     :     0.017266
      dyz     :     0.007285
      dx2y2   :     0.007473
      dxy     :     0.007326
 14 H s       :     0.664867  s :     0.664867
 15 C s       :     2.851895  s :     2.851895
      pz      :     0.884593  p :     2.794718
      px      :     0.918063
      py      :     0.992063
      dz2     :     0.031720  d :     0.254735
      dxz     :     0.017808
      dyz     :     0.071497
      dx2y2   :     0.050079
      dxy     :     0.083631
 16 O s       :     3.566508  s :     3.566508
      pz      :     1.617721  p :     4.725581
      px      :     1.660543
      py      :     1.447317
      dz2     :     0.006520  d :     0.051324
      dxz     :     0.000614
      dyz     :     0.012856
      dx2y2   :     0.018826
      dxy     :     0.012509
 17 N s       :     3.090445  s :     3.090445
      pz      :     1.374750  p :     3.880016
      px      :     1.322328
      py      :     1.182938
      dz2     :     0.014692  d :     0.097777
      dxz     :     0.014988
      dyz     :     0.021321
      dx2y2   :     0.021765
      dxy     :     0.025011
 18 C s       :     2.962857  s :     2.962857
      pz      :     1.081219  p :     3.222440
      px      :     1.030609
      py      :     1.110613
      dz2     :     0.027243  d :     0.095074
      dxz     :     0.015221
      dyz     :     0.013670
      dx2y2   :     0.018980
      dxy     :     0.019959
 19 H s       :     0.863526  s :     0.863526
 20 H s       :     0.852763  s :     0.852763
 21 H s       :     0.867324  s :     0.867324
 22 C s       :     2.962408  s :     2.962408
      pz      :     1.138070  p :     3.225435
      px      :     1.152892
      py      :     0.934474
      dz2     :     0.021496  d :     0.096122
      dxz     :     0.012063
      dyz     :     0.017173
      dx2y2   :     0.021634
      dxy     :     0.023757
 23 H s       :     0.866503  s :     0.866503
 24 H s       :     0.851567  s :     0.851567
 25 H s       :     0.863194  s :     0.863194


                      *****************************
                      * MAYER POPULATION ANALYSIS *
                      *****************************

  NA   - Mulliken gross atomic population
  ZA   - Total nuclear charge
  QA   - Mulliken gross atomic charge
  VA   - Mayer's total valence
  BVA  - Mayer's bonded valence
  FA   - Mayer's free valence

  ATOM       NA         ZA         QA         VA         BVA        FA
  0 C      5.4596     6.0000     0.5404     3.9481     3.9481    -0.0000
  1 H      0.8042     1.0000     0.1958     0.9332     0.9332    -0.0000
  2 H      0.7994     1.0000     0.2006     0.9219     0.9219    -0.0000
  3 H      0.8207     1.0000     0.1793     0.9386     0.9386     0.0000
  4 O      8.4975     8.0000    -0.4975     2.0515     2.0515     0.0000
  5 C      6.5662     6.0000    -0.5662     3.7918     3.7918    -0.0000
  6 N      7.3945     7.0000    -0.3945     3.0551     3.0551    -0.0000
  7 C      6.2625     6.0000    -0.2625     3.7614     3.7614     0.0000
  8 H      0.7926     1.0000     0.2074     0.9357     0.9357     0.0000
  9 H      0.8182     1.0000     0.1818     0.9347     0.9347    -0.0000
 10 C      5.9443     6.0000     0.0557     3.8133     3.8133    -0.0000
 11 H      0.8138     1.0000     0.1862     0.9271     0.9271     0.0000
 12 H      0.8243     1.0000     0.1757     0.9420     0.9420     0.0000
 13 O      8.6558     8.0000    -0.6558     1.7798     1.7798     0.0000
 14 H      0.5626     1.0000     0.4374     0.7776     0.7776    -0.0000
 15 C      5.4693     6.0000     0.5307     3.9331     3.9331    -0.0000
 16 O      8.5454     8.0000    -0.5454     1.9856     1.9856    -0.0000
 17 N      7.3617     7.0000    -0.3617     3.1768     3.1768    -0.0000
 18 C      6.3304     6.0000    -0.3304     3.7789     3.7789    -0.0000
 19 H      0.8275     1.0000     0.1725     0.9286     0.9286    -0.0000
 20 H      0.8156     1.0000     0.1844     0.9513     0.9513     0.0000
 21 H      0.8294     1.0000     0.1706     0.9263     0.9263    -0.0000
 22 C      6.3445     6.0000    -0.3445     3.7645     3.7645    -0.0000
 23 H      0.8281     1.0000     0.1719     0.9244     0.9244    -0.0000
 24 H      0.8059     1.0000     0.1941     0.9491     0.9491    -0.0000
 25 H      0.8261     1.0000     0.1739     0.9259     0.9259    -0.0000

  Mayer bond orders larger than 0.100000
B(  0-C ,  4-O ) :   1.8001 B(  0-C ,  5-C ) :   0.9907 B(  0-C ,  6-N ) :   1.1013 
B(  1-H ,  5-C ) :   0.9155 B(  2-H ,  5-C ) :   0.9218 B(  3-H ,  5-C ) :   0.9387 
B(  6-N ,  7-C ) :   0.9389 B(  6-N , 10-C ) :   0.9542 B(  7-C ,  8-H ) :   0.8946 
B(  7-C ,  9-H ) :   0.9174 B(  7-C , 15-C ) :   0.9373 B( 10-C , 11-H ) :   0.9227 
B( 10-C , 12-H ) :   0.9116 B( 10-C , 13-O ) :   0.9796 B( 13-O , 14-H ) :   0.7607 
B( 15-C , 16-O ) :   1.7307 B( 15-C , 17-N ) :   1.2104 B( 16-O , 17-N ) :   0.1017 
B( 17-N , 18-C ) :   0.9497 B( 17-N , 22-C ) :   0.9520 B( 18-C , 19-H ) :   0.9375 
B( 18-C , 20-H ) :   0.9250 B( 18-C , 21-H ) :   0.9355 B( 22-C , 23-H ) :   0.9315 
B( 22-C , 24-H ) :   0.9042 B( 22-C , 25-H ) :   0.9344 

-------
TIMINGS
-------

Total SCF time: 0 days 0 hours 1 min 10 sec 

Total time                  ....      70.966 sec
Sum of individual times     ....      67.700 sec  ( 95.4%)

Fock matrix formation       ....      62.267 sec  ( 87.7%)
  Split-RI-J                ....       8.420 sec  ( 13.5% of F)
  Chain of spheres X        ....      30.995 sec  ( 49.8% of F)
  XC integration            ....      12.516 sec  ( 20.1% of F)
    Basis function eval.    ....       2.421 sec  ( 19.3% of XC)
    Density eval.           ....       1.987 sec  ( 15.9% of XC)
    XC-Functional eval.     ....       2.001 sec  ( 16.0% of XC)
    XC-Potential eval.      ....       1.212 sec  (  9.7% of XC)
Diagonalization             ....       0.069 sec  (  0.1%)
Density matrix formation    ....       0.008 sec  (  0.0%)
Population analysis         ....       0.054 sec  (  0.1%)
Initial guess               ....       0.249 sec  (  0.4%)
Orbital Transformation      ....       0.000 sec  (  0.0%)
Orbital Orthonormalization  ....       0.000 sec  (  0.0%)
DIIS solution               ....       0.045 sec  (  0.1%)
SOSCF solution              ....       0.071 sec  (  0.1%)
Grid generation             ....       4.938 sec  (  7.0%)

Maximum memory used throughout the entire SCF-calculation: 63.8 MB


-------------------------------------------------------------------------------
                          DFT DISPERSION CORRECTION                            
                                                                               
                                 DFTD4 V2.5                                    
-------------------------------------------------------------------------------
The B3LYP functional is recognized
Active option DFTDOPT                   ...         5   

Starting D4
-------------------------   ----------------
Dispersion correction           -0.040911592
-------------------------   ----------------


-------------------------   --------------------
FINAL SINGLE POINT ENERGY      -610.057741127617
-------------------------   --------------------



           ************************************************************
           *        Program running with 4 parallel MPI-processes     *
           *              working on a common directory               *
           ************************************************************
------------------------------------------------------------------------------
                         ORCA SCF GRADIENT CALCULATION
------------------------------------------------------------------------------

 ... reading COSX grid (gridx3)
Gradient of the Kohn-Sham DFT energy:
Kohn-Sham wavefunction type      ... RKS
Hartree-Fock exchange scaling    ...    0.200
Number of operators              ...    1
Number of atoms                  ...   26
Basis set dimensions             ...  196
Integral neglect threshold       ... 2.5e-11
Integral primitive cutoff        ... 2.5e-12
SHARK Integral package           ... ON

Nuc. rep. gradient       (SHARK) ... done (  0.0 sec)
[...]
     15      -0.000243  -0.001097  -0.001119   0.000023  -0.000064   0.000040
     16       0.002939  -0.034485   0.085865  -0.000078   0.000230   0.000024
     17      -0.000394   0.004285  -0.010436  -0.000078   0.000228   0.000014
     18       0.000299  -0.000274  -0.000309   0.000008  -0.000094  -0.000190
     19      -0.000084   0.000353  -0.000036   0.000125  -0.000410   0.000396
     20       0.000342   0.000081  -0.000088  -0.000080   0.000213   0.000126
     21       0.031786   0.001562  -0.000504  -0.001077   0.003591   0.000041
     22      -0.084047  -0.002656   0.001643   0.003076  -0.009655   0.000083
     23       0.010462   0.000426  -0.000512  -0.001026   0.002252   0.000206
     24      -0.259941  -0.008130   0.006190   0.011703  -0.034344   0.000076
     25       0.785596   0.024023  -0.018106  -0.035098   0.103236  -0.000116
     26      -0.388611  -0.011804   0.009129   0.015472  -0.045687  -0.000382
     27      -0.114188  -0.003817   0.001536   0.001918  -0.010586  -0.001276
     28       0.232116   0.007748  -0.002481  -0.003866   0.020765  -0.000593
     29       0.267042   0.009808  -0.002450  -0.004351   0.023674  -0.001412
     30       0.000318  -0.042835  -0.016875   0.000068  -0.000132  -0.002017
     31       0.000650  -0.036727  -0.014542  -0.000021   0.000023  -0.001102
     32       0.001559  -0.064900  -0.026169   0.000100  -0.000157  -0.002032
     33      -0.007605   0.306100   0.123148  -0.000399   0.000525   0.007439
     34      -0.005170   0.203142   0.080974  -0.000201   0.000295   0.005648
     35      -0.020611   0.788145   0.317212  -0.000895   0.001090   0.017445
     36      -0.001785   0.201749   0.077057   0.000018  -0.000039  -0.000441
     37      -0.001133   0.237059   0.090905   0.000093  -0.000056   0.004140
     38      -0.000509  -0.023659  -0.008414  -0.000013  -0.000062   0.002856
     39      -0.000052   0.001284   0.000547  -0.000016   0.000025  -0.018365
     40       0.000031   0.000426   0.000288   0.000005  -0.000008  -0.024658
     41      -0.000062   0.001299   0.000544   0.000001  -0.000003  -0.054227
     42      -0.000408  -0.013496  -0.005125   0.000061  -0.000113   0.313207
     43       0.000540  -0.005316  -0.002011   0.000003  -0.000012   0.390753
     44       0.000883  -0.015343  -0.005787   0.000053  -0.000051   0.863073
     45      -0.000302   0.000160   0.000056  -0.000321  -0.000366   0.000054
     46      -0.001411   0.000027   0.000037  -0.000971  -0.000769   0.000017
     47      -0.000755  -0.000089   0.000030  -0.000046  -0.000242  -0.000031
     48       0.000267  -0.000100  -0.000038   0.000629   0.000313  -0.000027
     49       0.000670  -0.000019  -0.000015   0.000325   0.000180  -0.000010
     50       0.000408  -0.000003  -0.000020  -0.000503  -0.000159   0.000004
     51      -0.000113  -0.000027   0.000006  -0.000010   0.000079  -0.000017
     52      -0.000201  -0.000022  -0.000002  -0.000476   0.000591   0.000003
     53       0.000036   0.000024   0.000001  -0.000196   0.000033   0.000017
     54      -0.000312   0.000037   0.000007   0.004049   0.001714   0.000013
     55       0.000011  -0.000028  -0.000014  -0.079238  -0.025737   0.000011
     56       0.000189  -0.000050  -0.000011  -0.032839  -0.010812   0.000002
     57       0.003018  -0.000586  -0.000113  -0.162792  -0.052332  -0.000075
     58      -0.001326   0.000247   0.000045   0.078486   0.026379   0.000019
     59       0.000302  -0.000044  -0.000007  -0.036084  -0.011905   0.000031
     60       0.000187   0.000049   0.000005   0.056785   0.019211   0.000006
     61       0.000342   0.000196   0.000130   0.868740   0.286743  -0.000038
     62      -0.000101   0.000026   0.000046   0.266932   0.087873  -0.000012
     63      -0.000213   0.000105   0.000020   0.047163   0.015576  -0.000007
     64       0.000027  -0.000007   0.000001  -0.000326   0.000680  -0.000011
     65      -0.001801   0.000655   0.000079   0.171473   0.055856   0.000090
     66       0.006866   0.000310   0.000044   0.017181  -0.050851   0.000004
     67       0.003875   0.000060   0.000009   0.009490  -0.027873  -0.000011
     68      -0.008839  -0.000276  -0.000066  -0.020261   0.062225   0.000004
     69       0.012381   0.000337   0.000179   0.025196  -0.077817   0.000040
     70       0.000555   0.000056   0.000014   0.001895  -0.003839   0.000020
     71       0.019823   0.000475   0.000316   0.038623  -0.123264   0.000041
     72      -0.071224  -0.002050  -0.000213  -0.170064   0.516216   0.000167
     73      -0.054303  -0.001747  -0.000340  -0.135095   0.411438   0.000021
     74       0.083538   0.002586   0.000472   0.204050  -0.619772  -0.000057
     75      -0.022010  -0.001918  -0.000437  -0.058077   0.172499  -0.000112
     76       0.012757   0.001033   0.000195   0.032843  -0.093001   0.000036
     77      -0.000592   0.000145   0.000075   0.001267  -0.004751   0.000053


-----------
IR SPECTRUM
-----------

 Mode   freq       eps      Int      T**2         TX        TY        TZ
       cm**-1   L/(mol*cm) km/mol    a.u.
----------------------------------------------------------------------------
  6:     33.55   0.001568    7.93  0.014586  ( 0.045686 -0.016113  0.110633)
  7:     68.97   0.000043    0.22  0.000196  (-0.003181  0.004301 -0.012951)
  8:     72.41   0.000584    2.95  0.002519  (-0.045550 -0.001477  0.021021)
  9:     83.74   0.001066    5.39  0.003974  ( 0.062602 -0.007386 -0.000388)
 10:    109.91   0.001703    8.61  0.004835  (-0.001657 -0.019226 -0.066802)
 11:    116.19   0.002264   11.44  0.006082  ( 0.066783 -0.006473 -0.039746)
 12:    145.28   0.001284    6.49  0.002758  ( 0.044516 -0.012044  0.025122)
 13:    161.23   0.000043    0.22  0.000082  (-0.000173 -0.006447 -0.006391)
 14:    190.93   0.000039    0.20  0.000063  (-0.001665  0.005079  0.005910)
 15:    217.31   0.000973    4.92  0.001397  (-0.008842  0.003483 -0.036152)
 16:    255.74   0.002877   14.54  0.003511  ( 0.058462  0.003408  0.009027)
 17:    278.31   0.003983   20.13  0.004466  ( 0.001656 -0.059948  0.029491)
 18:    320.55   0.026430  133.57  0.025731  ( 0.007448 -0.155305  0.039442)
 19:    345.42   0.007165   36.21  0.006473  ( 0.017488  0.061362 -0.049012)
 20:    392.26   0.006154   31.10  0.004896  (-0.026552  0.058094  0.028570)
 21:    424.07   0.001006    5.08  0.000740  ( 0.009120  0.025378 -0.003576)
 22:    445.30   0.003935   19.89  0.002758  ( 0.020657 -0.047416  0.009097)
 23:    464.97   0.003437   17.37  0.002307  ( 0.030076  0.031465 -0.020309)
 24:    526.37   0.005432   27.45  0.003220  ( 0.034620 -0.012246  0.043266)
 25:    575.13   0.002988   15.10  0.001621  (-0.025351 -0.026555  0.016531)
 26:    610.70   0.005475   27.67  0.002798  (-0.028209  0.007548  0.044105)
 27:    635.26   0.009503   48.02  0.004668  ( 0.002017 -0.066127  0.017066)
 28:    709.39   0.001762    8.90  0.000775  (-0.003385 -0.010524  0.025551)
 29:    761.92   0.004170   21.07  0.001708  ( 0.027695  0.015314 -0.026576)
 30:    806.08   0.006486   32.78  0.002511  (-0.035190  0.034097  0.010497)
 31:    951.47   0.003534   17.86  0.001159  ( 0.017675  0.023646 -0.016956)
 32:    994.54   0.024443  123.52  0.007670  (-0.074220  0.041503  0.020940)
 33:   1000.65   0.008301   41.95  0.002589  (-0.016099 -0.035063  0.033168)
 34:   1009.81   0.006550   33.10  0.002024  ( 0.019909  0.038609  0.011710)
 35:   1049.73   0.046564  235.32  0.013843  ( 0.081843 -0.058231 -0.061265)
 36:   1066.11   0.004355   22.01  0.001275  (-0.019125  0.011763  0.027762)
 37:   1088.86   0.002551   12.89  0.000731  ( 0.008700  0.025500 -0.002279)
 38:   1109.47   0.010198   51.54  0.002868  ( 0.026413 -0.041467 -0.021242)
 39:   1136.04   0.000451    2.28  0.000124  ( 0.003428  0.009060  0.005485)
 40:   1167.23   0.012276   62.04  0.003282  (-0.032357  0.042945  0.019765)
 41:   1182.68   0.000462    2.34  0.000122  ( 0.003325 -0.010350 -0.001950)
 42:   1219.55   0.008303   41.96  0.002125  ( 0.002005 -0.002472 -0.045983)
 43:   1262.66   0.035984  181.85  0.008893  ( 0.031758  0.085825  0.022777)
 44:   1285.32   0.012536   63.35  0.003044  ( 0.037985  0.021747 -0.033584)
 45:   1306.10   0.018810   95.06  0.004494  (-0.065348 -0.004029 -0.014405)
 46:   1373.49   0.002332   11.79  0.000530  ( 0.000609  0.023005 -0.000543)
 47:   1397.00   0.007813   39.48  0.001745  (-0.014873 -0.034067  0.019065)
 48:   1414.40   0.012419   62.76  0.002740  ( 0.050173  0.009785  0.011266)
 49:   1435.82   0.017726   89.58  0.003853  ( 0.008130  0.061479  0.002629)
 50:   1440.72   0.022631  114.37  0.004902  ( 0.026023 -0.055614 -0.033642)
 51:   1458.22   0.020150  101.83  0.004312  ( 0.050483 -0.012910 -0.039962)
 52:   1476.66   0.030152  152.38  0.006372  ( 0.050459  0.061839 -0.001375)
 53:   1489.54   0.004335   21.91  0.000908  ( 0.025711 -0.015445  0.002937)
 54:   1491.06   0.003182   16.08  0.000666  (-0.015705  0.009753 -0.018003)
 55:   1499.15   0.002366   11.96  0.000493  ( 0.006667  0.011640 -0.017681)
 56:   1506.87   0.002516   12.72  0.000521  ( 0.015237  0.016957  0.001195)
 57:   1509.28   0.004348   21.98  0.000899  (-0.015380 -0.011859 -0.022845)
 58:   1518.45   0.004046   20.45  0.000831  ( 0.026766 -0.010504  0.002172)
 59:   1529.48   0.005289   26.73  0.001079  (-0.013568  0.016634 -0.024867)
 60:   1538.99   0.004408   22.27  0.000894  ( 0.020106  0.022096  0.001132)
 61:   1556.32   0.015761   79.65  0.003160  (-0.038512  0.000763  0.040947)
 62:   1706.97   0.158783  802.42  0.029028  ( 0.022407 -0.157681 -0.060522)
 63:   1718.54   0.065110  329.04  0.011823  (-0.031671  0.085676 -0.058990)
 64:   3038.50   0.007676   38.79  0.000788  ( 0.008477  0.022871  0.013910)
 65:   3045.45   0.018170   91.82  0.001862  ( 0.023323 -0.010656 -0.034703)
 66:   3064.92   0.000408    2.06  0.000042  (-0.003702 -0.001454 -0.005070)
 67:   3086.99   0.007799   39.41  0.000788  ( 0.007330  0.006424 -0.026333)
 68:   3092.39   0.006286   31.76  0.000634  ( 0.007867  0.023587  0.004006)
 69:   3094.56   0.016940   85.61  0.001708  ( 0.033133 -0.012607  0.021249)
 70:   3098.55   0.001053    5.32  0.000106  (-0.008784  0.004564  0.002838)
 71:   3133.43   0.001061    5.36  0.000106  ( 0.007167  0.002980 -0.006740)
 72:   3164.13   0.001730    8.74  0.000171  ( 0.011995  0.002986 -0.004220)
 73:   3169.15   0.005145   26.00  0.000507  (-0.011637 -0.010928 -0.015867)
 74:   3174.73   0.001962    9.91  0.000193  (-0.001123  0.011726 -0.007353)
 75:   3193.90   0.000901    4.55  0.000088  (-0.005565 -0.007528 -0.000599)
 76:   3196.55   0.000530    2.68  0.000052  ( 0.005010 -0.003484  0.003806)
 77:   3722.10   0.012419   62.76  0.001041  ( 0.000627  0.016841  0.027518)

* The epsilon (eps) is given for a Dirac delta lineshape.
** The dipole moment derivative (T) already includes vibrational overlap.

The first frequency considered to be a vibration is 6
The total number of vibrations considered is 72


--------------------------
THERMOCHEMISTRY AT 298.15K
--------------------------

Temperature         ... 298.15 K
Pressure            ... 1.00 atm
Total Mass          ... 174.20 AMU

Throughout the following assumptions are being made:
  (1) The electronic state is orbitally nondegenerate
  (2) There are no thermally accessible electronically excited states
  (3) Hindered rotations indicated by low frequency modes are not
      treated as such but are treated as vibrations and this may
      cause some error
  (4) All equations used are the standard statistical mechanics
      equations for an ideal gas
  (5) All vibrations are strictly harmonic

freq.      33.55  E(vib)   ...       0.55 
freq.      68.97  E(vib)   ...       0.50 
freq.      72.41  E(vib)   ...       0.49 
freq.      83.74  E(vib)   ...       0.48 
freq.     109.91  E(vib)   ...       0.45 
freq.     116.19  E(vib)   ...       0.44 
freq.     145.28  E(vib)   ...       0.41 
freq.     161.23  E(vib)   ...       0.39 
freq.     190.93  E(vib)   ...       0.36 
freq.     217.31  E(vib)   ...       0.34 
freq.     255.74  E(vib)   ...       0.30 
freq.     278.31  E(vib)   ...       0.28 
freq.     320.55  E(vib)   ...       0.25 
freq.     345.42  E(vib)   ...       0.23 
freq.     392.26  E(vib)   ...       0.20 
freq.     424.07  E(vib)   ...       0.18 
freq.     445.30  E(vib)   ...       0.17 
freq.     464.97  E(vib)   ...       0.16 
freq.     526.37  E(vib)   ...       0.13 
freq.     575.13  E(vib)   ...       0.11 
freq.     610.70  E(vib)   ...       0.10 
freq.     635.26  E(vib)   ...       0.09 
freq.     709.39  E(vib)   ...       0.07 
freq.     761.92  E(vib)   ...       0.06 
freq.     806.08  E(vib)   ...       0.05 
freq.     951.47  E(vib)   ...       0.03 
freq.     994.54  E(vib)   ...       0.02 
freq.    1000.65  E(vib)   ...       0.02 
freq.    1009.81  E(vib)   ...       0.02 
freq.    1049.73  E(vib)   ...       0.02 
freq.    1066.11  E(vib)   ...       0.02 
freq.    1088.86  E(vib)   ...       0.02 
freq.    1109.47  E(vib)   ...       0.02 
freq.    1136.04  E(vib)   ...       0.01 
freq.    1167.23  E(vib)   ...       0.01 
freq.    1182.68  E(vib)   ...       0.01 
freq.    1219.55  E(vib)   ...       0.01 
freq.    1262.66  E(vib)   ...       0.01 
freq.    1285.32  E(vib)   ...       0.01 
freq.    1306.10  E(vib)   ...       0.01 
freq.    1373.49  E(vib)   ...       0.01 
freq.    1397.00  E(vib)   ...       0.00 
freq.    1414.40  E(vib)   ...       0.00 
freq.    1435.82  E(vib)   ...       0.00 
freq.    1440.72  E(vib)   ...       0.00 
freq.    1458.22  E(vib)   ...       0.00 
freq.    1476.66  E(vib)   ...       0.00 
freq.    1489.54  E(vib)   ...       0.00 
freq.    1491.06  E(vib)   ...       0.00 
freq.    1499.15  E(vib)   ...       0.00 
freq.    1506.87  E(vib)   ...       0.00 
freq.    1509.28  E(vib)   ...       0.00 
freq.    1518.45  E(vib)   ...       0.00 
freq.    1529.48  E(vib)   ...       0.00 
freq.    1538.99  E(vib)   ...       0.00 
freq.    1556.32  E(vib)   ...       0.00 
freq.    1706.97  E(vib)   ...       0.00 
freq.    1718.54  E(vib)   ...       0.00 
freq.    3038.50  E(vib)   ...       0.00 
freq.    3045.45  E(vib)   ...       0.00 
freq.    3064.92  E(vib)   ...       0.00 
freq.    3086.99  E(vib)   ...       0.00 
freq.    3092.39  E(vib)   ...       0.00 
freq.    3094.56  E(vib)   ...       0.00 
freq.    3098.55  E(vib)   ...       0.00 
freq.    3133.43  E(vib)   ...       0.00 
freq.    3164.13  E(vib)   ...       0.00 
freq.    3169.15  E(vib)   ...       0.00 
freq.    3174.73  E(vib)   ...       0.00 
freq.    3193.90  E(vib)   ...       0.00 
freq.    3196.55  E(vib)   ...       0.00 
freq.    3722.10  E(vib)   ...       0.00 

------------
INNER ENERGY
------------

The inner energy is: U= E(el) + E(ZPE) + E(vib) + E(rot) + E(trans)
    E(el)   - is the total energy from the electronic structure calculation
              = E(kin-el) + E(nuc-el) + E(el-el) + E(nuc-nuc)
    E(ZPE)  - the the zero temperature vibrational energy from the frequency calculation
    E(vib)  - the the finite temperature correction to E(ZPE) due to population
              of excited vibrational states
    E(rot)  - is the rotational thermal energy
    E(trans)- is the translational thermal energy

Summary of contributions to the inner energy U:
Electronic energy                ...   -610.05962049 Eh
Zero point energy                ...      0.22079436 Eh     138.55 kcal/mol
Thermal vibrational correction   ...      0.01125316 Eh       7.06 kcal/mol
Thermal rotational correction    ...      0.00141627 Eh       0.89 kcal/mol
Thermal translational correction ...      0.00141627 Eh       0.89 kcal/mol
-----------------------------------------------------------------------
Total thermal energy                   -609.82474043 Eh


Summary of corrections to the electronic energy:
(perhaps to be used in another calculation)
Total thermal correction                  0.01408570 Eh       8.84 kcal/mol
Non-thermal (ZPE) correction              0.22079436 Eh     138.55 kcal/mol
-----------------------------------------------------------------------
Total correction                          0.23488006 Eh     147.39 kcal/mol


--------
ENTHALPY
--------

The enthalpy is H = U + kB*T
                kB is Boltzmann's constant
Total free energy                 ...   -609.82474043 Eh 
Thermal Enthalpy correction       ...      0.00094421 Eh       0.59 kcal/mol
-----------------------------------------------------------------------
Total Enthalpy                    ...   -609.82379622 Eh


Note: Only C1 symmetry has been detected, increase convergence thresholds 
      if your molecule has a higher symmetry. Symmetry factor of 1.0 is   
      used for the rotational entropy correction. 
 

Note: Rotational entropy computed according to Herzberg 
Infrared and Raman Spectra, Chapter V,1, Van Nostrand Reinhold, 1945 
Point Group:  C1, Symmetry Number:   1  
Rotational constants in cm-1:     0.044050     0.021602     0.017060 

Vibrational entropy computed according to the QRRHO of S. Grimme
Chem.Eur.J. 2012 18 9955


-------
ENTROPY
-------

The entropy contributions are T*S = T*(S(el)+S(vib)+S(rot)+S(trans))
     S(el)   - electronic entropy
     S(vib)  - vibrational entropy
     S(rot)  - rotational entropy
     S(trans)- translational entropy
The entropies will be listed as multiplied by the temperature to get
units of energy

Electronic entropy                ...      0.00000000 Eh      0.00 kcal/mol
Vibrational entropy               ...      0.02018874 Eh     12.67 kcal/mol
Rotational entropy                ...      0.01471722 Eh      9.24 kcal/mol
Translational entropy             ...      0.01965732 Eh     12.34 kcal/mol
-----------------------------------------------------------------------
Final entropy term                ...      0.05456328 Eh     34.24 kcal/mol

In case the symmetry of your molecule has not been determined correctly
or in case you have a reason to use a different symmetry number we print 
out the resulting rotational entropy values for sn=1,12 :
 --------------------------------------------------------
|  sn= 1 | S(rot)=       0.01471722 Eh      9.24 kcal/mol|
|  sn= 2 | S(rot)=       0.01406276 Eh      8.82 kcal/mol|
|  sn= 3 | S(rot)=       0.01367993 Eh      8.58 kcal/mol|
|  sn= 4 | S(rot)=       0.01340831 Eh      8.41 kcal/mol|
|  sn= 5 | S(rot)=       0.01319762 Eh      8.28 kcal/mol|
|  sn= 6 | S(rot)=       0.01302548 Eh      8.17 kcal/mol|
|  sn= 7 | S(rot)=       0.01287993 Eh      8.08 kcal/mol|
|  sn= 8 | S(rot)=       0.01275385 Eh      8.00 kcal/mol|
|  sn= 9 | S(rot)=       0.01264264 Eh      7.93 kcal/mol|
|  sn=10 | S(rot)=       0.01254316 Eh      7.87 kcal/mol|
|  sn=11 | S(rot)=       0.01245317 Eh      7.81 kcal/mol|
|  sn=12 | S(rot)=       0.01237102 Eh      7.76 kcal/mol|
 --------------------------------------------------------


-------------------
GIBBS FREE ENERGY
-------------------

The Gibbs free energy is G = H - T*S

Total enthalpy                    ...   -609.82379622 Eh 
Total entropy correction          ...     -0.05456328 Eh    -34.24 kcal/mol
-----------------------------------------------------------------------
Final Gibbs free energy         ...   -609.87835950 Eh

For completeness - the Gibbs free energy minus the electronic energy
G-E(el)                           ...      0.18126099 Eh    113.74 kcal/mol


Timings for individual modules:

Sum of individual times         ...     1489.523 sec (=  24.825 min)
GTO integral calculation        ...       31.392 sec (=   0.523 min)   2.1 %
SCF iterations                  ...      876.109 sec (=  14.602 min)  58.8 %
SCF Gradient evaluation         ...      223.390 sec (=   3.723 min)  15.0 %
Geometry relaxation             ...        3.452 sec (=   0.058 min)   0.2 %
Analytical frequency calculation...      355.179 sec (=   5.920 min)  23.8 %
                             ****ORCA TERMINATED NORMALLY****
TOTAL RUN TIME: 0 days 0 hours 25 minutes 0 seconds 510 msec
