
                                 *****************
                                 * O   R   C   A *
                                 *****************

                                            #,                                       
                                            ###                                      
                                            ####                                     
                                            #####                                    
                                            ######                                   
                                           ########,                                 
                                     ,,################,,,,,                         
                               ,,#################################,,                 
                          ,,##########################################,,             
                       ,#########################################, ''#####,          
                    ,#############################################,,   '####,        
                  ,##################################################,,,,####,       
                ,###########''''           ''''###############################       
              ,#####''   ,,,,##########,,,,          '''####'''          '####       
            ,##' ,,,,###########################,,,                        '##       
           ' ,,###''''                  '''############,,,                           
         ,,##''                                '''############,,,,        ,,,,,,###''
      ,#''                                            '''#######################'''  
     '                                                          ''''####''''         
             ,#######,   #######,   ,#######,      ##                                
            ,#'     '#,  ##    ##  ,#'     '#,    #''#        ######   ,####,        
            ##       ##  ##   ,#'  ##            #'  '#       #        #'  '#        
            ##       ##  #######   ##           ,######,      #####,   #    #        
            '#,     ,#'  ##    ##  '#,     ,#' ,#      #,         ##   #,  ,#        
             '#######'   ##     ##  '#######'  #'      '#     #####' # '####'        



                  #######################################################
                  #                        -***-                        #
                  #          Department of theory and spectroscopy      #
                  #    Directorship and core code : Frank Neese         #
                  #        Max Planck Institute fuer Kohlenforschung    #
                  #                Kaiser Wilhelm Platz 1               #
                  #                 D-45470 Muelheim/Ruhr               #
                  #                      Germany                        #
                  #                                                     #
                  #                  All rights reserved                #
                  #                        -***-                        #
                  #######################################################


                         Program Version 5.0.4 -  RELEASE  -


 With contributions from (in alphabetic order):
   Daniel Aravena         : Magnetic Suceptibility
   Michael Atanasov       : Ab Initio Ligand Field Theory (pilot matlab implementation)
   Alexander A. Auer      : GIAO ZORA, VPT2 properties, NMR spectrum
   Ute Becker             : Parallelization
   Giovanni Bistoni       : ED, misc. LED, open-shell LED, HFLD
   Martin Brehm           : Molecular dynamics
   Dmytro Bykov           : SCF Hessian
   Vijay G. Chilkuri      : MRCI spin determinant printing, contributions to CSF-ICE
   Dipayan Datta          : RHF DLPNO-CCSD density
   Achintya Kumar Dutta   : EOM-CC, STEOM-CC
   Dmitry Ganyushin       : Spin-Orbit,Spin-Spin,Magnetic field MRCI
   Miquel Garcia          : C-PCM and meta-GGA Hessian, CC/C-PCM, Gaussian charge scheme
   Yang Guo               : DLPNO-NEVPT2, F12-NEVPT2, CIM, IAO-localization
   Andreas Hansen         : Spin unrestricted coupled pair/coupled cluster methods
   Benjamin Helmich-Paris : MC-RPA, TRAH-SCF, COSX integrals
   Lee Huntington         : MR-EOM, pCC
   Robert Izsak           : Overlap fitted RIJCOSX, COSX-SCS-MP3, EOM
   Marcus Kettner         : VPT2
   Christian Kollmar      : KDIIS, OOCD, Brueckner-CCSD(T), CCSD density, CASPT2, CASPT2-K
   Simone Kossmann        : Meta GGA functionals, TD-DFT gradient, OOMP2, MP2 Hessian
   Martin Krupicka        : Initial AUTO-CI
   Lucas Lang             : DCDCAS
   Marvin Lechner         : AUTO-CI (C++ implementation), FIC-MRCC
   Dagmar Lenk            : GEPOL surface, SMD
   Dimitrios Liakos       : Extrapolation schemes; Compound Job, initial MDCI parallelization
   Dimitrios Manganas     : Further ROCIS development; embedding schemes
   Dimitrios Pantazis     : SARC Basis sets
   Anastasios Papadopoulos: AUTO-CI, single reference methods and gradients
   Taras Petrenko         : DFT Hessian,TD-DFT gradient, ASA, ECA, R-Raman, ABS, FL, XAS/XES, NRVS
   Peter Pinski           : DLPNO-MP2, DLPNO-MP2 Gradient
   Christoph Reimann      : Effective Core Potentials
   Marius Retegan         : Local ZFS, SOC
   Christoph Riplinger    : Optimizer, TS searches, QM/MM, DLPNO-CCSD(T), (RO)-DLPNO pert. Triples
   Tobias Risthaus        : Range-separated hybrids, TD-DFT gradient, RPA, STAB
   Michael Roemelt        : Original ROCIS implementation
   Masaaki Saitow         : Open-shell DLPNO-CCSD energy and density
   Barbara Sandhoefer     : DKH picture change effects
   Avijit Sen             : IP-ROCIS
   Kantharuban Sivalingam : CASSCF convergence, NEVPT2, FIC-MRCI
   Bernardo de Souza      : ESD, SOC TD-DFT
   Georgi Stoychev        : AutoAux, RI-MP2 NMR, DLPNO-MP2 response
   Willem Van den Heuvel  : Paramagnetic NMR
   Boris Wezisla          : Elementary symmetry handling
   Frank Wennmohs         : Technical directorship


 We gratefully acknowledge several colleagues who have allowed us to
 interface, adapt or use parts of their codes:
   Stefan Grimme, W. Hujo, H. Kruse, P. Pracht,  : VdW corrections, initial TS optimization,
                  C. Bannwarth, S. Ehlert          DFT functionals, gCP, sTDA/sTD-DF
   Ed Valeev, F. Pavosevic, A. Kumar             : LibInt (2-el integral package), F12 methods
   Garnet Chan, S. Sharma, J. Yang, R. Olivares  : DMRG
   Ulf Ekstrom                                   : XCFun DFT Library
   Mihaly Kallay                                 : mrcc  (arbitrary order and MRCC methods)
   Jiri Pittner, Ondrej Demel                    : Mk-CCSD
   Frank Weinhold                                : gennbo (NPA and NBO analysis)
   Christopher J. Cramer and Donald G. Truhlar   : smd solvation model
   Lars Goerigk                                  : TD-DFT with DH, B97 family of functionals
   V. Asgeirsson, H. Jonsson                     : NEB implementation
   FAccTs GmbH                                   : IRC, NEB, NEB-TS, DLPNO-Multilevel, CI-OPT
                                                   MM, QMMM, 2- and 3-layer-ONIOM, Crystal-QMMM,
                                                   LR-CPCM, SF, NACMEs, symmetry and pop. for TD-DFT,
                                                   nearIR, NL-DFT gradient (VV10), updates on ESD,
                                                   ML-optimized integration grids
   S Lehtola, MJT Oliveira, MAL Marques          : LibXC Library
   Liviu Ungur et al                             : ANISO software


 Your calculation uses the libint2 library for the computation of 2-el integrals
 For citations please refer to: http://libint.valeyev.net

 Your ORCA version has been built with support for libXC version: 5.1.0
 For citations please refer to: https://tddft.org/programs/libxc/

 This ORCA versions uses:
   CBLAS   interface :  Fast vector & matrix operations
   LAPACKE interface :  Fast linear algebra routines
   SCALAPACK package :  Parallel linear algebra routines
   Shared memory     :  Shared parallel matrices
   BLAS/LAPACK       :  OpenBLAS 0.3.15  USE64BITINT DYNAMIC_ARCH NO_AFFINITY SkylakeX SINGLE_THREADED
        Core in use  :  SkylakeX
   Copyright (c) 2011-2014, The OpenBLAS Project




***************************************
The coordinates will be read from file: /users/fjb15167/WWenergy/structures/Nfnap.xyz
***************************************


Your calculation utilizes the atom-pairwise dispersion correction
based on tight binding partial charges (D4)
Cite in your paper:
E.Caldeweyher, C.Bannwarth, S.Grimme, J.Chem.Phys., (2017), 147, 034112.
E.Caldeweyher, S.Ehlert, A.Hansen, H.Neugebauer, S.Grimme, J.Chem.Phys., (2018), in progress.
   

================================================================================

----- Orbital basis set information -----
Your calculation utilizes the basis: 6-31G(d)
   H-He, Li-Ne : W. J. Hehre, R. Ditchfield and J.A. Pople, J. Chem. Phys. 56, 2257 (1972).
                 Note: He and Ne are unpublished basis sets taken from the Gaussian program.
                 Note: Li and B from J. D. Dill and J. A. Pople, J. Chem. Phys. 62, 2921 (1975).
   Na - Ar     : M. M. Francl, W. J. Pietro, W. J. Hehre, J. S. Binkley, M. S. Gordon, 
                 D. J. DeFrees and J. A. Pople, J. Chem. Phys. 77, 3654 (1982).
   K - Zn      : V. A. Rassolov, J. A. Pople, M. A. Ratner, and T. L. Windus, J. Chem. Phys. 109, 1223 (1998).

----- AuxJ basis set information -----
Your calculation utilizes the AutoAux generation procedure.
  G. L. Stoychev, A. A. Auer, F. Neese, J. Chem. Theory Comput. 13, 554 (2017)

----- AuxC basis set information -----
Your calculation utilizes the AutoAux generation procedure.
  G. L. Stoychev, A. A. Auer, F. Neese, J. Chem. Theory Comput. 13, 554 (2017)

----- AuxJK basis set information -----
Your calculation utilizes the AutoAux generation procedure.
  G. L. Stoychev, A. A. Auer, F. Neese, J. Chem. Theory Comput. 13, 554 (2017)

================================================================================
                                        WARNINGS
                       Please study these warnings very carefully!
================================================================================


WARNING: Geometry Optimization
  ===> : Switching off AutoStart
         For restart on a previous wavefunction, please use MOREAD

INFO   : the flag for use of the SHARK integral package has been found!

================================================================================
                                       INPUT FILE
================================================================================
NAME = Nfnap_water.inp
|  1> ! OPT FREQ B3LYP 6-31G(d) D4 AUTOAUX CPCM(water)
|  2> 
|  3> %PAL NPROCS 4 END
|  4> 
|  5> %maxcore 3375
|  6> 
|  7> *xyzfile 0 1 /users/fjb15167/WWenergy/structures/Nfnap.xyz
|  8> 
|  9>                          ****END OF INPUT****
================================================================================

                       *****************************
                       * Geometry Optimization Run *
                       *****************************

Geometry optimization settings:
Update method            Update   .... BFGS
Choice of coordinates    CoordSys .... Z-matrix Internals
Initial Hessian          InHess   .... Almoef's Model

Convergence Tolerances:
Energy Change            TolE     ....  5.0000e-06 Eh
Max. Gradient            TolMAXG  ....  3.0000e-04 Eh/bohr
RMS Gradient             TolRMSG  ....  1.0000e-04 Eh/bohr
Max. Displacement        TolMAXD  ....  4.0000e-03 bohr
RMS Displacement         TolRMSD  ....  2.0000e-03 bohr
Strict Convergence                ....  False
------------------------------------------------------------------------------
                        ORCA OPTIMIZATION COORDINATE SETUP
------------------------------------------------------------------------------

The optimization will be done in new redundant internal coordinates
Making redundant internal coordinates   ...  (new redundants) done
Evaluating the initial hessian          ...  (Almloef) done
Evaluating the coordinates              ...  done
Calculating the B-matrix                .... done
Calculating the G-matrix                .... done
Diagonalizing the G-matrix              .... done
Small eigenvalue found = 2.592e-03
Small eigenvalue found = 8.142e-03
Small eigenvalue found = 1.080e-02
Small eigenvalue found = 1.326e-02
Small eigenvalue found = 2.064e-02
Small eigenvalue found = 2.828e-02
The first mode is                       ....   92
The number of degrees of freedom        ....  117

    -----------------------------------------------------------------
                    Redundant Internal Coordinates


    -----------------------------------------------------------------
         Definition                    Initial Value    Approx d2E/dq
    -----------------------------------------------------------------
      1. B(H   1,C   0)                  1.0940         0.354789   
      2. B(H   2,C   0)                  1.0947         0.353953   
      3. B(H   3,C   0)                  1.0895         0.360814   
      4. B(C   4,C   0)                  1.5169         0.391988   
      5. B(O   5,C   4)                  1.2386         0.975798   
      6. B(N   6,C   4)                  1.3763         0.588583   
      7. B(C   7,N   6)                  1.4598         0.433043   
      8. B(H   8,C   7)                  1.0973         0.350556   
      9. B(H   9,C   7)                  1.0917         0.357815   
     10. B(C  10,C   7)                  1.5306         0.372756   
     11. B(N  11,C  10)                  1.3605         0.623703   
     12. B(O  12,C  10)                  1.2400         0.970770   
     13. B(C  13,N  11)                  1.4535         0.443144   
     14. B(H  14,C  13)                  1.0949         0.353707   
     15. B(H  15,C  13)                  1.0963         0.351861   
     16. B(H  16,C  13)                  1.0869         0.364243   
     17. B(C  17,N  11)                  1.4566         0.438151   
     18. B(H  18,C  17)                  1.0949         0.353707   
     19. B(H  19,C  17)                  1.0876         0.363303   
     20. B(H  20,C  17)                  1.0958         0.352497   
     21. B(C  21,N   6)                  1.4730         0.412576   
     22. B(H  22,C  21)                  1.0927         0.356503   
     23. B(H  23,C  21)                  1.0922         0.357193   
     24. B(C  24,C  21)                  1.5153         0.394361   
     25. B(C  25,C  24)                  1.4307         0.537930   
     26. B(C  26,C  24)                  1.3886         0.628118   
     27. B(C  27,C  25)                  1.4225         0.554431   
     28. B(C  28,C  25)                  1.4403         0.519478   
     29. B(C  29,C  26)                  1.4094         0.581914   
     30. B(H  30,C  26)                  1.0875         0.363420   
     31. B(C  31,C  27)                  1.3814         0.644848   
     32. B(H  32,C  27)                  1.0837         0.368540   
     33. B(C  33,C  28)                  1.4198         0.560050   
     34. B(C  34,C  29)                  1.3790         0.650499   
     35. B(C  34,C  28)                  1.4175         0.564676   
     36. B(H  35,C  29)                  1.0878         0.363058   
     37. B(C  36,H  18)                  3.1178         0.000209   
     38. B(C  36,C  33)                  1.3779         0.653272   
     39. B(C  36,C  31)                  1.4112         0.578069   
     40. B(H  37,C  31)                  1.0879         0.362867   
     41. B(H  38,C  33)                  1.0893         0.360971   
     42. B(H  39,C  34)                  1.0891         0.361274   
     43. B(H  40,C  36)                  1.0888         0.361662   
     44. A(H   2,C   0,H   3)          108.8125         0.290144   
     45. A(H   2,C   0,C   4)          111.7353         0.325970   
     46. A(H   1,C   0,H   2)          108.0521         0.289379   
     47. A(H   1,C   0,H   3)          109.3015         0.290252   
     48. A(H   3,C   0,C   4)          106.9324         0.327002   
     49. A(H   1,C   0,C   4)          111.9482         0.326097   
     50. A(C   0,C   4,O   5)          120.8133         0.430843   
     51. A(C   0,C   4,N   6)          117.5049         0.393884   
     52. A(O   5,C   4,N   6)          121.6708         0.460702   
     53. A(C   4,N   6,C  21)          117.8073         0.394899   
     54. A(C   7,N   6,C  21)          117.0997         0.374372   
     55. A(C   4,N   6,C   7)          122.6305         0.398269   
     56. A(H   8,C   7,C  10)          104.4905         0.322776   
     57. A(N   6,C   7,C  10)          112.9417         0.370205   
     58. A(H   8,C   7,H   9)          108.3384         0.289327   
     59. A(N   6,C   7,H   9)          109.7380         0.329970   
     60. A(N   6,C   7,H   8)          111.3040         0.328855   
     61. A(H   9,C   7,C  10)          109.8356         0.323863   
     62. A(N  11,C  10,O  12)          123.2225         0.465170   
     63. A(C   7,C  10,O  12)          118.4957         0.426578   
     64. A(C   7,C  10,N  11)          118.2626         0.394412   
     65. A(C  13,N  11,C  17)          115.1150         0.379797   
     66. A(C  10,N  11,C  17)          118.9948         0.403186   
     67. A(C  10,N  11,C  13)          125.6816         0.403993   
     68. A(H  15,C  13,H  16)          109.7208         0.290305   
     69. A(H  14,C  13,H  16)          107.8073         0.290544   
     70. A(N  11,C  13,H  16)          110.8825         0.332209   
     71. A(H  14,C  13,H  15)          109.1383         0.288972   
     72. A(N  11,C  13,H  15)          109.8743         0.330313   
     73. A(N  11,C  13,H  14)          109.3737         0.330599   
     74. A(H  18,C  17,H  19)          109.5770         0.290426   
     75. A(N  11,C  17,H  19)          108.4141         0.331444   
     76. A(N  11,C  17,H  18)          110.1821         0.329980   
     77. A(H  19,C  17,H  20)          110.0954         0.290270   
     78. A(H  18,C  17,H  20)          109.3342         0.289054   
     79. A(N  11,C  17,H  20)          109.2250         0.329793   
     80. A(H  23,C  21,C  24)          112.4859         0.326784   
     81. A(H  22,C  21,C  24)          109.5825         0.326680   
     82. A(N   6,C  21,C  24)          111.9399         0.370710   
     83. A(H  22,C  21,H  23)          108.2465         0.290012   
     84. A(N   6,C  21,H  23)          107.5706         0.327250   
     85. A(N   6,C  21,H  22)          106.7860         0.327146   
     86. A(C  25,C  24,C  26)          119.6260         0.424138   
     87. A(C  21,C  24,C  26)          116.9766         0.401396   
     88. A(C  21,C  24,C  25)          123.3735         0.390627   
     89. A(C  27,C  25,C  28)          117.7776         0.412241   
     90. A(C  24,C  25,C  28)          118.4286         0.410038   
     91. A(C  24,C  25,C  27)          123.6650         0.414805   
     92. A(C  29,C  26,H  30)          119.9648         0.349690   
     93. A(C  24,C  26,H  30)          118.4843         0.354237   
     94. A(C  24,C  26,C  29)          121.5289         0.430153   
     95. A(C  31,C  27,H  32)          118.2308         0.356666   
     96. A(C  25,C  27,H  32)          120.6074         0.347669   
     97. A(C  25,C  27,C  31)          121.0491         0.428451   
     98. A(C  33,C  28,C  34)          120.6360         0.419156   
     99. A(C  25,C  28,C  34)          119.8512         0.413583   
    100. A(C  25,C  28,C  33)          119.4525         0.412980   
    101. A(C  34,C  29,H  35)          120.2606         0.356287   
    102. A(C  26,C  29,H  35)          119.6124         0.349631   
    103. A(C  26,C  29,C  34)          120.1133         0.432867   
    104. A(C  27,C  31,C  36)          120.8419         0.431674   
    105. A(C  36,C  31,H  37)          119.8207         0.349210   
    106. A(C  27,C  31,H  37)          119.3220         0.355728   
    107. A(C  28,C  33,C  36)          120.9592         0.430228   
    108. A(C  36,C  33,H  38)          120.4609         0.356196   
    109. A(C  28,C  33,H  38)          118.5144         0.347045   
    110. A(C  28,C  34,C  29)          120.3611         0.430535   
    111. A(C  29,C  34,H  39)          120.6924         0.355990   
    112. A(C  28,C  34,H  39)          118.8665         0.347575   
    113. A(C  33,C  36,H  40)          120.2298         0.356312   
    114. A(C  31,C  36,H  40)          120.0052         0.349014   
    115. A(C  31,C  36,C  33)          119.7493         0.432682   
    116. D(O   5,C   4,C   0,H   1)   -122.2229         0.011426   
    117. D(O   5,C   4,C   0,H   3)     -2.5401         0.011426   
    118. D(N   6,C   4,C   0,H   1)     58.9621         0.011426   
    119. D(N   6,C   4,C   0,H   3)    178.6449         0.011426   
    120. D(N   6,C   4,C   0,H   2)    -62.3916         0.011426   
    121. D(O   5,C   4,C   0,H   2)    116.4235         0.011426   
    122. D(C  21,N   6,C   4,C   0)   -171.3420         0.027840   
    123. D(C   7,N   6,C   4,O   5)    171.5161         0.027840   
    124. D(C   7,N   6,C   4,C   0)     -9.6796         0.027840   
    125. D(C  21,N   6,C   4,O   5)      9.8538         0.027840   
    126. D(C  10,C   7,N   6,C   4)    156.6678         0.015988   
    127. D(H   9,C   7,N   6,C  21)   -164.4596         0.015988   
    128. D(H   8,C   7,N   6,C  21)     75.6260         0.015988   
    129. D(H   8,C   7,N   6,C   4)    -86.1578         0.015988   
    130. D(C  10,C   7,N   6,C  21)    -41.5485         0.015988   
    131. D(H   9,C   7,N   6,C   4)     33.7566         0.015988   
    132. D(O  12,C  10,C   7,N   6)    110.6856         0.010394   
    133. D(O  12,C  10,C   7,H   9)   -126.4574         0.010394   
    134. D(O  12,C  10,C   7,H   8)    -10.4373         0.010394   
    135. D(N  11,C  10,C   7,H   8)    168.0232         0.010394   
    136. D(N  11,C  10,C   7,N   6)    -70.8538         0.010394   
    137. D(N  11,C  10,C   7,H   9)     52.0031         0.010394   
    138. D(C  17,N  11,C  10,O  12)     -1.8076         0.031529   
    139. D(C  17,N  11,C  10,C   7)    179.8097         0.031529   
    140. D(C  13,N  11,C  10,O  12)   -176.2877         0.031529   
    141. D(C  13,N  11,C  10,C   7)      5.3297         0.031529   
    142. D(H  15,C  13,N  11,C  17)     64.3709         0.016747   
    143. D(H  15,C  13,N  11,C  10)   -120.9608         0.016747   
    144. D(H  14,C  13,N  11,C  17)    -55.4078         0.016747   
    145. D(H  16,C  13,N  11,C  10)      0.5021         0.016747   
    146. D(H  14,C  13,N  11,C  10)    119.2606         0.016747   
    147. D(H  16,C  13,N  11,C  17)   -174.1663         0.016747   
    148. D(H  20,C  17,N  11,C  13)    -56.1727         0.016369   
    149. D(H  20,C  17,N  11,C  10)    128.7777         0.016369   
    150. D(H  19,C  17,N  11,C  13)   -176.1472         0.016369   
    151. D(H  19,C  17,N  11,C  10)      8.8031         0.016369   
    152. D(H  18,C  17,N  11,C  13)     63.9432         0.016369   
    153. D(H  18,C  17,N  11,C  10)   -111.1065         0.016369   
    154. D(C  24,C  21,N   6,C   7)     96.9895         0.014519   
    155. D(H  23,C  21,N   6,C   7)    -27.0695         0.014519   
    156. D(C  24,C  21,N   6,C   4)   -100.3261         0.014519   
    157. D(H  22,C  21,N   6,C   7)   -143.0818         0.014519   
    158. D(H  23,C  21,N   6,C   4)    135.6149         0.014519   
    159. D(H  22,C  21,N   6,C   4)     19.6026         0.014519   
    160. D(C  26,C  24,C  21,H  23)   -177.2627         0.011557   
    161. D(C  26,C  24,C  21,H  22)    -56.8036         0.011557   
    162. D(C  26,C  24,C  21,N   6)     61.4746         0.011557   
    163. D(C  25,C  24,C  21,H  22)    124.9835         0.011557   
    164. D(C  25,C  24,C  21,N   6)   -116.7383         0.011557   
    165. D(C  25,C  24,C  21,H  23)      4.5244         0.011557   
    166. D(C  28,C  25,C  24,C  26)      0.2661         0.019768   
    167. D(C  28,C  25,C  24,C  21)    178.4339         0.019768   
    168. D(C  27,C  25,C  24,C  26)    176.0425         0.019768   
    169. D(C  27,C  25,C  24,C  21)     -5.7897         0.019768   
    170. D(H  30,C  26,C  24,C  25)   -178.1116         0.027345   
    171. D(H  30,C  26,C  24,C  21)      3.6052         0.027345   
    172. D(C  29,C  26,C  24,C  25)      0.1789         0.027345   
    173. D(C  29,C  26,C  24,C  21)   -178.1043         0.027345   
    174. D(H  32,C  27,C  25,C  28)   -179.8652         0.021040   
    175. D(H  32,C  27,C  25,C  24)      4.3329         0.021040   
    176. D(C  31,C  27,C  25,C  28)     -3.7929         0.021040   
    177. D(C  31,C  27,C  25,C  24)   -179.5949         0.021040   
    178. D(C  33,C  28,C  25,C  24)   -179.3424         0.018403   
    179. D(C  34,C  28,C  25,C  27)   -178.1759         0.018403   
    180. D(C  34,C  28,C  25,C  24)     -2.1486         0.018403   
    181. D(C  33,C  28,C  25,C  27)      4.6304         0.018403   
    182. D(H  35,C  29,C  26,H  30)     -1.7763         0.023272   
    183. D(H  35,C  29,C  26,C  24)    179.9581         0.023272   
    184. D(C  34,C  29,C  26,H  30)    179.5661         0.023272   
    185. D(C  34,C  29,C  26,C  24)      1.3005         0.023272   
    186. D(H  37,C  31,C  27,H  32)     -3.1216         0.028921   
    187. D(H  37,C  31,C  27,C  25)   -179.2848         0.028921   
    188. D(C  36,C  31,C  27,H  32)    178.3071         0.028921   
    189. D(C  36,C  31,C  27,C  25)      2.1439         0.028921   
    190. D(H  38,C  33,C  28,C  34)      1.8141         0.021485   
    191. D(H  38,C  33,C  28,C  25)    178.9853         0.021485   
    192. D(C  36,C  33,C  28,C  34)    178.8828         0.021485   
    193. D(C  36,C  33,C  28,C  25)     -3.9460         0.021485   
    194. D(H  39,C  34,C  29,H  35)      1.4212         0.029466   
    195. D(H  39,C  34,C  29,C  26)   -179.9300         0.029466   
    196. D(C  28,C  34,C  29,H  35)    178.1339         0.029466   
    197. D(C  28,C  34,C  29,C  26)     -3.2173         0.029466   
    198. D(H  39,C  34,C  28,C  33)     -2.4114         0.021856   
    199. D(H  39,C  34,C  28,C  25)   -179.5714         0.021856   
    200. D(C  29,C  34,C  28,C  33)   -179.1836         0.021856   
    201. D(C  29,C  34,C  28,C  25)      3.6564         0.021856   
    202. D(H  40,C  36,C  33,H  38)     -2.2209         0.032329   
    203. D(H  40,C  36,C  33,C  28)   -179.2326         0.032329   
    204. D(C  31,C  36,C  33,H  38)    179.2196         0.032329   
    205. D(C  31,C  36,C  33,C  28)      2.2078         0.032329   
    206. D(H  40,C  36,C  31,H  37)      1.5948         0.024921   
    207. D(H  40,C  36,C  31,C  27)   -179.8410         0.024921   
    208. D(C  33,C  36,C  31,H  37)   -179.8423         0.024921   
    209. D(C  33,C  36,C  31,C  27)     -1.2781         0.024921   
    -----------------------------------------------------------------

Number of atoms                         .... 41
Number of degrees of freedom            .... 209

         *************************************************************
         *                GEOMETRY OPTIMIZATION CYCLE   1            *
         *************************************************************
---------------------------------
CARTESIAN COORDINATES (ANGSTROEM)
---------------------------------
  C      4.454000    0.044000    0.346000
  H      4.801000   -0.881000   -0.124000
  H      4.196000   -0.180000    1.386000
  H      5.259000    0.778000    0.334000
  C      3.286000    0.657000   -0.403000
  O      3.353000    1.811000   -0.848000
  N      2.150000   -0.107000   -0.544000
  C      2.105000   -1.523000   -0.192000
  H      2.441000   -2.152000   -1.026000
  H      2.756000   -1.711000    0.664000
  C      0.689000   -2.017000    0.114000
  N      0.095000   -1.598000    1.264000
  O      0.151000   -2.801000   -0.682000
  C      0.642000   -0.625000    2.195000
  H     -0.038000    0.230000    2.268000
  H      0.755000   -1.080000    3.186000
  H      1.604000   -0.256000    1.849000
  C     -1.254000   -2.055000    1.569000
  H     -1.960000   -1.221000    1.500000
  H     -1.527000   -2.824000    0.850000
  H     -1.275000   -2.465000    2.585000
  C      1.088000    0.398000   -1.431000
  H      1.552000    1.135000   -2.091000
  H      0.743000   -0.439000   -2.042000
  C     -0.037000    1.050000   -0.653000
  C     -1.379000    0.554000   -0.645000
  C      0.288000    2.163000    0.111000
  C     -1.825000   -0.527000   -1.455000
  C     -2.358000    1.238000    0.160000
  C     -0.675000    2.820000    0.903000
  H      1.306000    2.543000    0.067000
  C     -3.137000   -0.957000   -1.410000
  H     -1.127000   -1.075000   -2.077000
  C     -3.693000    0.756000    0.195000
  C     -1.969000    2.346000    0.954000
  H     -0.386000    3.689000    1.490000
  C     -4.084000   -0.306000   -0.591000
  H     -3.445000   -1.794000   -2.033000
  H     -4.417000    1.275000    0.822000
  H     -2.721000    2.847000    1.562000
  H     -5.114000   -0.658000   -0.564000

----------------------------
CARTESIAN COORDINATES (A.U.)
----------------------------
  NO LB      ZA    FRAG     MASS         X           Y           Z
   0 C     6.0000    0    12.011    8.416840    0.083148    0.653845
   1 H     1.0000    0     1.008    9.072575   -1.664849   -0.234326
   2 H     1.0000    0     1.008    7.929291   -0.340151    2.619160
   3 H     1.0000    0     1.008    9.938070    1.470207    0.631169
   4 C     6.0000    0    12.011    6.209640    1.241550   -0.761560
   5 O     8.0000    0    15.999    6.336252    3.422294   -1.602488
   6 N     7.0000    0    14.007    4.062911   -0.202201   -1.028011
   7 C     6.0000    0    12.011    3.977874   -2.878053   -0.362827
   8 H     1.0000    0     1.008    4.612821   -4.066691   -1.938859
   9 H     1.0000    0     1.008    5.208085   -3.233321    1.254778
  10 C     6.0000    0    12.011    1.302021   -3.811578    0.215429
  11 N     7.0000    0    14.007    0.179524   -3.019782    2.388614
  12 O     8.0000    0    15.999    0.285349   -5.293123   -1.288793
  13 C     6.0000    0    12.011    1.213204   -1.181079    4.147949
  14 H     1.0000    0     1.008   -0.071810    0.434637    4.285899
  15 H     1.0000    0     1.008    1.426743   -2.040904    6.020667
  16 H     1.0000    0     1.008    3.031121   -0.483770    3.494104
  17 C     6.0000    0    12.011   -2.369717   -3.883387    2.964980
  18 H     1.0000    0     1.008   -3.703863   -2.307356    2.834589
  19 H     1.0000    0     1.008   -2.885612   -5.336587    1.606267
  20 H     1.0000    0     1.008   -2.409401   -4.658175    4.884942
  21 C     6.0000    0    12.011    2.056022    0.752111   -2.704198
  22 H     1.0000    0     1.008    2.932855    2.144839   -3.951417
  23 H     1.0000    0     1.008    1.404067   -0.829590   -3.858821
  24 C     6.0000    0    12.011   -0.069920    1.984212   -1.233991
  25 C     6.0000    0    12.011   -2.605932    1.046908   -1.218873
  26 C     6.0000    0    12.011    0.544241    4.087478    0.209760
  27 C     6.0000    0    12.011   -3.448750   -0.995886   -2.749552
  28 C     6.0000    0    12.011   -4.455974    2.339481    0.302356
  29 C     6.0000    0    12.011   -1.275565    5.329028    1.706423
  30 H     1.0000    0     1.008    2.467982    4.805574    0.126612
  31 C     6.0000    0    12.011   -5.928071   -1.808468   -2.664514
  32 H     1.0000    0     1.008   -2.129721   -2.031456   -3.924961
  33 C     6.0000    0    12.011   -6.978759    1.428633    0.368497
  34 C     6.0000    0    12.011   -3.720871    4.433298    1.802799
  35 H     1.0000    0     1.008   -0.729434    6.971200    2.815692
  36 C     6.0000    0    12.011   -7.717642   -0.578256   -1.116828
  37 H     1.0000    0     1.008   -6.510107   -3.390169   -3.841813
  38 H     1.0000    0     1.008   -8.346920    2.409401    1.553355
  39 H     1.0000    0     1.008   -5.141945    5.380050    2.951752
  40 H     1.0000    0     1.008   -9.664059   -1.243440   -1.065806

--------------------------------
INTERNAL COORDINATES (ANGSTROEM)
--------------------------------
 C      0   0   0     0.000000000000     0.00000000     0.00000000
 H      1   0   0     1.094044788846     0.00000000     0.00000000
 H      1   2   0     1.094687169926   108.05211514     0.00000000
 H      1   2   3     1.089460875846   109.30145757   118.26259166
 C      1   2   3     1.516902765506   111.94821572   236.54597979
 O      5   1   2     1.238640383647   120.81332057   237.77708787
 N      5   1   2     1.376253247044   117.50492091    58.96205740
 C      7   5   1     1.459789368368   122.63047292   350.32037015
 H      8   7   5     1.097311715056   111.30400059   273.84224909
 H      8   7   5     1.091733025973   109.73804577    33.75659758
 C      8   7   5     1.530597269042   112.94167997   156.66776293
 N     11   8   7     1.360476754671   118.26263786   289.14615750
 O     11   8   7     1.240046773311   118.49570118   110.68564997
 C     12  11   8     1.453512641844   125.68157989     5.32967964
 H     14  12  11     1.094876248715   109.37371447   119.26055680
 H     14  12  11     1.096300597464   109.87425489   239.03921318
 H     14  12  11     1.086885918577   110.88250955     0.50206859
 C     12  11   8     1.456597061647   118.99477847   179.80974370
 H     18  12  11     1.094875792042   110.18208142   248.89353119
 H     18  12  11     1.087589536544   108.41411101     8.80314449
 H     18  12  11     1.095808833693   109.22500778   128.77767739
 C      7   5   1     1.472969110335   117.80734977   188.65801541
 H     22   7   5     1.092732812722   106.78596333    19.60258086
 H     22   7   5     1.092206482310   107.57061355   135.61492555
 C     22   7   5     1.515260043689   111.93987219   259.67392780
 C     25  22   7     1.430749453958   123.37351257   243.26173647
 C     25  22   7     1.388556804744   116.97664646    61.47462186
 C     26  25  22     1.422524867972   123.66502162   354.21029927
 C     26  25  22     1.440250672626   118.42860204   178.43392961
 C     27  25  22     1.409355171701   121.52885280   181.89573231
 H     27  25  22     1.087501724137   118.48431296     3.60523474
 C     28  26  25     1.381401100333   121.04907358   180.40514087
 H     28  26  25     1.083693683658   120.60739773     4.33285319
 C     29  26  25     1.419779560354   119.45253752   180.65762298
 C     30  27  25     1.379026105627   120.11332559     1.30050267
 H     30  27  25     1.087773413906   119.61237699   179.95806436
 C     34  29  26     1.377868281078   120.95920671   356.05397299
 H     32  28  26     1.087916357079   119.32199861   180.71515937
 H     34  29  26     1.089342003229   118.51437925   178.98532657
 H     35  30  27     1.089113859980   120.69242235   180.06995175
 H     37  34  29     1.088821840339   120.22982170   180.76740426

---------------------------
INTERNAL COORDINATES (A.U.)
---------------------------
 C      0   0   0     0.000000000000     0.00000000     0.00000000
 H      1   0   0     2.067445029162     0.00000000     0.00000000
 H      1   2   0     2.068658953477   108.05211514     0.00000000
 H      1   2   3     2.058782688972   109.30145757   118.26259166
 C      1   2   3     2.866530798594   111.94821572   236.54597979
 O      5   1   2     2.340691103507   120.81332057   237.77708787
 N      5   1   2     2.600741727834   117.50492091    58.96205740
 C      7   5   1     2.758602119425   122.63047292   350.32037015
 H      8   7   5     2.073618625000   111.30400059   273.84224909
 H      8   7   5     2.063076430446   109.73804577    33.75659758
 C      8   7   5     2.892409659818   112.94167997   156.66776293
 N     11   8   7     2.570928477894   118.26263786   289.14615750
 O     11   8   7     2.343348794811   118.49570118   110.68564997
 C     12  11   8     2.746740825277   125.68157989     5.32967964
 H     14  12  11     2.069016260606   109.37371447   119.26055680
 H     14  12  11     2.071707889661   109.87425489   239.03921318
 H     14  12  11     2.053916724925   110.88250955     0.50206859
 C     12  11   8     2.752569533988   118.99477847   179.80974370
 H     18  12  11     2.069015397620   110.18208142   248.89353119
 H     18  12  11     2.055246370187   108.41411101     8.80314449
 H     18  12  11     2.070778590812   109.22500778   128.77767739
 C      7   5   1     2.783508222258   117.80734977   188.65801541
 H     22   7   5     2.064965753595   106.78596333    19.60258086
 H     22   7   5     2.063971133259   107.57061355   135.61492555
 C     22   7   5     2.863426504246   111.93987219   259.67392780
 C     25  22   7     2.703724634237   123.37351257   243.26173647
 C     25  22   7     2.623992082358   116.97664646    61.47462186
 C     26  25  22     2.688182419160   123.66502162   354.21029927
 C     26  25  22     2.721679335459   118.42860204   178.43392961
 C     27  25  22     2.663295299940   121.52885280   181.89573231
 H     27  25  22     2.055080428785   118.48431296     3.60523474
 C     28  26  25     2.610469760726   121.04907358   180.40514087
 H     28  26  25     2.047884275174   120.60739773     4.33285319
 C     29  26  25     2.682994539609   119.45253752   180.65762298
 C     30  27  25     2.605981671162   120.11332559     1.30050267
 H     30  27  25     2.055593848042   119.61237699   179.95806436
 C     34  29  26     2.603793699854   120.95920671   356.05397299
 H     32  28  26     2.055863971493   119.32199861   180.71515937
 H     34  29  26     2.058558052281   118.51437925   178.98532657
 H     35  30  27     2.058126924020   120.69242235   180.06995175
 H     37  34  29     2.057575086874   120.22982170   180.76740426

---------------------
BASIS SET INFORMATION
---------------------
There are 4 groups of distinct atoms

 Group   1 Type C   : 10s4p1d contracted to 3s2p1d pattern {631/31/1}
 Group   2 Type H   : 4s contracted to 2s pattern {31}
 Group   3 Type O   : 10s4p1d contracted to 3s2p1d pattern {631/31/1}
 Group   4 Type N   : 10s4p1d contracted to 3s2p1d pattern {631/31/1}

Atom   0C    basis set group =>   1
Atom   1H    basis set group =>   2
Atom   2H    basis set group =>   2
Atom   3H    basis set group =>   2
Atom   4C    basis set group =>   1
Atom   5O    basis set group =>   3
Atom   6N    basis set group =>   4
Atom   7C    basis set group =>   1
Atom   8H    basis set group =>   2
Atom   9H    basis set group =>   2
Atom  10C    basis set group =>   1
Atom  11N    basis set group =>   4
Atom  12O    basis set group =>   3
Atom  13C    basis set group =>   1
Atom  14H    basis set group =>   2
Atom  15H    basis set group =>   2
Atom  16H    basis set group =>   2
Atom  17C    basis set group =>   1
Atom  18H    basis set group =>   2
Atom  19H    basis set group =>   2
Atom  20H    basis set group =>   2
Atom  21C    basis set group =>   1
Atom  22H    basis set group =>   2
Atom  23H    basis set group =>   2
Atom  24C    basis set group =>   1
Atom  25C    basis set group =>   1
Atom  26C    basis set group =>   1
Atom  27C    basis set group =>   1
Atom  28C    basis set group =>   1
Atom  29C    basis set group =>   1
Atom  30H    basis set group =>   2
Atom  31C    basis set group =>   1
Atom  32H    basis set group =>   2
Atom  33C    basis set group =>   1
Atom  34C    basis set group =>   1
Atom  35H    basis set group =>   2
Atom  36C    basis set group =>   1
Atom  37H    basis set group =>   2
Atom  38H    basis set group =>   2
Atom  39H    basis set group =>   2
Atom  40H    basis set group =>   2
---------------------------------
AUXILIARY/J BASIS SET INFORMATION
---------------------------------
There are 4 groups of distinct atoms

 Group   1 Type C   : 13s11p10d2f contracted to 13s11p10d2f pattern {1111111111111/11111111111/1111111111/11}
 Group   2 Type H   : 9s2p contracted to 9s2p pattern {111111111/11}
 Group   3 Type O   : 14s11p10d2f contracted to 14s11p10d2f pattern {11111111111111/11111111111/1111111111/11}
 Group   4 Type N   : 14s11p10d2f contracted to 14s11p10d2f pattern {11111111111111/11111111111/1111111111/11}

Atom   0C    basis set group =>   1
Atom   1H    basis set group =>   2
Atom   2H    basis set group =>   2
Atom   3H    basis set group =>   2
Atom   4C    basis set group =>   1
Atom   5O    basis set group =>   3
Atom   6N    basis set group =>   4
Atom   7C    basis set group =>   1
Atom   8H    basis set group =>   2
Atom   9H    basis set group =>   2
Atom  10C    basis set group =>   1
Atom  11N    basis set group =>   4
Atom  12O    basis set group =>   3
Atom  13C    basis set group =>   1
Atom  14H    basis set group =>   2
Atom  15H    basis set group =>   2
Atom  16H    basis set group =>   2
Atom  17C    basis set group =>   1
Atom  18H    basis set group =>   2
Atom  19H    basis set group =>   2
Atom  20H    basis set group =>   2
Atom  21C    basis set group =>   1
Atom  22H    basis set group =>   2
Atom  23H    basis set group =>   2
Atom  24C    basis set group =>   1
Atom  25C    basis set group =>   1
Atom  26C    basis set group =>   1
Atom  27C    basis set group =>   1
Atom  28C    basis set group =>   1
Atom  29C    basis set group =>   1
Atom  30H    basis set group =>   2
Atom  31C    basis set group =>   1
Atom  32H    basis set group =>   2
Atom  33C    basis set group =>   1
Atom  34C    basis set group =>   1
Atom  35H    basis set group =>   2
Atom  36C    basis set group =>   1
Atom  37H    basis set group =>   2
Atom  38H    basis set group =>   2
Atom  39H    basis set group =>   2
Atom  40H    basis set group =>   2
---------------------------------
AUXILIARY/C BASIS SET INFORMATION
---------------------------------
There are 4 groups of distinct atoms

 Group   1 Type C   : 13s11p10d2f contracted to 13s11p10d2f pattern {1111111111111/11111111111/1111111111/11}
 Group   2 Type H   : 9s2p contracted to 9s2p pattern {111111111/11}
 Group   3 Type O   : 14s11p10d2f contracted to 14s11p10d2f pattern {11111111111111/11111111111/1111111111/11}
 Group   4 Type N   : 14s11p10d2f contracted to 14s11p10d2f pattern {11111111111111/11111111111/1111111111/11}

Atom   0C    basis set group =>   1
Atom   1H    basis set group =>   2
Atom   2H    basis set group =>   2
Atom   3H    basis set group =>   2
Atom   4C    basis set group =>   1
Atom   5O    basis set group =>   3
Atom   6N    basis set group =>   4
Atom   7C    basis set group =>   1
Atom   8H    basis set group =>   2
Atom   9H    basis set group =>   2
Atom  10C    basis set group =>   1
Atom  11N    basis set group =>   4
Atom  12O    basis set group =>   3
Atom  13C    basis set group =>   1
Atom  14H    basis set group =>   2
Atom  15H    basis set group =>   2
Atom  16H    basis set group =>   2
Atom  17C    basis set group =>   1
Atom  18H    basis set group =>   2
Atom  19H    basis set group =>   2
Atom  20H    basis set group =>   2
Atom  21C    basis set group =>   1
Atom  22H    basis set group =>   2
Atom  23H    basis set group =>   2
Atom  24C    basis set group =>   1
Atom  25C    basis set group =>   1
Atom  26C    basis set group =>   1
Atom  27C    basis set group =>   1
Atom  28C    basis set group =>   1
Atom  29C    basis set group =>   1
Atom  30H    basis set group =>   2
Atom  31C    basis set group =>   1
Atom  32H    basis set group =>   2
Atom  33C    basis set group =>   1
Atom  34C    basis set group =>   1
Atom  35H    basis set group =>   2
Atom  36C    basis set group =>   1
Atom  37H    basis set group =>   2
Atom  38H    basis set group =>   2
Atom  39H    basis set group =>   2
Atom  40H    basis set group =>   2
----------------------------------
AUXILIARY/JK BASIS SET INFORMATION
----------------------------------
There are 4 groups of distinct atoms

 Group   1 Type C   : 13s11p10d2f contracted to 13s11p10d2f pattern {1111111111111/11111111111/1111111111/11}
 Group   2 Type H   : 9s2p contracted to 9s2p pattern {111111111/11}
 Group   3 Type O   : 14s11p10d2f contracted to 14s11p10d2f pattern {11111111111111/11111111111/1111111111/11}
 Group   4 Type N   : 14s11p10d2f contracted to 14s11p10d2f pattern {11111111111111/11111111111/1111111111/11}

Atom   0C    basis set group =>   1
Atom   1H    basis set group =>   2
Atom   2H    basis set group =>   2
Atom   3H    basis set group =>   2
Atom   4C    basis set group =>   1
Atom   5O    basis set group =>   3
Atom   6N    basis set group =>   4
Atom   7C    basis set group =>   1
Atom   8H    basis set group =>   2
Atom   9H    basis set group =>   2
Atom  10C    basis set group =>   1
Atom  11N    basis set group =>   4
Atom  12O    basis set group =>   3
Atom  13C    basis set group =>   1
Atom  14H    basis set group =>   2
Atom  15H    basis set group =>   2
Atom  16H    basis set group =>   2
Atom  17C    basis set group =>   1
Atom  18H    basis set group =>   2
Atom  19H    basis set group =>   2
Atom  20H    basis set group =>   2
Atom  21C    basis set group =>   1
Atom  22H    basis set group =>   2
Atom  23H    basis set group =>   2
Atom  24C    basis set group =>   1
Atom  25C    basis set group =>   1
Atom  26C    basis set group =>   1
Atom  27C    basis set group =>   1
Atom  28C    basis set group =>   1
Atom  29C    basis set group =>   1
Atom  30H    basis set group =>   2
Atom  31C    basis set group =>   1
Atom  32H    basis set group =>   2
Atom  33C    basis set group =>   1
Atom  34C    basis set group =>   1
Atom  35H    basis set group =>   2
Atom  36C    basis set group =>   1
Atom  37H    basis set group =>   2
Atom  38H    basis set group =>   2
Atom  39H    basis set group =>   2
Atom  40H    basis set group =>   2


           ************************************************************
           *        Program running with 4 parallel MPI-processes     *
           *              working on a common directory               *
           ************************************************************
------------------------------------------------------------------------------
                           ORCA GTO INTEGRAL CALCULATION
                           -- RI-GTO INTEGRALS CHOSEN --
------------------------------------------------------------------------------
------------------------------------------------------------------------------
                   ___                                                        
                  /   \      - P O W E R E D   B Y -                         
                 /     \                                                     
                 |  |  |   _    _      __       _____    __    __             
                 |  |  |  | |  | |    /  \     |  _  \  |  |  /  |          
                  \  \/   | |  | |   /    \    | | | |  |  | /  /          
                 / \  \   | |__| |  /  /\  \   | |_| |  |  |/  /          
                |  |  |   |  __  | /  /__\  \  |    /   |      \           
                |  |  |   | |  | | |   __   |  |    \   |  |\   \          
                \     /   | |  | | |  |  |  |  | |\  \  |  | \   \       
                 \___/    |_|  |_| |__|  |__|  |_| \__\ |__|  \__/        
                                                                              
                      - O R C A' S   B I G   F R I E N D -                    
                                      &                                       
                       - I N T E G R A L  F E E D E R -                       
                                                                              
 v1 FN, 2020, v2 2021                                                         
------------------------------------------------------------------------------


Reading SHARK input file Nfnap_water.SHARKINP.tmp ... ok
----------------------
SHARK INTEGRAL PACKAGE
----------------------

Number of atoms                             ...     41
Number of basis functions                   ...    334
Number of shells                            ...    166
Maximum angular momentum                    ...      2
Integral batch strategy                     ... SHARK/LIBINT Hybrid
RI-J (if used) integral strategy            ... SPLIT-RIJ (Revised 2003 algorithm where possible)
Printlevel                                  ...      1
Contraction scheme used                     ... SEGMENTED contraction
Coulomb Range Separation                    ... NOT USED
Exchange Range Separation                   ... NOT USED
Finite Nucleus Model                        ... NOT USED
Auxiliary Coulomb fitting basis             ... AVAILABLE
   # of basis functions in Aux-J            ...   2614
   # of shells in Aux-J                     ...    980
   Maximum angular momentum in Aux-J        ...      3
Auxiliary J/K fitting basis                 ... AVAILABLE
   # of basis functions in Aux-JK           ...   2614
   # of shells in Aux-JK                    ...    980
   Maximum angular momentum in Aux-JK       ...      3
Auxiliary Correlation fitting basis         ... AVAILABLE
   # of basis functions in Aux-C            ...   2614
   # of shells in Aux-C                     ...    980
   Maximum angular momentum in Aux-C        ...      3
Auxiliary 'external' fitting basis          ... NOT available
Integral threshold                          ...     2.500000e-11
Primitive cut-off                           ...     2.500000e-12
Primitive pair pre-selection threshold      ...     2.500000e-12

Calculating pre-screening integrals         ... done (  0.1 sec) Dimension = 166
Organizing shell pair data                  ... done (  1.2 sec)
Shell pair information
Total number of shell pairs                 ...     13861
Shell pairs after pre-screening             ...     11436
Total number of primitive shell pairs       ...     78711
Primitive shell pairs kept                  ...     36077
          la=0 lb=0:   4196 shell pairs
          la=1 lb=0:   3809 shell pairs
          la=1 lb=1:    858 shell pairs
          la=2 lb=0:   1617 shell pairs
          la=2 lb=1:    781 shell pairs
          la=2 lb=2:    175 shell pairs

Calculating one electron integrals          ... done (  0.0 sec)
Calculating RI/J V-Matrix + Cholesky decomp.... done (  2.3 sec)
Calculating RI/JK V-Matrix + Cholesky decomp... done (  0.4 sec)
Calculating RI/C V-Matrix + Cholesky decomp.... done (  0.4 sec)
Calculating Nuclear repulsion               ... done (  0.0 sec) ENN=   1765.257284335167 Eh

SHARK setup successfully completed in   4.9 seconds

Maximum memory used throughout the entire GTOINT-calculation: 56.9 MB


           ************************************************************
           *        Program running with 4 parallel MPI-processes     *
           *              working on a common directory               *
           ************************************************************
-------------------------------------------------------------------------------
                                 ORCA SCF
-------------------------------------------------------------------------------

------------
SCF SETTINGS
------------
Hamiltonian:
 Density Functional     Method          .... DFT(GTOs)
 Exchange Functional    Exchange        .... B88
   X-Alpha parameter    XAlpha          ....  0.666667
   Becke's b parameter  XBeta           ....  0.004200
 Correlation Functional Correlation     .... LYP
 LDA part of GGA corr.  LDAOpt          .... VWN-5
 Gradients option       PostSCFGGA      .... off
 Hybrid DFT is turned on
   Fraction HF Exchange ScalHFX         ....  0.200000
   Scaling of DF-GGA-X  ScalDFX         ....  0.720000
   Scaling of DF-GGA-C  ScalDFC         ....  0.810000
   Scaling of DF-LDA-C  ScalLDAC        ....  1.000000
   Perturbative correction              ....  0.000000
   Density functional embedding theory  .... OFF
   NL short-range parameter             ....  4.800000
 RI-approximation to the Coulomb term is turned on
   Number of AuxJ basis functions       .... 2614
   RIJ-COSX (HFX calculated with COS-X)).... on


General Settings:
 Integral files         IntName         .... Nfnap_water
 Hartree-Fock type      HFTyp           .... RHF
 Total Charge           Charge          ....    0
 Multiplicity           Mult            ....    1
 Number of Electrons    NEL             ....  152
 Basis Dimension        Dim             ....  334
 Nuclear Repulsion      ENuc            ....   1765.2572843352 Eh

Convergence Acceleration:
 DIIS                   CNVDIIS         .... on
   Start iteration      DIISMaxIt       ....    12
   Startup error        DIISStart       ....  0.200000
   # of expansion vecs  DIISMaxEq       ....     5
   Bias factor          DIISBfac        ....   1.050
   Max. coefficient     DIISMaxC        ....  10.000
 Trust-Rad. Augm. Hess. CNVTRAH         .... auto
   Auto Start mean grad. ratio tolernc. ....  1.125000
   Auto Start start iteration           ....    20
   Auto Start num. interpolation iter.  ....    10
   Max. Number of Micro iterations      ....    16
   Max. Number of Macro iterations      .... Maxiter - #DIIS iter
   Number of Davidson start vectors     ....     2
   Converg. threshold I  (grad. norm)   ....   1.000e-05
   Converg. threshold II (energy diff.) ....   1.000e-08
   Grad. Scal. Fac. for Micro threshold ....   0.100
   Minimum threshold for Micro iter.    ....   0.010
   NR start threshold (gradient norm)   ....   0.001
   Initial trust radius                 ....   0.400
   Minimum AH scaling param. (alpha)    ....   1.000
   Maximum AH scaling param. (alpha)    .... 1000.000
   Orbital update algorithm             .... Taylor
   White noise on init. David. guess    .... on
   Maximum white noise                  ....   0.010
   Quad. conv. algorithm                .... NR
 SOSCF                  CNVSOSCF        .... on
   Start iteration      SOSCFMaxIt      ....   150
   Startup grad/error   SOSCFStart      ....  0.003300
 Level Shifting         CNVShift        .... on
   Level shift para.    LevelShift      ....    0.2500
   Turn off err/grad.   ShiftErr        ....    0.0010
 Zerner damping         CNVZerner       .... off
 Static damping         CNVDamp         .... on
   Fraction old density DampFac         ....    0.7000
   Max. Damping (<1)    DampMax         ....    0.9800
   Min. Damping (>=0)   DampMin         ....    0.0000
   Turn off err/grad.   DampErr         ....    0.1000
 Fernandez-Rico         CNVRico         .... off

SCF Procedure:
 Maximum # iterations   MaxIter         ....   125
 SCF integral mode      SCFMode         .... Direct
   Integral package                     .... SHARK and LIBINT hybrid scheme
 Reset frequency        DirectResetFreq ....    20
 Integral Threshold     Thresh          ....  2.500e-11 Eh
 Primitive CutOff       TCut            ....  2.500e-12 Eh

Convergence Tolerance:
 Convergence Check Mode ConvCheckMode   .... Total+1el-Energy
 Convergence forced     ConvForced      .... 0
 Energy Change          TolE            ....  1.000e-08 Eh
 1-El. energy change                    ....  1.000e-05 Eh
 Orbital Gradient       TolG            ....  1.000e-05
 Orbital Rotation angle TolX            ....  1.000e-05
 DIIS Error             TolErr          ....  5.000e-07


Diagonalization of the overlap matrix:
Smallest eigenvalue                        ... 3.028e-04
Time for diagonalization                   ...    0.018 sec
Threshold for overlap eigenvalues          ... 1.000e-08
Number of eigenvalues below threshold      ... 0
Time for construction of square roots      ...    0.011 sec
Total time needed                          ...    0.030 sec

Time for model grid setup =    0.585 sec

------------------------------
INITIAL GUESS: MODEL POTENTIAL
------------------------------
Loading Hartree-Fock densities                     ... done
Calculating cut-offs                               ... done
Initializing the effective Hamiltonian             ... done
Setting up the integral package (SHARK)            ... done
Starting the Coulomb interaction                   ... done (   0.4 sec)
Reading the grid                                   ... done
Mapping shells                                     ... done
Starting the XC term evaluation                    ... done (   0.3 sec)
  promolecular density results
     # of electrons  =    151.987843090
     EX              =   -122.917339639
     EC              =     -5.147292868
     EX+EC           =   -128.064632506
Transforming the Hamiltonian                       ... done (   0.0 sec)
Diagonalizing the Hamiltonian                      ... done (   0.0 sec)
Back transforming the eigenvectors                 ... done (   0.0 sec)
Now organizing SCF variables                       ... done
                      ------------------
                      INITIAL GUESS DONE (   1.4 sec)
                      ------------------
-------------------
DFT GRID GENERATION
-------------------

General Integration Accuracy     IntAcc      ... 4.388
Radial Grid Type                 RadialGrid  ... OptM3 with GC (2021)
Angular Grid (max. ang.)         AngularGrid ... 4 (Lebedev-302)
Angular grid pruning method      GridPruning ... 4 (adaptive)
Weight generation scheme         WeightScheme... Becke
Basis function cutoff            BFCut       ... 1.0000e-11
Integration weight cutoff        WCut        ... 1.0000e-14
Angular grids for H and He will be reduced by one unit
Partially contracted basis set               ... off
Rotationally invariant grid construction     ... off

Total number of grid points                  ...   188115
Total number of batches                      ...     2956
Average number of points per batch           ...       63
Average number of grid points per atom       ...     4588
Time for grid setup =    2.420 sec

--------------------
COSX GRID GENERATION
--------------------

GRIDX 1
-------
General Integration Accuracy     IntAcc      ... 3.816
Radial Grid Type                 RadialGrid  ... OptM3 with GC (2021)
Angular Grid (max. ang.)         AngularGrid ... 1 (Lebedev-50)
Angular grid pruning method      GridPruning ... 4 (adaptive)
Weight generation scheme         WeightScheme... Becke
Basis function cutoff            BFCut       ... 1.0000e-11
Integration weight cutoff        WCut        ... 1.0000e-14
Angular grids for H and He will be reduced by one unit
Partially contracted basis set               ... on
Rotationally invariant grid construction     ... off

Total number of grid points                  ...    23901
Total number of batches                      ...      393
Average number of points per batch           ...       60
Average number of grid points per atom       ...      583
UseSFitting                                  ... on

GRIDX 2
-------
General Integration Accuracy     IntAcc      ... 4.020
Radial Grid Type                 RadialGrid  ... OptM3 with GC (2021)
Angular Grid (max. ang.)         AngularGrid ... 2 (Lebedev-110)
Angular grid pruning method      GridPruning ... 4 (adaptive)
Weight generation scheme         WeightScheme... Becke
Basis function cutoff            BFCut       ... 1.0000e-11
Integration weight cutoff        WCut        ... 1.0000e-14
Angular grids for H and He will be reduced by one unit
Partially contracted basis set               ... on
Rotationally invariant grid construction     ... off

Total number of grid points                  ...    51055
Total number of batches                      ...      820
Average number of points per batch           ...       62
Average number of grid points per atom       ...     1245
UseSFitting                                  ... on

GRIDX 3
-------
General Integration Accuracy     IntAcc      ... 4.338
Radial Grid Type                 RadialGrid  ... OptM3 with GC (2021)
Angular Grid (max. ang.)         AngularGrid ... 3 (Lebedev-194)
Angular grid pruning method      GridPruning ... 4 (adaptive)
Weight generation scheme         WeightScheme... Becke
Basis function cutoff            BFCut       ... 1.0000e-11
Integration weight cutoff        WCut        ... 1.0000e-14
Angular grids for H and He will be reduced by one unit
Partially contracted basis set               ... on
Rotationally invariant grid construction     ... off

Total number of grid points                  ...   111187
Total number of batches                      ...     1756
Average number of points per batch           ...       63
Average number of grid points per atom       ...     2712
UseSFitting                                  ... on

Time for X-Grid setup             =    2.819 sec


--------------------
CPCM SOLVATION MODEL
--------------------
CPCM parameters:
  Epsilon                                         ...      80.4000
  Refrac                                          ...       1.3300
  Rsolv                                           ...       1.3000
  Surface type                                    ... GAUSSIAN VDW
  Epsilon function type                           ...         CPCM
Radii:
 Radius for C  used is    3.8550 Bohr (=   2.0400 Ang.)
 Radius for H  used is    2.4944 Bohr (=   1.3200 Ang.)
 Radius for O  used is    3.4469 Bohr (=   1.8240 Ang.)
 Radius for N  used is    3.5149 Bohr (=   1.8600 Ang.)
Calculating surface                               ...        done! (  0.0s)
GEPOL surface points                              ...         2029
GEPOL Volume                                      ...    2328.7083
GEPOL Surface-area                                ...    1097.8961
Calculating surface distance matrix               ...        done! (  0.0s)
Performing Cholesky decomposition & store         ...        done! (  0.2s)
Overall time for CPCM initialization              ...                 0.3s
--------------
SCF ITERATIONS
--------------
ITER       Energy         Delta-E        Max-DP      RMS-DP      [F,P]     Damp
               ***  Starting incremental Fock matrix formation  ***
  0   -918.7603832092   0.000000000000 0.09511471  0.00172072  0.2699106 0.7000
  1   -918.9907695020  -0.230386292782 0.05426719  0.00116836  0.1084892 0.7000
                               ***Turning on DIIS***
  2   -919.0851232830  -0.094353781056 0.06216379  0.00195367  0.0368918 0.0000
  3   -919.2351488925  -0.150025609502 0.03781753  0.00078292  0.0544345 0.0000
  4   -919.2643665990  -0.029217706454 0.01000827  0.00025141  0.0129437 0.0000
  5   -919.2663961165  -0.002029517522 0.00377751  0.00008071  0.0061587 0.0000
                      *** Initiating the SOSCF procedure ***
                           *** Shutting down DIIS ***
                      *** Re-Reading the Fockian *** 
                      *** Removing any level shift *** 
ITER      Energy       Delta-E        Grad      Rot      Max-DP    RMS-DP
  6   -919.26653582  -0.0001397059  0.000280  0.000280  0.001124  0.000025
               *** Restarting incremental Fock matrix formation ***
  7   -919.26653314   0.0000026854  0.000125  0.000501  0.000917  0.000016
  8   -919.26653253   0.0000006022  0.000257  0.000397  0.000616  0.000007
  9   -919.26653488  -0.0000023423  0.000040  0.000100  0.000253  0.000004
 10   -919.26653472   0.0000001615  0.000084  0.000078  0.000169  0.000002
 11   -919.26653496  -0.0000002432  0.000004  0.000014  0.000019  0.000001
 12   -919.26653495   0.0000000044  0.000004  0.000008  0.000011  0.000000
                  ***Gradient check signals convergence***
              ***Rediagonalizing the Fockian in SOSCF/NRSCF***

               *****************************************************
               *                     SUCCESS                       *
               *           SCF CONVERGED AFTER  13 CYCLES          *
               *****************************************************

Old exchange energy                            =    -25.017558337 Eh
New exchange energy                            =    -25.017603940 Eh
Exchange energy change after final integration =     -0.000045603 Eh
Total energy after final integration           =   -919.266580555 Eh
Final COS-X integration done in                =    21.281 sec

----------------
TOTAL SCF ENERGY
----------------

Total Energy       :         -919.26658055 Eh          -25014.51537 eV

Components:
Nuclear Repulsion  :         1765.25728434 Eh           48035.09276 eV
Electronic Energy  :        -2684.52386489 Eh          -73049.60813 eV
One Electron Energy:        -4756.95714655 Eh         -129443.38473 eV
Two Electron Energy:         2072.43328166 Eh           56393.77660 eV
Max COSX asymmetry :            0.00000361 Eh               0.00010 eV
CPCM Dielectric    :           -0.02231567 Eh              -0.60724 eV

Virial components:
Potential Energy   :        -1833.15858896 Eh          -49882.78120 eV
Kinetic Energy     :          913.89200841 Eh           24868.26583 eV
Virial Ratio       :            2.00588097


DFT components:
N(Alpha)           :       76.000079557672 electrons
N(Beta)            :       76.000079557672 electrons
N(Total)           :      152.000159115344 electrons
E(X)               :      -99.329224600518 Eh       
E(C)               :       -6.059938512605 Eh       
E(XC)              :     -105.389163113123 Eh       
DFET-embed. en.    :        0.000000000000 Eh       
CPCM Solvation Model Properties:
Surface-charge          :           -0.02232286
Charge-correction       :           -0.00016342 Eh              -0.00445 eV
Free-energy (cav+disp)  :  This term is not implemented in the current solvation scheme

---------------
SCF CONVERGENCE
---------------

  Last Energy change         ...    2.3458e-09  Tolerance :   1.0000e-08
  Last MAX-Density change    ...    5.3291e-15  Tolerance :   1.0000e-07
  Last RMS-Density change    ...    4.5365e-17  Tolerance :   5.0000e-09
  Last Orbital Gradient      ...    1.3024e-06  Tolerance :   1.0000e-05
  Last Orbital Rotation      ...    5.1169e-06  Tolerance :   1.0000e-05

             **** THE GBW FILE WAS UPDATED (Nfnap_water.gbw) ****
             **** DENSITY Nfnap_water.scfp WAS UPDATED ****
             **** ENERGY FILE WAS UPDATED (Nfnap_water.en.tmp) ****
             **** THE GBW FILE WAS UPDATED (Nfnap_water.gbw) ****
             **** DENSITY Nfnap_water.scfp WAS UPDATED ****
----------------
ORBITAL ENERGIES
----------------

  NO   OCC          E(Eh)            E(eV) 
   0   2.0000     -19.111978      -520.0634 
   1   2.0000     -19.108643      -519.9726 
   2   2.0000     -14.361376      -390.7929 
   3   2.0000     -14.359550      -390.7432 
   4   2.0000     -10.285076      -279.8711 
   5   2.0000     -10.281580      -279.7760 
   6   2.0000     -10.218044      -278.0471 
   7   2.0000     -10.209113      -277.8041 
   8   2.0000     -10.199025      -277.5296 
   9   2.0000     -10.191338      -277.3204 
  10   2.0000     -10.190764      -277.3048 
  11   2.0000     -10.188463      -277.2422 
  12   2.0000     -10.188331      -277.2386 
  13   2.0000     -10.178812      -276.9795 
  14   2.0000     -10.178392      -276.9681 
  15   2.0000     -10.178294      -276.9655 
  16   2.0000     -10.177870      -276.9539 
  17   2.0000     -10.177605      -276.9467 
  18   2.0000     -10.176771      -276.9240 
  19   2.0000     -10.173708      -276.8407 
  20   2.0000     -10.173344      -276.8308 
  21   2.0000      -1.032541       -28.0969 
  22   2.0000      -1.026695       -27.9378 
  23   2.0000      -0.936685       -25.4885 
  24   2.0000      -0.926905       -25.2224 
  25   2.0000      -0.867660       -23.6102 
  26   2.0000      -0.815612       -22.1939 
  27   2.0000      -0.782109       -21.2823 
  28   2.0000      -0.744470       -20.2581 
  29   2.0000      -0.744208       -20.2509 
  30   2.0000      -0.733667       -19.9641 
  31   2.0000      -0.716715       -19.5028 
  32   2.0000      -0.708889       -19.2899 
  33   2.0000      -0.680669       -18.5219 
  34   2.0000      -0.667690       -18.1688 
  35   2.0000      -0.615297       -16.7431 
  36   2.0000      -0.605866       -16.4864 
  37   2.0000      -0.579156       -15.7596 
  38   2.0000      -0.550635       -14.9836 
  39   2.0000      -0.538672       -14.6580 
  40   2.0000      -0.510073       -13.8798 
  41   2.0000      -0.507046       -13.7974 
  42   2.0000      -0.500687       -13.6244 
  43   2.0000      -0.490976       -13.3601 
  44   2.0000      -0.482955       -13.1419 
  45   2.0000      -0.475234       -12.9318 
  46   2.0000      -0.466778       -12.7017 
  47   2.0000      -0.452467       -12.3122 
  48   2.0000      -0.447169       -12.1681 
  49   2.0000      -0.436583       -11.8800 
  50   2.0000      -0.429352       -11.6833 
  51   2.0000      -0.420027       -11.4295 
  52   2.0000      -0.409857       -11.1528 
  53   2.0000      -0.405306       -11.0289 
  54   2.0000      -0.401331       -10.9208 
  55   2.0000      -0.397773       -10.8239 
  56   2.0000      -0.396356       -10.7854 
  57   2.0000      -0.395755       -10.7690 
  58   2.0000      -0.391719       -10.6592 
  59   2.0000      -0.389965       -10.6115 
  60   2.0000      -0.376760       -10.2522 
  61   2.0000      -0.372506       -10.1364 
  62   2.0000      -0.370380       -10.0785 
  63   2.0000      -0.363252        -9.8846 
  64   2.0000      -0.360564        -9.8114 
  65   2.0000      -0.350411        -9.5352 
  66   2.0000      -0.328708        -8.9446 
  67   2.0000      -0.322652        -8.7798 
  68   2.0000      -0.317833        -8.6487 
  69   2.0000      -0.277909        -7.5623 
  70   2.0000      -0.259494        -7.0612 
  71   2.0000      -0.248505        -6.7622 
  72   2.0000      -0.243519        -6.6265 
  73   2.0000      -0.242782        -6.6064 
  74   2.0000      -0.232727        -6.3328 
  75   2.0000      -0.206190        -5.6107 
  76   0.0000      -0.036314        -0.9882 
  77   0.0000      -0.004937        -0.1343 
  78   0.0000       0.016188         0.4405 
  79   0.0000       0.021129         0.5750 
  80   0.0000       0.034093         0.9277 
  81   0.0000       0.094068         2.5597 
  82   0.0000       0.100857         2.7445 
  83   0.0000       0.110005         2.9934 
  84   0.0000       0.118278         3.2185 
  85   0.0000       0.120497         3.2789 
  86   0.0000       0.139405         3.7934 
  87   0.0000       0.143101         3.8940 
  88   0.0000       0.147974         4.0266 
  89   0.0000       0.154465         4.2032 
  90   0.0000       0.157394         4.2829 
  91   0.0000       0.162635         4.4255 
  92   0.0000       0.164836         4.4854 
  93   0.0000       0.171414         4.6644 
  94   0.0000       0.174401         4.7457 
  95   0.0000       0.182984         4.9792 
  96   0.0000       0.184225         5.0130 
  97   0.0000       0.186311         5.0698 
  98   0.0000       0.192355         5.2342 
  99   0.0000       0.197452         5.3729 
 100   0.0000       0.204959         5.5772 
 101   0.0000       0.206782         5.6268 
 102   0.0000       0.222261         6.0480 
 103   0.0000       0.225894         6.1469 
 104   0.0000       0.227708         6.1963 
 105   0.0000       0.239263         6.5107 
 106   0.0000       0.253519         6.8986 
 107   0.0000       0.257337         7.0025 
 108   0.0000       0.261499         7.1157 
 109   0.0000       0.270028         7.3478 
 110   0.0000       0.286148         7.7865 
 111   0.0000       0.291216         7.9244 
 112   0.0000       0.313716         8.5366 
 113   0.0000       0.322926         8.7873 
 114   0.0000       0.330011         8.9801 
 115   0.0000       0.333961         9.0875 
 116   0.0000       0.358837         9.7645 
 117   0.0000       0.364948         9.9308 
 118   0.0000       0.383975        10.4485 
 119   0.0000       0.402597        10.9552 
 120   0.0000       0.415261        11.2998 
 121   0.0000       0.444467        12.0946 
 122   0.0000       0.470971        12.8158 
 123   0.0000       0.487097        13.2546 
 124   0.0000       0.488570        13.2947 
 125   0.0000       0.495281        13.4773 
 126   0.0000       0.508950        13.8492 
 127   0.0000       0.514289        13.9945 
 128   0.0000       0.520002        14.1500 
 129   0.0000       0.529695        14.4137 
 130   0.0000       0.535956        14.5841 
 131   0.0000       0.545435        14.8421 
 132   0.0000       0.554237        15.0816 
 133   0.0000       0.558992        15.2109 
 134   0.0000       0.570015        15.5109 
 135   0.0000       0.579204        15.7610 
 136   0.0000       0.584737        15.9115 
 137   0.0000       0.597802        16.2670 
 138   0.0000       0.602873        16.4050 
 139   0.0000       0.605643        16.4804 
 140   0.0000       0.615397        16.7458 
 141   0.0000       0.621620        16.9151 
 142   0.0000       0.622334        16.9346 
 143   0.0000       0.625222        17.0132 
 144   0.0000       0.628796        17.1104 
 145   0.0000       0.635157        17.2835 
 146   0.0000       0.639101        17.3908 
 147   0.0000       0.645632        17.5685 
 148   0.0000       0.654764        17.8170 
 149   0.0000       0.662000        18.0139 
 150   0.0000       0.669742        18.2246 
 151   0.0000       0.672386        18.2966 
 152   0.0000       0.682885        18.5822 
 153   0.0000       0.690468        18.7886 
 154   0.0000       0.701809        19.0972 
 155   0.0000       0.717429        19.5222 
 156   0.0000       0.723259        19.6809 
 157   0.0000       0.731759        19.9122 
 158   0.0000       0.754885        20.5415 
 159   0.0000       0.763051        20.7637 
 160   0.0000       0.778225        21.1766 
 161   0.0000       0.787041        21.4165 
 162   0.0000       0.806517        21.9464 
 163   0.0000       0.819952        22.3120 
 164   0.0000       0.830428        22.5971 
 165   0.0000       0.833590        22.6831 
 166   0.0000       0.841699        22.9038 
 167   0.0000       0.843237        22.9456 
 168   0.0000       0.850018        23.1302 
 169   0.0000       0.852291        23.1920 
 170   0.0000       0.860383        23.4122 
 171   0.0000       0.866813        23.5872 
 172   0.0000       0.875196        23.8153 
 173   0.0000       0.880898        23.9704 
 174   0.0000       0.883762        24.0484 
 175   0.0000       0.891757        24.2659 
 176   0.0000       0.898146        24.4398 
 177   0.0000       0.901739        24.5376 
 178   0.0000       0.909586        24.7511 
 179   0.0000       0.912626        24.8338 
 180   0.0000       0.925763        25.1913 
 181   0.0000       0.933733        25.4082 
 182   0.0000       0.940898        25.6031 
 183   0.0000       0.949668        25.8418 
 184   0.0000       0.956621        26.0310 
 185   0.0000       0.966023        26.2868 
 186   0.0000       0.971875        26.4461 
 187   0.0000       0.982207        26.7272 
 188   0.0000       0.988318        26.8935 
 189   0.0000       0.997452        27.1420 
 190   0.0000       1.014871        27.6160 
 191   0.0000       1.020104        27.7584 
 192   0.0000       1.039382        28.2830 
 193   0.0000       1.047488        28.5036 
 194   0.0000       1.054309        28.6892 
 195   0.0000       1.073250        29.2046 
 196   0.0000       1.075513        29.2662 
 197   0.0000       1.085555        29.5394 
 198   0.0000       1.091756        29.7082 
 199   0.0000       1.097126        29.8543 
 200   0.0000       1.109629        30.1945 
 201   0.0000       1.125608        30.6293 
 202   0.0000       1.138022        30.9672 
 203   0.0000       1.151528        31.3347 
 204   0.0000       1.176738        32.0207 
 205   0.0000       1.195377        32.5279 
 206   0.0000       1.200965        32.6799 
 207   0.0000       1.210331        32.9348 
 208   0.0000       1.219584        33.1866 
 209   0.0000       1.244568        33.8664 
 210   0.0000       1.251449        34.0537 
 211   0.0000       1.262339        34.3500 
 212   0.0000       1.287172        35.0257 
 213   0.0000       1.294721        35.2311 
 214   0.0000       1.305416        35.5222 
 215   0.0000       1.327698        36.1285 
 216   0.0000       1.356372        36.9087 
 217   0.0000       1.373541        37.3760 
 218   0.0000       1.388477        37.7824 
 219   0.0000       1.411443        38.4073 
 220   0.0000       1.420681        38.6587 
 221   0.0000       1.423371        38.7319 
 222   0.0000       1.441626        39.2286 
 223   0.0000       1.447584        39.3908 
 224   0.0000       1.459546        39.7163 
 225   0.0000       1.466824        39.9143 
 226   0.0000       1.476032        40.1649 
 227   0.0000       1.487909        40.4881 
 228   0.0000       1.496246        40.7149 
 229   0.0000       1.505247        40.9599 
 230   0.0000       1.516859        41.2758 
 231   0.0000       1.533001        41.7151 
 232   0.0000       1.534305        41.7506 
 233   0.0000       1.541328        41.9417 
 234   0.0000       1.585328        43.1390 
 235   0.0000       1.591380        43.3036 
 236   0.0000       1.628954        44.3261 
 237   0.0000       1.633707        44.4554 
 238   0.0000       1.678926        45.6859 
 239   0.0000       1.681785        45.7637 
 240   0.0000       1.738118        47.2966 
 241   0.0000       1.749506        47.6065 
 242   0.0000       1.760756        47.9126 
 243   0.0000       1.781126        48.4669 
 244   0.0000       1.784937        48.5706 
 245   0.0000       1.806645        49.1613 
 246   0.0000       1.814856        49.3847 
 247   0.0000       1.823081        49.6086 
 248   0.0000       1.832317        49.8599 
 249   0.0000       1.851040        50.3694 
 250   0.0000       1.857726        50.5513 
 251   0.0000       1.868455        50.8432 
 252   0.0000       1.893159        51.5155 
 253   0.0000       1.904714        51.8299 
 254   0.0000       1.915631        52.1270 
 255   0.0000       1.925729        52.4017 
 256   0.0000       1.928656        52.4814 
 257   0.0000       1.933491        52.6130 
 258   0.0000       1.939527        52.7772 
 259   0.0000       1.948334        53.0169 
 260   0.0000       1.957659        53.2706 
 261   0.0000       1.961726        53.3813 
 262   0.0000       1.975896        53.7669 
 263   0.0000       1.981986        53.9326 
 264   0.0000       2.000180        54.4277 
 265   0.0000       2.002016        54.4776 
 266   0.0000       2.024709        55.0951 
 267   0.0000       2.028187        55.1898 
 268   0.0000       2.044345        55.6295 
 269   0.0000       2.060398        56.0663 
 270   0.0000       2.071309        56.3632 
 271   0.0000       2.072484        56.3951 
 272   0.0000       2.095951        57.0337 
 273   0.0000       2.107778        57.3556 
 274   0.0000       2.114095        57.5275 
 275   0.0000       2.126088        57.8538 
 276   0.0000       2.137998        58.1779 
 277   0.0000       2.156821        58.6901 
 278   0.0000       2.191016        59.6206 
 279   0.0000       2.198498        59.8242 
 280   0.0000       2.201421        59.9037 
 281   0.0000       2.212252        60.1984 
 282   0.0000       2.215222        60.2792 
 283   0.0000       2.222761        60.4844 
 284   0.0000       2.253259        61.3143 
 285   0.0000       2.267138        61.6920 
 286   0.0000       2.278414        61.9988 
 287   0.0000       2.287341        62.2417 
 288   0.0000       2.297823        62.5269 
 289   0.0000       2.311397        62.8963 
 290   0.0000       2.324345        63.2486 
 291   0.0000       2.329798        63.3970 
 292   0.0000       2.333789        63.5056 
 293   0.0000       2.345137        63.8144 
 294   0.0000       2.360753        64.2393 
[...]
 10:     79.12   0.000356    1.80  0.001403  (-0.027486  0.016397 -0.019462)
 11:     99.76   0.001303    6.59  0.004076  ( 0.004096 -0.046783  0.043255)
 12:    109.07   0.000588    2.97  0.001684  (-0.012991  0.026823 -0.028204)
 13:    120.75   0.001902    9.61  0.004915  ( 0.046149 -0.040500 -0.033835)
 14:    133.76   0.000091    0.46  0.000212  (-0.007810  0.011644 -0.003895)
 15:    155.54   0.000155    0.78  0.000310  (-0.010464 -0.008034  0.011661)
 16:    166.01   0.000309    1.56  0.000582  ( 0.022371 -0.008591  0.002742)
 17:    186.52   0.000177    0.89  0.000296  ( 0.007063  0.008542 -0.013157)
 18:    194.94   0.000573    2.89  0.000917  (-0.026017  0.004035 -0.014954)
 19:    206.29   0.000357    1.81  0.000541  ( 0.018941 -0.010804 -0.008075)
 20:    252.44   0.000123    0.62  0.000151  (-0.004221 -0.011560  0.000008)
 21:    259.69   0.003862   19.52  0.004641  (-0.044901  0.040110 -0.031874)
 22:    279.21   0.001849    9.35  0.002067  (-0.007973 -0.039207  0.021592)
 23:    312.20   0.000238    1.20  0.000238  ( 0.002647  0.002766  0.014936)
 24:    346.15   0.005875   29.69  0.005296  ( 0.058772 -0.008712 -0.042024)
 25:    386.85   0.001906    9.63  0.001538  ( 0.020413  0.011787  0.031340)
 26:    412.45   0.000371    1.88  0.000281  ( 0.003500 -0.007728 -0.014460)
 27:    420.32   0.001318    6.66  0.000979  ( 0.030466 -0.003220  0.006349)
 28:    433.29   0.002302   11.64  0.001658  (-0.027389 -0.026531  0.014288)
 29:    457.29   0.000719    3.63  0.000491  (-0.021001 -0.002590  0.006542)
 30:    479.58   0.000263    1.33  0.000171  ( 0.000474 -0.009840  0.008616)
 31:    495.27   0.004527   22.88  0.002852  ( 0.048909 -0.020396  0.006655)
 32:    504.32   0.002850   14.41  0.001764  ( 0.011407 -0.031417  0.025430)
 33:    517.94   0.000673    3.40  0.000406  (-0.013353  0.012729 -0.008085)
 34:    556.52   0.000959    4.84  0.000538  ( 0.017982  0.000536 -0.014627)
 35:    568.03   0.004718   23.84  0.002592  ( 0.028276  0.038760  0.017024)
 36:    593.93   0.001190    6.01  0.000625  (-0.012183 -0.004851  0.021294)
 37:    619.81   0.000409    2.07  0.000206  (-0.013298  0.004171  0.003419)
 38:    623.68   0.004504   22.76  0.002254  (-0.035480  0.003774  0.031316)
 39:    662.76   0.001781    9.00  0.000839  (-0.015359 -0.009219  0.022753)
 40:    699.66   0.003594   18.16  0.001603  ( 0.029620 -0.001597  0.026894)
 41:    735.00   0.001326    6.70  0.000563  ( 0.010115 -0.021386  0.001796)
 42:    747.53   0.001349    6.82  0.000563  (-0.000525  0.011112 -0.020960)
 43:    757.58   0.002800   14.15  0.001153  (-0.012185 -0.005729  0.031178)
 44:    795.29   0.006155   31.11  0.002415  (-0.003452  0.035736 -0.033560)
 45:    802.34   0.000313    1.58  0.000122  ( 0.001870 -0.006140  0.008964)
 46:    814.30   0.019684   99.47  0.007543  ( 0.017653 -0.044787  0.072291)
 47:    831.99   0.003147   15.90  0.001180  (-0.009301  0.006662  0.032394)
 48:    873.87   0.000216    1.09  0.000077  ( 0.002790  0.007055 -0.004421)
 49:    876.04   0.001370    6.92  0.000488  (-0.014635  0.016530  0.000753)
 50:    925.97   0.001997   10.09  0.000673  (-0.020621 -0.012631 -0.009400)
 51:    948.09   0.000782    3.95  0.000257  ( 0.009689  0.012504 -0.002652)
 52:    955.59   0.000661    3.34  0.000216  ( 0.004677  0.005078  0.012967)
 53:    973.75   0.001688    8.53  0.000541  ( 0.019899 -0.010895  0.005118)
 54:    988.11   0.000104    0.53  0.000033  (-0.001896  0.001725 -0.005133)
 55:    993.92   0.004756   24.04  0.001493  ( 0.031053  0.021935  0.006921)
 56:    995.59   0.000311    1.57  0.000098  (-0.004142  0.006727 -0.005925)
 57:   1008.84   0.011722   59.24  0.003626  ( 0.043944 -0.000615 -0.041163)
 58:   1042.71   0.006999   35.37  0.002095  ( 0.023190  0.038671  0.007847)
 59:   1060.06   0.000438    2.22  0.000129  (-0.008341  0.000695 -0.007681)
 60:   1062.17   0.002099   10.61  0.000617  (-0.010776  0.008073  0.020869)
 61:   1088.06   0.001712    8.65  0.000491  (-0.019270 -0.010781 -0.001884)
 62:   1104.55   0.002552   12.90  0.000721  ( 0.002322  0.021956  0.015280)
 63:   1114.62   0.000452    2.29  0.000127  ( 0.002730  0.002574 -0.010608)
 64:   1135.87   0.000309    1.56  0.000085  ( 0.002015 -0.006637 -0.006062)
 65:   1173.16   0.000291    1.47  0.000077  ( 0.005441  0.000071 -0.006917)
 66:   1180.28   0.000349    1.76  0.000092  (-0.004166 -0.004167 -0.007579)
 67:   1188.83   0.011800   59.63  0.003097  (-0.003018 -0.016596 -0.053037)
 68:   1189.90   0.000256    1.29  0.000067  (-0.005431 -0.004409 -0.004271)
 69:   1197.37   0.000508    2.57  0.000132  (-0.004995  0.007938  0.006668)
 70:   1209.18   0.010000   50.54  0.002581  (-0.025691  0.038595  0.020765)
 71:   1248.85   0.000819    4.14  0.000205  (-0.007368 -0.009233 -0.008077)
 72:   1271.90   0.016089   81.31  0.003948  ( 0.062591  0.005412 -0.000839)
 73:   1273.81   0.026132  132.06  0.006402  ( 0.058770  0.053959  0.006035)
 74:   1290.92   0.016702   84.40  0.004037  ( 0.056409  0.014786 -0.025237)
 75:   1293.33   0.003434   17.35  0.000829  ( 0.026724 -0.009896 -0.004052)
 76:   1321.93   0.014606   73.81  0.003448  ( 0.056698 -0.000187  0.015270)
 77:   1376.97   0.006469   32.69  0.001466  (-0.030694  0.016415  0.015953)
 78:   1391.41   0.001714    8.66  0.000385  ( 0.003485  0.006577  0.018142)
 79:   1403.61   0.007240   36.59  0.001610  (-0.028898 -0.027576  0.003773)
 80:   1409.41   0.004858   24.55  0.001076  (-0.020021 -0.022957  0.012155)
 81:   1417.90   0.009617   48.60  0.002117  (-0.044738 -0.005323 -0.009313)
 82:   1438.27   0.000978    4.94  0.000212  (-0.013356  0.005127  0.002736)
 83:   1443.11   0.018772   94.87  0.004059  (-0.034091  0.010689  0.052753)
 84:   1456.98   0.022074  111.55  0.004728  ( 0.065677  0.005226 -0.019674)
 85:   1475.48   0.035342  178.60  0.007475  ( 0.071814  0.041301  0.024732)
 86:   1486.63   0.002276   11.50  0.000478  ( 0.010192 -0.019334  0.000268)
 87:   1487.81   0.001821    9.20  0.000382  ( 0.013311  0.007083 -0.012437)
 88:   1491.38   0.002150   10.86  0.000450  (-0.000067  0.020791 -0.004189)
 89:   1499.35   0.004919   24.86  0.001024  ( 0.027265  0.000139  0.016742)
 90:   1500.04   0.004103   20.73  0.000853  ( 0.021264  0.000923  0.020012)
 91:   1503.94   0.003495   17.66  0.000725  (-0.001153 -0.006350 -0.026146)
 92:   1507.60   0.005412   27.35  0.001120  ( 0.019928 -0.020512  0.017390)
 93:   1509.51   0.001235    6.24  0.000255  (-0.015418 -0.003730  0.001929)
 94:   1514.01   0.003673   18.56  0.000757  ( 0.002691 -0.021751  0.016638)
 95:   1528.90   0.001015    5.13  0.000207  (-0.012837  0.001916 -0.006223)
 96:   1555.65   0.016113   81.43  0.003232  ( 0.029595 -0.006141 -0.048153)
 97:   1567.96   0.002370   11.98  0.000472  ( 0.008722  0.016026  0.011779)
 98:   1631.30   0.000476    2.41  0.000091  (-0.006518  0.006744  0.001765)
 99:   1652.43   0.002984   15.08  0.000564  (-0.009179  0.019825  0.009292)
100:   1679.16   0.000121    0.61  0.000022  ( 0.000119  0.002287 -0.004148)
101:   1707.09   0.113294  572.54  0.020711  (-0.053206 -0.132813  0.015509)
102:   1716.37   0.106079  536.08  0.019287  ( 0.030571  0.075766  0.112302)
103:   3046.06   0.010095   51.02  0.001034  ( 0.020343  0.013353 -0.021025)
104:   3058.26   0.014469   73.12  0.001476  (-0.003143 -0.012841 -0.036078)
105:   3063.96   0.000794    4.01  0.000081  (-0.003703  0.004323 -0.006960)
106:   3073.26   0.007728   39.05  0.000785  ( 0.006487 -0.024582 -0.011761)
107:   3106.78   0.005177   26.16  0.000520  (-0.006910 -0.002726 -0.021559)
108:   3108.55   0.011153   56.36  0.001120  ( 0.010475 -0.029908  0.010743)
109:   3112.56   0.000878    4.44  0.000088  ( 0.003545  0.002941 -0.008175)
110:   3126.45   0.002063   10.43  0.000206  (-0.006734  0.003202  0.012262)
111:   3155.94   0.001835    9.27  0.000181  (-0.001587  0.011738  0.006413)
112:   3163.91   0.001714    8.66  0.000169  ( 0.005820  0.002105  0.011435)
113:   3170.49   0.003211   16.23  0.000316  (-0.012476 -0.012158  0.003541)
114:   3182.94   0.000260    1.31  0.000025  (-0.001158  0.003800  0.003115)
115:   3185.42   0.001274    6.44  0.000125  ( 0.010830  0.000142 -0.002738)
116:   3193.34   0.004698   23.74  0.000459  ( 0.009667 -0.012530 -0.014444)
117:   3199.82   0.000558    2.82  0.000054  (-0.006064 -0.002511 -0.003364)
118:   3201.54   0.007822   39.53  0.000762  (-0.003389  0.020672  0.017988)
119:   3208.28   0.010270   51.90  0.000999  (-0.030210 -0.008997 -0.002310)
120:   3208.78   0.003339   16.87  0.000325  (-0.017907  0.001775  0.000929)
121:   3217.53   0.002089   10.56  0.000203  ( 0.001742  0.012157  0.007196)
122:   3242.52   0.003990   20.16  0.000384  ( 0.007346 -0.011825 -0.013790)

* The epsilon (eps) is given for a Dirac delta lineshape.
** The dipole moment derivative (T) already includes vibrational overlap.

The first frequency considered to be a vibration is 6
The total number of vibrations considered is 117


--------------------------
THERMOCHEMISTRY AT 298.15K
--------------------------

Temperature         ... 298.15 K
Pressure            ... 1.00 atm
Total Mass          ... 284.36 AMU

Throughout the following assumptions are being made:
  (1) The electronic state is orbitally nondegenerate
  (2) There are no thermally accessible electronically excited states
  (3) Hindered rotations indicated by low frequency modes are not
      treated as such but are treated as vibrations and this may
      cause some error
  (4) All equations used are the standard statistical mechanics
      equations for an ideal gas
  (5) All vibrations are strictly harmonic

freq.      26.27  E(vib)   ...       0.56 
freq.      42.20  E(vib)   ...       0.53 
freq.      51.15  E(vib)   ...       0.52 
freq.      66.94  E(vib)   ...       0.50 
freq.      79.12  E(vib)   ...       0.49 
freq.      99.76  E(vib)   ...       0.46 
freq.     109.07  E(vib)   ...       0.45 
freq.     120.75  E(vib)   ...       0.44 
freq.     133.76  E(vib)   ...       0.42 
freq.     155.54  E(vib)   ...       0.40 
freq.     166.01  E(vib)   ...       0.39 
freq.     186.52  E(vib)   ...       0.37 
freq.     194.94  E(vib)   ...       0.36 
freq.     206.29  E(vib)   ...       0.35 
freq.     252.44  E(vib)   ...       0.30 
freq.     259.69  E(vib)   ...       0.30 
freq.     279.21  E(vib)   ...       0.28 
freq.     312.20  E(vib)   ...       0.25 
freq.     346.15  E(vib)   ...       0.23 
freq.     386.85  E(vib)   ...       0.20 
freq.     412.45  E(vib)   ...       0.19 
freq.     420.32  E(vib)   ...       0.18 
freq.     433.29  E(vib)   ...       0.17 
freq.     457.29  E(vib)   ...       0.16 
freq.     479.58  E(vib)   ...       0.15 
freq.     495.27  E(vib)   ...       0.14 
freq.     504.32  E(vib)   ...       0.14 
freq.     517.94  E(vib)   ...       0.13 
freq.     556.52  E(vib)   ...       0.12 
freq.     568.03  E(vib)   ...       0.11 
freq.     593.93  E(vib)   ...       0.10 
freq.     619.81  E(vib)   ...       0.09 
freq.     623.68  E(vib)   ...       0.09 
freq.     662.76  E(vib)   ...       0.08 
freq.     699.66  E(vib)   ...       0.07 
freq.     735.00  E(vib)   ...       0.06 
freq.     747.53  E(vib)   ...       0.06 
freq.     757.58  E(vib)   ...       0.06 
freq.     795.29  E(vib)   ...       0.05 
freq.     802.34  E(vib)   ...       0.05 
freq.     814.30  E(vib)   ...       0.05 
freq.     831.99  E(vib)   ...       0.04 
freq.     873.87  E(vib)   ...       0.04 
freq.     876.04  E(vib)   ...       0.04 
freq.     925.97  E(vib)   ...       0.03 
freq.     948.09  E(vib)   ...       0.03 
freq.     955.59  E(vib)   ...       0.03 
freq.     973.75  E(vib)   ...       0.03 
freq.     988.11  E(vib)   ...       0.02 
freq.     993.92  E(vib)   ...       0.02 
freq.     995.59  E(vib)   ...       0.02 
freq.    1008.84  E(vib)   ...       0.02 
freq.    1042.71  E(vib)   ...       0.02 
freq.    1060.06  E(vib)   ...       0.02 
freq.    1062.17  E(vib)   ...       0.02 
freq.    1088.06  E(vib)   ...       0.02 
freq.    1104.55  E(vib)   ...       0.02 
freq.    1114.62  E(vib)   ...       0.01 
freq.    1135.87  E(vib)   ...       0.01 
freq.    1173.16  E(vib)   ...       0.01 
freq.    1180.28  E(vib)   ...       0.01 
freq.    1188.83  E(vib)   ...       0.01 
freq.    1189.90  E(vib)   ...       0.01 
freq.    1197.37  E(vib)   ...       0.01 
freq.    1209.18  E(vib)   ...       0.01 
freq.    1248.85  E(vib)   ...       0.01 
freq.    1271.90  E(vib)   ...       0.01 
freq.    1273.81  E(vib)   ...       0.01 
freq.    1290.92  E(vib)   ...       0.01 
freq.    1293.33  E(vib)   ...       0.01 
freq.    1321.93  E(vib)   ...       0.01 
freq.    1376.97  E(vib)   ...       0.01 
freq.    1391.41  E(vib)   ...       0.00 
freq.    1403.61  E(vib)   ...       0.00 
freq.    1409.41  E(vib)   ...       0.00 
freq.    1417.90  E(vib)   ...       0.00 
freq.    1438.27  E(vib)   ...       0.00 
freq.    1443.11  E(vib)   ...       0.00 
freq.    1456.98  E(vib)   ...       0.00 
freq.    1475.48  E(vib)   ...       0.00 
freq.    1486.63  E(vib)   ...       0.00 
freq.    1487.81  E(vib)   ...       0.00 
freq.    1491.38  E(vib)   ...       0.00 
freq.    1499.35  E(vib)   ...       0.00 
freq.    1500.04  E(vib)   ...       0.00 
freq.    1503.94  E(vib)   ...       0.00 
freq.    1507.60  E(vib)   ...       0.00 
freq.    1509.51  E(vib)   ...       0.00 
freq.    1514.01  E(vib)   ...       0.00 
freq.    1528.90  E(vib)   ...       0.00 
freq.    1555.65  E(vib)   ...       0.00 
freq.    1567.96  E(vib)   ...       0.00 
freq.    1631.30  E(vib)   ...       0.00 
freq.    1652.43  E(vib)   ...       0.00 
freq.    1679.16  E(vib)   ...       0.00 
freq.    1707.09  E(vib)   ...       0.00 
freq.    1716.37  E(vib)   ...       0.00 
freq.    3046.06  E(vib)   ...       0.00 
freq.    3058.26  E(vib)   ...       0.00 
freq.    3063.96  E(vib)   ...       0.00 
freq.    3073.26  E(vib)   ...       0.00 
freq.    3106.78  E(vib)   ...       0.00 
freq.    3108.55  E(vib)   ...       0.00 
freq.    3112.56  E(vib)   ...       0.00 
freq.    3126.45  E(vib)   ...       0.00 
freq.    3155.94  E(vib)   ...       0.00 
freq.    3163.91  E(vib)   ...       0.00 
freq.    3170.49  E(vib)   ...       0.00 
freq.    3182.94  E(vib)   ...       0.00 
freq.    3185.42  E(vib)   ...       0.00 
freq.    3193.34  E(vib)   ...       0.00 
freq.    3199.82  E(vib)   ...       0.00 
freq.    3201.54  E(vib)   ...       0.00 
freq.    3208.28  E(vib)   ...       0.00 
freq.    3208.78  E(vib)   ...       0.00 
freq.    3217.53  E(vib)   ...       0.00 
freq.    3242.52  E(vib)   ...       0.00 

------------
INNER ENERGY
------------

The inner energy is: U= E(el) + E(ZPE) + E(vib) + E(rot) + E(trans)
    E(el)   - is the total energy from the electronic structure calculation
              = E(kin-el) + E(nuc-el) + E(el-el) + E(nuc-nuc)
    E(ZPE)  - the the zero temperature vibrational energy from the frequency calculation
    E(vib)  - the the finite temperature correction to E(ZPE) due to population
              of excited vibrational states
    E(rot)  - is the rotational thermal energy
    E(trans)- is the translational thermal energy

Summary of contributions to the inner energy U:
Electronic energy                ...   -919.36348941 Eh
Zero point energy                ...      0.34484555 Eh     216.39 kcal/mol
Thermal vibrational correction   ...      0.01702656 Eh      10.68 kcal/mol
Thermal rotational correction    ...      0.00141627 Eh       0.89 kcal/mol
Thermal translational correction ...      0.00141627 Eh       0.89 kcal/mol
-----------------------------------------------------------------------
Total thermal energy                   -918.99878475 Eh


Summary of corrections to the electronic energy:
(perhaps to be used in another calculation)
Total thermal correction                  0.01985910 Eh      12.46 kcal/mol
Non-thermal (ZPE) correction              0.34484555 Eh     216.39 kcal/mol
-----------------------------------------------------------------------
Total correction                          0.36470465 Eh     228.86 kcal/mol


--------
ENTHALPY
--------

The enthalpy is H = U + kB*T
                kB is Boltzmann's constant
Total free energy                 ...   -918.99878475 Eh 
Thermal Enthalpy correction       ...      0.00094421 Eh       0.59 kcal/mol
-----------------------------------------------------------------------
Total Enthalpy                    ...   -918.99784054 Eh


Note: Only C1 symmetry has been detected, increase convergence thresholds 
      if your molecule has a higher symmetry. Symmetry factor of 1.0 is   
      used for the rotational entropy correction. 
 

Note: Rotational entropy computed according to Herzberg 
Infrared and Raman Spectra, Chapter V,1, Van Nostrand Reinhold, 1945 
Point Group:  C1, Symmetry Number:   1  
Rotational constants in cm-1:     0.017075     0.008828     0.007654 

Vibrational entropy computed according to the QRRHO of S. Grimme
Chem.Eur.J. 2012 18 9955


-------
ENTROPY
-------

The entropy contributions are T*S = T*(S(el)+S(vib)+S(rot)+S(trans))
     S(el)   - electronic entropy
     S(vib)  - vibrational entropy
     S(rot)  - rotational entropy
     S(trans)- translational entropy
The entropies will be listed as multiplied by the temperature to get
units of energy

Electronic entropy                ...      0.00000000 Eh      0.00 kcal/mol
Vibrational entropy               ...      0.03008951 Eh     18.88 kcal/mol
Rotational entropy                ...      0.01596545 Eh     10.02 kcal/mol
Translational entropy             ...      0.02035134 Eh     12.77 kcal/mol
-----------------------------------------------------------------------
Final entropy term                ...      0.06640630 Eh     41.67 kcal/mol

In case the symmetry of your molecule has not been determined correctly
or in case you have a reason to use a different symmetry number we print 
out the resulting rotational entropy values for sn=1,12 :
 --------------------------------------------------------
|  sn= 1 | S(rot)=       0.01596545 Eh     10.02 kcal/mol|
|  sn= 2 | S(rot)=       0.01531099 Eh      9.61 kcal/mol|
|  sn= 3 | S(rot)=       0.01492816 Eh      9.37 kcal/mol|
|  sn= 4 | S(rot)=       0.01465653 Eh      9.20 kcal/mol|
|  sn= 5 | S(rot)=       0.01444585 Eh      9.06 kcal/mol|
|  sn= 6 | S(rot)=       0.01427370 Eh      8.96 kcal/mol|
|  sn= 7 | S(rot)=       0.01412816 Eh      8.87 kcal/mol|
|  sn= 8 | S(rot)=       0.01400208 Eh      8.79 kcal/mol|
|  sn= 9 | S(rot)=       0.01389087 Eh      8.72 kcal/mol|
|  sn=10 | S(rot)=       0.01379139 Eh      8.65 kcal/mol|
|  sn=11 | S(rot)=       0.01370140 Eh      8.60 kcal/mol|
|  sn=12 | S(rot)=       0.01361925 Eh      8.55 kcal/mol|
 --------------------------------------------------------


-------------------
GIBBS FREE ENERGY
-------------------

The Gibbs free energy is G = H - T*S

Total enthalpy                    ...   -918.99784054 Eh 
Total entropy correction          ...     -0.06640630 Eh    -41.67 kcal/mol
-----------------------------------------------------------------------
Final Gibbs free energy         ...   -919.06424684 Eh

For completeness - the Gibbs free energy minus the electronic energy
G-E(el)                           ...      0.29924256 Eh    187.78 kcal/mol


Timings for individual modules:

Sum of individual times         ...     5862.395 sec (=  97.707 min)
GTO integral calculation        ...       59.229 sec (=   0.987 min)   1.0 %
SCF iterations                  ...     3396.288 sec (=  56.605 min)  57.9 %
SCF Gradient evaluation         ...     1055.424 sec (=  17.590 min)  18.0 %
Geometry relaxation             ...        3.537 sec (=   0.059 min)   0.1 %
Analytical frequency calculation...     1347.917 sec (=  22.465 min)  23.0 %
                             ****ORCA TERMINATED NORMALLY****
TOTAL RUN TIME: 0 days 1 hours 37 minutes 56 seconds 178 msec
