
                                 *****************
                                 * O   R   C   A *
                                 *****************

                                            #,                                       
                                            ###                                      
                                            ####                                     
                                            #####                                    
                                            ######                                   
                                           ########,                                 
                                     ,,################,,,,,                         
                               ,,#################################,,                 
                          ,,##########################################,,             
                       ,#########################################, ''#####,          
                    ,#############################################,,   '####,        
                  ,##################################################,,,,####,       
                ,###########''''           ''''###############################       
              ,#####''   ,,,,##########,,,,          '''####'''          '####       
            ,##' ,,,,###########################,,,                        '##       
           ' ,,###''''                  '''############,,,                           
         ,,##''                                '''############,,,,        ,,,,,,###''
      ,#''                                            '''#######################'''  
     '                                                          ''''####''''         
             ,#######,   #######,   ,#######,      ##                                
            ,#'     '#,  ##    ##  ,#'     '#,    #''#        ######   ,####,        
            ##       ##  ##   ,#'  ##            #'  '#       #        #'  '#        
            ##       ##  #######   ##           ,######,      #####,   #    #        
            '#,     ,#'  ##    ##  '#,     ,#' ,#      #,         ##   #,  ,#        
             '#######'   ##     ##  '#######'  #'      '#     #####' # '####'        



                  #######################################################
                  #                        -***-                        #
                  #          Department of theory and spectroscopy      #
                  #    Directorship and core code : Frank Neese         #
                  #        Max Planck Institute fuer Kohlenforschung    #
                  #                Kaiser Wilhelm Platz 1               #
                  #                 D-45470 Muelheim/Ruhr               #
                  #                      Germany                        #
                  #                                                     #
                  #                  All rights reserved                #
                  #                        -***-                        #
                  #######################################################


                         Program Version 5.0.4 -  RELEASE  -


 With contributions from (in alphabetic order):
   Daniel Aravena         : Magnetic Suceptibility
   Michael Atanasov       : Ab Initio Ligand Field Theory (pilot matlab implementation)
   Alexander A. Auer      : GIAO ZORA, VPT2 properties, NMR spectrum
   Ute Becker             : Parallelization
   Giovanni Bistoni       : ED, misc. LED, open-shell LED, HFLD
   Martin Brehm           : Molecular dynamics
   Dmytro Bykov           : SCF Hessian
   Vijay G. Chilkuri      : MRCI spin determinant printing, contributions to CSF-ICE
   Dipayan Datta          : RHF DLPNO-CCSD density
   Achintya Kumar Dutta   : EOM-CC, STEOM-CC
   Dmitry Ganyushin       : Spin-Orbit,Spin-Spin,Magnetic field MRCI
   Miquel Garcia          : C-PCM and meta-GGA Hessian, CC/C-PCM, Gaussian charge scheme
   Yang Guo               : DLPNO-NEVPT2, F12-NEVPT2, CIM, IAO-localization
   Andreas Hansen         : Spin unrestricted coupled pair/coupled cluster methods
   Benjamin Helmich-Paris : MC-RPA, TRAH-SCF, COSX integrals
   Lee Huntington         : MR-EOM, pCC
   Robert Izsak           : Overlap fitted RIJCOSX, COSX-SCS-MP3, EOM
   Marcus Kettner         : VPT2
   Christian Kollmar      : KDIIS, OOCD, Brueckner-CCSD(T), CCSD density, CASPT2, CASPT2-K
   Simone Kossmann        : Meta GGA functionals, TD-DFT gradient, OOMP2, MP2 Hessian
   Martin Krupicka        : Initial AUTO-CI
   Lucas Lang             : DCDCAS
   Marvin Lechner         : AUTO-CI (C++ implementation), FIC-MRCC
   Dagmar Lenk            : GEPOL surface, SMD
   Dimitrios Liakos       : Extrapolation schemes; Compound Job, initial MDCI parallelization
   Dimitrios Manganas     : Further ROCIS development; embedding schemes
   Dimitrios Pantazis     : SARC Basis sets
   Anastasios Papadopoulos: AUTO-CI, single reference methods and gradients
   Taras Petrenko         : DFT Hessian,TD-DFT gradient, ASA, ECA, R-Raman, ABS, FL, XAS/XES, NRVS
   Peter Pinski           : DLPNO-MP2, DLPNO-MP2 Gradient
   Christoph Reimann      : Effective Core Potentials
   Marius Retegan         : Local ZFS, SOC
   Christoph Riplinger    : Optimizer, TS searches, QM/MM, DLPNO-CCSD(T), (RO)-DLPNO pert. Triples
   Tobias Risthaus        : Range-separated hybrids, TD-DFT gradient, RPA, STAB
   Michael Roemelt        : Original ROCIS implementation
   Masaaki Saitow         : Open-shell DLPNO-CCSD energy and density
   Barbara Sandhoefer     : DKH picture change effects
   Avijit Sen             : IP-ROCIS
   Kantharuban Sivalingam : CASSCF convergence, NEVPT2, FIC-MRCI
   Bernardo de Souza      : ESD, SOC TD-DFT
   Georgi Stoychev        : AutoAux, RI-MP2 NMR, DLPNO-MP2 response
   Willem Van den Heuvel  : Paramagnetic NMR
   Boris Wezisla          : Elementary symmetry handling
   Frank Wennmohs         : Technical directorship


 We gratefully acknowledge several colleagues who have allowed us to
 interface, adapt or use parts of their codes:
   Stefan Grimme, W. Hujo, H. Kruse, P. Pracht,  : VdW corrections, initial TS optimization,
                  C. Bannwarth, S. Ehlert          DFT functionals, gCP, sTDA/sTD-DF
   Ed Valeev, F. Pavosevic, A. Kumar             : LibInt (2-el integral package), F12 methods
   Garnet Chan, S. Sharma, J. Yang, R. Olivares  : DMRG
   Ulf Ekstrom                                   : XCFun DFT Library
   Mihaly Kallay                                 : mrcc  (arbitrary order and MRCC methods)
   Jiri Pittner, Ondrej Demel                    : Mk-CCSD
   Frank Weinhold                                : gennbo (NPA and NBO analysis)
   Christopher J. Cramer and Donald G. Truhlar   : smd solvation model
   Lars Goerigk                                  : TD-DFT with DH, B97 family of functionals
   V. Asgeirsson, H. Jonsson                     : NEB implementation
   FAccTs GmbH                                   : IRC, NEB, NEB-TS, DLPNO-Multilevel, CI-OPT
                                                   MM, QMMM, 2- and 3-layer-ONIOM, Crystal-QMMM,
                                                   LR-CPCM, SF, NACMEs, symmetry and pop. for TD-DFT,
                                                   nearIR, NL-DFT gradient (VV10), updates on ESD,
                                                   ML-optimized integration grids
   S Lehtola, MJT Oliveira, MAL Marques          : LibXC Library
   Liviu Ungur et al                             : ANISO software


 Your calculation uses the libint2 library for the computation of 2-el integrals
 For citations please refer to: http://libint.valeyev.net

 Your ORCA version has been built with support for libXC version: 5.1.0
 For citations please refer to: https://tddft.org/programs/libxc/

 This ORCA versions uses:
   CBLAS   interface :  Fast vector & matrix operations
   LAPACKE interface :  Fast linear algebra routines
   SCALAPACK package :  Parallel linear algebra routines
   Shared memory     :  Shared parallel matrices
   BLAS/LAPACK       :  OpenBLAS 0.3.15  USE64BITINT DYNAMIC_ARCH NO_AFFINITY SkylakeX SINGLE_THREADED
        Core in use  :  SkylakeX
   Copyright (c) 2011-2014, The OpenBLAS Project




***************************************
The coordinates will be read from file: /users/fjb15167/WWenergy/structures/Nab.xyz
***************************************


Your calculation utilizes the atom-pairwise dispersion correction
based on tight binding partial charges (D4)
Cite in your paper:
E.Caldeweyher, C.Bannwarth, S.Grimme, J.Chem.Phys., (2017), 147, 034112.
E.Caldeweyher, S.Ehlert, A.Hansen, H.Neugebauer, S.Grimme, J.Chem.Phys., (2018), in progress.
   

================================================================================

----- Orbital basis set information -----
Your calculation utilizes the basis: 6-31G(d)
   H-He, Li-Ne : W. J. Hehre, R. Ditchfield and J.A. Pople, J. Chem. Phys. 56, 2257 (1972).
                 Note: He and Ne are unpublished basis sets taken from the Gaussian program.
                 Note: Li and B from J. D. Dill and J. A. Pople, J. Chem. Phys. 62, 2921 (1975).
   Na - Ar     : M. M. Francl, W. J. Pietro, W. J. Hehre, J. S. Binkley, M. S. Gordon, 
                 D. J. DeFrees and J. A. Pople, J. Chem. Phys. 77, 3654 (1982).
   K - Zn      : V. A. Rassolov, J. A. Pople, M. A. Ratner, and T. L. Windus, J. Chem. Phys. 109, 1223 (1998).

----- AuxJ basis set information -----
Your calculation utilizes the AutoAux generation procedure.
  G. L. Stoychev, A. A. Auer, F. Neese, J. Chem. Theory Comput. 13, 554 (2017)

----- AuxC basis set information -----
Your calculation utilizes the AutoAux generation procedure.
  G. L. Stoychev, A. A. Auer, F. Neese, J. Chem. Theory Comput. 13, 554 (2017)

----- AuxJK basis set information -----
Your calculation utilizes the AutoAux generation procedure.
  G. L. Stoychev, A. A. Auer, F. Neese, J. Chem. Theory Comput. 13, 554 (2017)

================================================================================
                                        WARNINGS
                       Please study these warnings very carefully!
================================================================================


WARNING: Geometry Optimization
  ===> : Switching off AutoStart
         For restart on a previous wavefunction, please use MOREAD

INFO   : the flag for use of the SHARK integral package has been found!

================================================================================
                                       INPUT FILE
================================================================================
NAME = Nab_gas.inp
|  1> ! OPT FREQ B3LYP 6-31G(d) D4 AUTOAUX
|  2> 
|  3> %PAL NPROCS 4 END
|  4> 
|  5> %maxcore 3375
|  6> 
|  7> *xyzfile 0 1 /users/fjb15167/WWenergy/structures/Nab.xyz
|  8> 
|  9>                          ****END OF INPUT****
================================================================================

                       *****************************
                       * Geometry Optimization Run *
                       *****************************

Geometry optimization settings:
Update method            Update   .... BFGS
Choice of coordinates    CoordSys .... Z-matrix Internals
Initial Hessian          InHess   .... Almoef's Model

Convergence Tolerances:
Energy Change            TolE     ....  5.0000e-06 Eh
Max. Gradient            TolMAXG  ....  3.0000e-04 Eh/bohr
RMS Gradient             TolRMSG  ....  1.0000e-04 Eh/bohr
Max. Displacement        TolMAXD  ....  4.0000e-03 bohr
RMS Displacement         TolRMSD  ....  2.0000e-03 bohr
Strict Convergence                ....  False
------------------------------------------------------------------------------
                        ORCA OPTIMIZATION COORDINATE SETUP
------------------------------------------------------------------------------

The optimization will be done in new redundant internal coordinates
Making redundant internal coordinates   ...  (new redundants) done
Evaluating the initial hessian          ...  (Almloef) done
Evaluating the coordinates              ...  done
Calculating the B-matrix                .... done
Calculating the G-matrix                .... done
Diagonalizing the G-matrix              .... done
Small eigenvalue found = 3.603e-03
Small eigenvalue found = 5.350e-03
Small eigenvalue found = 1.210e-02
Small eigenvalue found = 1.375e-02
Small eigenvalue found = 2.848e-02
The first mode is                       ....   68
The number of degrees of freedom        ....   96

    -----------------------------------------------------------------
                    Redundant Internal Coordinates


    -----------------------------------------------------------------
         Definition                    Initial Value    Approx d2E/dq
    -----------------------------------------------------------------
      1. B(H   1,C   0)                  1.0930         0.356095   
      2. B(H   2,C   0)                  1.0945         0.354184   
      3. B(H   3,C   0)                  1.0895         0.360704   
      4. B(C   4,C   0)                  1.5155         0.394044   
      5. B(O   5,C   4)                  1.2398         0.971816   
      6. B(N   6,C   4)                  1.3720         0.597924   
      7. B(C   7,N   6)                  1.4598         0.433001   
      8. B(H   8,C   7)                  1.0953         0.353193   
      9. B(H   9,C   7)                  1.0905         0.359500   
     10. B(C  10,N   6)                  1.4639         0.426492   
     11. B(H  11,C  10)                  1.0946         0.354076   
     12. B(H  12,C  10)                  1.0947         0.353912   
     13. B(C  13,C  10)                  1.5289         0.375034   
     14. B(H  14,C  13)                  1.0945         0.354181   
     15. B(H  15,C  13)                  1.0974         0.350461   
     16. B(C  16,C   7)                  1.5247         0.380932   
     17. B(N  17,C  16)                  1.3651         0.613190   
     18. B(O  18,C  16)                  1.2404         0.969528   
     19. B(C  19,N  17)                  1.4548         0.441052   
     20. B(H  20,C  19)                  1.0982         0.349420   
     21. B(H  21,C  19)                  1.0954         0.352996   
     22. B(H  22,C  19)                  1.0874         0.363588   
     23. B(C  23,N  17)                  1.4550         0.440665   
     24. B(H  24,C  23)                  1.0973         0.350531   
     25. B(H  25,C  23)                  1.0886         0.361896   
     26. B(H  26,C  23)                  1.0934         0.355629   
     27. B(C  27,C  13)                  1.5276         0.376910   
     28. B(H  28,C  27)                  1.0976         0.350190   
     29. B(H  29,C  27)                  1.0973         0.350622   
     30. B(C  30,C  27)                  1.5258         0.379412   
     31. B(H  31,C  30)                  1.0950         0.353569   
     32. B(H  32,C  30)                  1.0946         0.354004   
     33. B(H  33,C  30)                  1.0937         0.355299   
     34. A(H   3,C   0,C   4)          107.1577         0.327268   
     35. A(H   2,C   0,H   3)          108.7649         0.290160   
     36. A(H   2,C   0,C   4)          110.8424         0.326286   
     37. A(H   1,C   0,C   4)          112.5084         0.326575   
     38. A(H   1,C   0,H   2)          108.0075         0.289576   
     39. A(H   1,C   0,H   3)          109.5018         0.290406   
     40. A(C   0,C   4,N   6)          117.1496         0.395335   
     41. A(C   0,C   4,O   5)          120.8108         0.430932   
     42. A(O   5,C   4,N   6)          122.0377         0.461684   
     43. A(C   4,N   6,C  10)          124.3142         0.398304   
     44. A(C   7,N   6,C  10)          116.5470         0.376517   
     45. A(C   4,N   6,C   7)          118.9375         0.399367   
     46. A(H   8,C   7,C  16)          105.4177         0.324326   
     47. A(N   6,C   7,C  16)          111.2932         0.371583   
     48. A(N   6,C   7,H   9)          107.8286         0.330221   
     49. A(H   8,C   7,H   9)          108.9642         0.289881   
     50. A(N   6,C   7,H   8)          109.7231         0.329257   
     51. A(H   9,C   7,C  16)          113.5558         0.325271   
     52. A(H  12,C  10,C  13)          109.2420         0.323604   
     53. A(H  11,C  10,C  13)          110.1094         0.323629   
     54. A(N   6,C  10,C  13)          113.8368         0.369624   
     55. A(H  11,C  10,H  12)          107.0160         0.289283   
     56. A(N   6,C  10,H  12)          106.9539         0.328545   
     57. A(N   6,C  10,H  11)          109.4175         0.328570   
     58. A(H  14,C  13,H  15)          107.1441         0.288853   
     59. A(H  15,C  13,C  27)          109.7426         0.323349   
     60. A(C  10,C  13,H  15)          109.5407         0.323085   
     61. A(C  10,C  13,H  14)          109.1018         0.323645   
     62. A(H  14,C  13,C  27)          109.3139         0.323910   
     63. A(C  10,C  13,C  27)          111.8783         0.364147   
     64. A(N  17,C  16,O  18)          122.7628         0.463617   
     65. A(C   7,C  16,O  18)          119.3042         0.428142   
     66. A(C   7,C  16,N  17)          117.9229         0.394737   
     67. A(C  16,N  17,C  19)          124.9877         0.402447   
     68. A(C  19,N  17,C  23)          115.3975         0.379862   
     69. A(C  16,N  17,C  23)          118.0879         0.402385   
     70. A(H  21,C  19,H  22)          108.7131         0.290370   
     71. A(H  20,C  19,H  22)          108.5082         0.289906   
     72. A(N  17,C  19,H  22)          111.9299         0.331850   
     73. A(H  20,C  19,H  21)          108.2329         0.288567   
     74. A(N  17,C  19,H  21)          108.8443         0.330230   
     75. A(N  17,C  19,H  20)          110.5267         0.329675   
     76. A(H  25,C  23,H  26)          110.2250         0.290496   
     77. A(H  24,C  23,H  26)          108.6732         0.289046   
     78. A(N  17,C  23,H  26)          109.2554         0.330588   
     79. A(H  24,C  23,H  25)          109.2305         0.289839   
     80. A(N  17,C  23,H  25)          108.6001         0.331545   
     81. A(N  17,C  23,H  24)          110.8530         0.329800   
     82. A(H  29,C  27,C  30)          109.5775         0.323725   
     83. A(H  28,C  27,C  30)          109.7151         0.323659   
     84. A(C  13,C  27,C  30)          112.3592         0.364870   
     85. A(H  28,C  27,H  29)          106.5020         0.288361   
     86. A(C  13,C  27,H  29)          109.0101         0.323373   
     87. A(C  13,C  27,H  28)          109.5025         0.323308   
     88. A(H  32,C  30,H  33)          107.9183         0.289451   
     89. A(H  31,C  30,H  33)          107.9153         0.289395   
     90. A(C  27,C  30,H  33)          111.3736         0.324430   
     91. A(H  31,C  30,H  32)          107.8965         0.289230   
     92. A(C  27,C  30,H  32)          110.9252         0.324235   
     93. A(C  27,C  30,H  31)          110.6720         0.324170   
     94. D(O   5,C   4,C   0,H   2)    110.2917         0.011540   
     95. D(O   5,C   4,C   0,H   1)   -128.6557         0.011540   
     96. D(N   6,C   4,C   0,H   1)     51.8465         0.011540   
     97. D(N   6,C   4,C   0,H   2)    -69.2061         0.011540   
     98. D(O   5,C   4,C   0,H   3)     -8.2490         0.011540   
     99. D(N   6,C   4,C   0,H   3)    172.2532         0.011540   
    100. D(C   7,N   6,C   4,C   0)    173.8549         0.028793   
    101. D(C   7,N   6,C   4,O   5)     -5.6363         0.028793   
    102. D(C  10,N   6,C   4,C   0)     -0.8020         0.028793   
    103. D(C  10,N   6,C   4,O   5)    179.7068         0.028793   
    104. D(H   9,C   7,N   6,C  10)    176.8379         0.015985   
    105. D(H   9,C   7,N   6,C   4)      1.7702         0.015985   
    106. D(H   8,C   7,N   6,C  10)     58.2865         0.015985   
    107. D(C  16,C   7,N   6,C   4)    126.9335         0.015985   
    108. D(H   8,C   7,N   6,C   4)   -116.7812         0.015985   
    109. D(C  16,C   7,N   6,C  10)    -57.9988         0.015985   
    110. D(C  13,C  10,N   6,C   7)     95.0544         0.015508   
    111. D(C  13,C  10,N   6,C   4)    -90.1724         0.015508   
    112. D(H  12,C  10,N   6,C   7)    -25.6994         0.015508   
    113. D(H  12,C  10,N   6,C   4)    149.0738         0.015508   
    114. D(H  11,C  10,N   6,C   7)   -141.2841         0.015508   
    115. D(H  11,C  10,N   6,C   4)     33.4891         0.015508   
    116. D(H  15,C  13,C  10,H  12)    176.4417         0.011226   
    117. D(C  27,C  13,C  10,H  11)     55.6149         0.011226   
    118. D(H  15,C  13,C  10,H  11)    -66.3080         0.011226   
    119. D(H  15,C  13,C  10,N   6)     56.9775         0.011226   
    120. D(H  14,C  13,C  10,H  12)     59.4455         0.011226   
    121. D(C  27,C  13,C  10,N   6)    178.9004         0.011226   
    122. D(H  14,C  13,C  10,H  11)    176.6958         0.011226   
    123. D(C  27,C  13,C  10,H  12)    -61.6354         0.011226   
    124. D(H  14,C  13,C  10,N   6)    -60.0187         0.011226   
    125. D(O  18,C  16,C   7,H   9)   -135.9387         0.010825   
    126. D(O  18,C  16,C   7,H   8)    -16.7306         0.010825   
    127. D(O  18,C  16,C   7,N   6)    102.1644         0.010825   
    128. D(N  17,C  16,C   7,H   9)     45.1816         0.010825   
    129. D(N  17,C  16,C   7,H   8)    164.3898         0.010825   
    130. D(N  17,C  16,C   7,N   6)    -76.7153         0.010825   
    131. D(C  23,N  17,C  16,O  18)     -4.2102         0.030395   
    132. D(C  23,N  17,C  16,C   7)    174.6280         0.030395   
    133. D(C  19,N  17,C  16,O  18)   -169.4290         0.030395   
    134. D(C  19,N  17,C  16,C   7)      9.4091         0.030395   
    135. D(H  22,C  19,N  17,C  16)    -20.2110         0.016588   
    136. D(H  21,C  19,N  17,C  23)     54.0282         0.016588   
    137. D(H  21,C  19,N  17,C  16)   -140.3997         0.016588   
    138. D(H  20,C  19,N  17,C  23)    -64.7093         0.016588   
    139. D(H  22,C  19,N  17,C  23)    174.2168         0.016588   
    140. D(H  20,C  19,N  17,C  16)    100.8628         0.016588   
    141. D(H  26,C  23,N  17,C  19)    -53.0628         0.016559   
    142. D(H  26,C  23,N  17,C  16)    140.3156         0.016559   
    143. D(H  25,C  23,N  17,C  19)   -173.3234         0.016559   
    144. D(H  25,C  23,N  17,C  16)     20.0550         0.016559   
    145. D(H  24,C  23,N  17,C  19)     66.6716         0.016559   
    146. D(H  24,C  23,N  17,C  16)    -99.9500         0.016559   
    147. D(C  30,C  27,C  13,H  15)    -59.1346         0.011332   
    148. D(C  30,C  27,C  13,H  14)     58.1004         0.011332   
    149. D(C  30,C  27,C  13,C  10)    179.0584         0.011332   
    150. D(H  29,C  27,C  13,H  15)    179.2013         0.011332   
    151. D(H  29,C  27,C  13,H  14)    -63.5637         0.011332   
    152. D(H  29,C  27,C  13,C  10)     57.3943         0.011332   
    153. D(H  28,C  27,C  13,H  15)     63.0502         0.011332   
    154. D(H  28,C  27,C  13,H  14)   -179.7148         0.011332   
    155. D(H  28,C  27,C  13,C  10)    -58.7568         0.011332   
    156. D(H  31,C  30,C  27,C  13)    -59.7430         0.011475   
    157. D(H  33,C  30,C  27,H  28)     58.1448         0.011475   
    158. D(H  33,C  30,C  27,C  13)   -179.7911         0.011475   
    159. D(H  32,C  30,C  27,H  29)   -178.6734         0.011475   
    160. D(H  32,C  30,C  27,H  28)    -62.0775         0.011475   
    161. D(H  32,C  30,C  27,C  13)     59.9866         0.011475   
    162. D(H  31,C  30,C  27,H  29)     61.5970         0.011475   
    163. D(H  33,C  30,C  27,H  29)    -58.4510         0.011475   
    164. D(H  31,C  30,C  27,H  28)    178.1929         0.011475   
    -----------------------------------------------------------------

Number of atoms                         .... 34
Number of degrees of freedom            .... 164

         *************************************************************
         *                GEOMETRY OPTIMIZATION CYCLE   1            *
         *************************************************************
---------------------------------
CARTESIAN COORDINATES (ANGSTROEM)
---------------------------------
  C     -0.488000    3.158000   -0.634000
  H      0.413000    2.847000   -1.169000
  H     -0.183000    3.803000    0.196000
  H     -1.130000    3.729000   -1.304000
  C     -1.300000    1.981000   -0.132000
  O     -2.513000    1.897000   -0.374000
  N     -0.637000    1.031000    0.603000
  C     -1.404000   -0.047000    1.220000
  H     -1.315000    0.013000    2.310000
  H     -2.450000    0.086000    0.942000
  C      0.793000    1.077000    0.913000
  H      1.106000    2.119000    1.033000
  H      0.925000    0.589000    1.884000
  C      1.673000    0.380000   -0.125000
  H      1.385000   -0.674000   -0.189000
  H      1.497000    0.824000   -1.113000
  C     -0.842000   -1.413000    0.842000
  N     -1.118000   -1.895000   -0.405000
  O     -0.142000   -2.029000    1.660000
  C     -1.742000   -1.132000   -1.475000
  H     -0.986000   -0.785000   -2.192000
  H     -2.447000   -1.780000   -2.007000
  H     -2.281000   -0.267000   -1.096000
  C     -0.487000   -3.141000   -0.813000
  H      0.383000   -2.947000   -1.453000
  H     -0.164000   -3.675000    0.079000
  H     -1.207000   -3.743000   -1.374000
  C      3.156000    0.478000    0.228000
  H      3.447000    1.534000    0.298000
  H      3.316000    0.044000    1.223000
  C      4.043000   -0.234000   -0.789000
  H      3.787000   -1.297000   -0.848000
  H      3.918000    0.198000   -1.787000
  H      5.100000   -0.157000   -0.519000

----------------------------
CARTESIAN COORDINATES (A.U.)
----------------------------
  NO LB      ZA    FRAG     MASS         X           Y           Z
   0 C     6.0000    0    12.011   -0.922186    5.967755   -1.198086
   1 H     1.0000    0     1.008    0.780457    5.380050   -2.209090
   2 H     1.0000    0     1.008   -0.345820    7.186628    0.370386
   3 H     1.0000    0     1.008   -2.135391    7.046789   -2.464203
   4 C     6.0000    0    12.011   -2.456644    3.743547   -0.249444
   5 O     8.0000    0    15.999   -4.748882    3.584810   -0.706758
   6 N     7.0000    0    14.007   -1.203756    1.948308    1.139505
   7 C     6.0000    0    12.011   -2.653175   -0.088817    2.305466
   8 H     1.0000    0     1.008   -2.484990    0.024566    4.365267
   9 H     1.0000    0     1.008   -4.629829    0.162516    1.780122
  10 C     6.0000    0    12.011    1.498553    2.035235    1.725320
  11 H     1.0000    0     1.008    2.090037    4.004330    1.952087
  12 H     1.0000    0     1.008    1.747997    1.113049    3.560244
  13 C     6.0000    0    12.011    3.161512    0.718096   -0.236216
  14 H     1.0000    0     1.008    2.617271   -1.273675   -0.357158
  15 H     1.0000    0     1.008    2.828920    1.557134   -2.103265
  16 C     6.0000    0    12.011   -1.591149   -2.670183    1.591149
  17 N     7.0000    0    14.007   -2.112714   -3.581031   -0.765339
  18 O     8.0000    0    15.999   -0.268341   -3.834254    3.136945
  19 C     6.0000    0    12.011   -3.291903   -2.139170   -2.787346
  20 H     1.0000    0     1.008   -1.863270   -1.483435   -4.142280
  21 H     1.0000    0     1.008   -4.624160   -3.363713   -3.792680
  22 H     1.0000    0     1.008   -4.310465   -0.504557   -2.071140
  23 C     6.0000    0    12.011   -0.920297   -5.935630   -1.536347
  24 H     1.0000    0     1.008    0.723765   -5.569023   -2.745772
  25 H     1.0000    0     1.008   -0.309915   -6.944744    0.149288
  26 H     1.0000    0     1.008   -2.280899   -7.073245   -2.596484
  27 C     6.0000    0    12.011    5.963976    0.903289    0.430858
  28 H     1.0000    0     1.008    6.513886    2.898840    0.563138
  29 H     1.0000    0     1.008    6.266332    0.083148    2.311135
  30 C     6.0000    0    12.011    7.640163   -0.442196   -1.490994
  31 H     1.0000    0     1.008    7.156393   -2.450975   -1.602488
  32 H     1.0000    0     1.008    7.403947    0.374166   -3.376941
  33 H     1.0000    0     1.008    9.637603   -0.296687   -0.980768

--------------------------------
INTERNAL COORDINATES (ANGSTROEM)
--------------------------------
 C      0   0   0     0.000000000000     0.00000000     0.00000000
 H      1   0   0     1.093044829822     0.00000000     0.00000000
 H      1   2   0     1.094509022347   108.00746877     0.00000000
 H      1   2   3     1.089543482381   109.50182607   118.29190597
 C      1   2   3     1.515479132156   112.50842434   237.33841365
 O      5   1   2     1.239753604552   120.81076714   231.34430679
 N      5   1   2     1.371967200774   117.14955956    51.84650891
 C      7   5   1     1.459815741798   118.93747773   173.85486441
 H      8   7   5     1.095272112308   109.72310240   243.21878321
 H      8   7   5     1.090453575353   107.82863684     1.77019287
 C      7   5   1     1.463938523299   124.31421671   359.19799700
 H     11   7   5     1.094592618283   109.41749889    33.48907154
 H     11   7   5     1.094718685325   106.95390419   149.07375585
 C     11   7   5     1.528938520674   113.83676370   269.82759835
 H     14  11   7     1.094511763299   109.10181484   299.98129619
 H     14  11   7     1.097385984966   109.54068508    56.97751640
 C      8   7   5     1.524691444195   111.29322620   126.93349455
 N     17   8   7     1.365104025340   117.92287996   283.28470877
 O     17   8   7     1.240395098346   119.30424603   102.16436088
 C     18  17   8     1.454800673632   124.98772449     9.40914641
 H     20  18  17     1.098195793108   110.52665328   100.86279341
 H     20  18  17     1.095423662333   108.84428788   219.60033836
 H     20  18  17     1.087376199850   111.92989700   339.78897550
 C     18  17   8     1.455039861997   118.08790671   174.62798178
 H     24  18  17     1.097331308220   110.85300717   260.05000815
 H     24  18  17     1.088645488669   108.60008593    20.05502350
 H     24  18  17     1.093400658496   109.25539615   140.31563211
 C     14  11   7     1.527580439781   111.87828065   178.90044260
 H     28  14  11     1.097596009468   109.50247687   301.24315066
 H     28  14  11     1.097260680057   109.01014656    57.39425331
 C     28  14  11     1.525779145224   112.35916767   179.05840755
 H     31  28  14     1.094982191636   110.67200181   300.25699244
 H     31  28  14     1.094647431825   110.92521776    59.98659015
 H     31  28  14     1.093653510030   111.37362304   180.20892819

---------------------------
INTERNAL COORDINATES (A.U.)
---------------------------
 C      0   0   0     0.000000000000     0.00000000     0.00000000
 H      1   0   0     2.065555380462     0.00000000     0.00000000
 H      1   2   0     2.068322303343   108.00746877     0.00000000
 H      1   2   3     2.058938792700   109.50182607   118.29190597
 C      1   2   3     2.863840521447   112.50842434   237.33841365
 O      5   1   2     2.342794786145   120.81076714   231.34430679
 N      5   1   2     2.592642274186   117.14955956    51.84650891
 C      7   5   1     2.758651957985   118.93747773   173.85486441
 H      8   7   5     2.069764334384   109.72310240   243.21878321
 H      8   7   5     2.060658619172   107.82863684     1.77019287
 C      7   5   1     2.766442885933   124.31421671   359.19799700
 H     11   7   5     2.068480276767   109.41749889    33.48907154
 H     11   7   5     2.068718508951   106.95390419   149.07375585
 C     11   7   5     2.889275079676   113.83676370   269.82759835
 H     14  11   7     2.068327482990   109.10181484   299.98129619
 H     14  11   7     2.073758974789   109.54068508    56.97751640
 C      8   7   5     2.881249268261   111.29322620   126.93349455
 N     17   8   7     2.579672752206   117.92287996   283.28470877
 O     17   8   7     2.344007033732   119.30424603   102.16436088
 C     18  17   8     2.749174852609   124.98772449     9.40914641
 H     20  18  17     2.075289290398   110.52665328   100.86279341
 H     20  18  17     2.070050722427   108.84428788   219.60033836
 H     20  18  17     2.054843222260   111.92989700   339.78897550
 C     18  17   8     2.749626853113   118.08790671   174.62798178
 H     24  18  17     2.073655650713   110.85300717   260.05000815
 H     24  18  17     2.057241830514   108.60008593    20.05502350
 H     24  18  17     2.066227799207   109.25539615   140.31563211
 C     14  11   7     2.886708678720   111.87828065   178.90044260
 H     28  14  11     2.074155863579   109.50247687   301.24315066
 H     28  14  11     2.073522182829   109.01014656    57.39425331
 C     28  14  11     2.883304725322   112.35916767   179.05840755
 H     31  28  14     2.069216463713   110.67200181   300.25699244
 H     31  28  14     2.068583859349   110.92521776    59.98659015
 H     31  28  14     2.066705619358   111.37362304   180.20892819

---------------------
BASIS SET INFORMATION
---------------------
There are 4 groups of distinct atoms

 Group   1 Type C   : 10s4p1d contracted to 3s2p1d pattern {631/31/1}
 Group   2 Type H   : 4s contracted to 2s pattern {31}
 Group   3 Type O   : 10s4p1d contracted to 3s2p1d pattern {631/31/1}
 Group   4 Type N   : 10s4p1d contracted to 3s2p1d pattern {631/31/1}

Atom   0C    basis set group =>   1
Atom   1H    basis set group =>   2
Atom   2H    basis set group =>   2
Atom   3H    basis set group =>   2
Atom   4C    basis set group =>   1
Atom   5O    basis set group =>   3
Atom   6N    basis set group =>   4
Atom   7C    basis set group =>   1
Atom   8H    basis set group =>   2
Atom   9H    basis set group =>   2
Atom  10C    basis set group =>   1
Atom  11H    basis set group =>   2
Atom  12H    basis set group =>   2
Atom  13C    basis set group =>   1
Atom  14H    basis set group =>   2
Atom  15H    basis set group =>   2
Atom  16C    basis set group =>   1
Atom  17N    basis set group =>   4
Atom  18O    basis set group =>   3
Atom  19C    basis set group =>   1
Atom  20H    basis set group =>   2
Atom  21H    basis set group =>   2
Atom  22H    basis set group =>   2
Atom  23C    basis set group =>   1
Atom  24H    basis set group =>   2
Atom  25H    basis set group =>   2
Atom  26H    basis set group =>   2
Atom  27C    basis set group =>   1
Atom  28H    basis set group =>   2
Atom  29H    basis set group =>   2
Atom  30C    basis set group =>   1
Atom  31H    basis set group =>   2
Atom  32H    basis set group =>   2
Atom  33H    basis set group =>   2
---------------------------------
AUXILIARY/J BASIS SET INFORMATION
---------------------------------
There are 4 groups of distinct atoms

 Group   1 Type C   : 13s11p10d2f contracted to 13s11p10d2f pattern {1111111111111/11111111111/1111111111/11}
 Group   2 Type H   : 9s2p contracted to 9s2p pattern {111111111/11}
 Group   3 Type O   : 14s11p10d2f contracted to 14s11p10d2f pattern {11111111111111/11111111111/1111111111/11}
 Group   4 Type N   : 14s11p10d2f contracted to 14s11p10d2f pattern {11111111111111/11111111111/1111111111/11}

Atom   0C    basis set group =>   1
Atom   1H    basis set group =>   2
Atom   2H    basis set group =>   2
Atom   3H    basis set group =>   2
Atom   4C    basis set group =>   1
Atom   5O    basis set group =>   3
Atom   6N    basis set group =>   4
Atom   7C    basis set group =>   1
Atom   8H    basis set group =>   2
Atom   9H    basis set group =>   2
Atom  10C    basis set group =>   1
Atom  11H    basis set group =>   2
Atom  12H    basis set group =>   2
Atom  13C    basis set group =>   1
Atom  14H    basis set group =>   2
Atom  15H    basis set group =>   2
Atom  16C    basis set group =>   1
Atom  17N    basis set group =>   4
Atom  18O    basis set group =>   3
Atom  19C    basis set group =>   1
Atom  20H    basis set group =>   2
Atom  21H    basis set group =>   2
Atom  22H    basis set group =>   2
Atom  23C    basis set group =>   1
Atom  24H    basis set group =>   2
Atom  25H    basis set group =>   2
Atom  26H    basis set group =>   2
Atom  27C    basis set group =>   1
Atom  28H    basis set group =>   2
Atom  29H    basis set group =>   2
Atom  30C    basis set group =>   1
Atom  31H    basis set group =>   2
Atom  32H    basis set group =>   2
Atom  33H    basis set group =>   2
---------------------------------
AUXILIARY/C BASIS SET INFORMATION
---------------------------------
There are 4 groups of distinct atoms

 Group   1 Type C   : 13s11p10d2f contracted to 13s11p10d2f pattern {1111111111111/11111111111/1111111111/11}
 Group   2 Type H   : 9s2p contracted to 9s2p pattern {111111111/11}
 Group   3 Type O   : 14s11p10d2f contracted to 14s11p10d2f pattern {11111111111111/11111111111/1111111111/11}
 Group   4 Type N   : 14s11p10d2f contracted to 14s11p10d2f pattern {11111111111111/11111111111/1111111111/11}

Atom   0C    basis set group =>   1
Atom   1H    basis set group =>   2
Atom   2H    basis set group =>   2
Atom   3H    basis set group =>   2
Atom   4C    basis set group =>   1
Atom   5O    basis set group =>   3
Atom   6N    basis set group =>   4
Atom   7C    basis set group =>   1
Atom   8H    basis set group =>   2
Atom   9H    basis set group =>   2
Atom  10C    basis set group =>   1
Atom  11H    basis set group =>   2
Atom  12H    basis set group =>   2
Atom  13C    basis set group =>   1
Atom  14H    basis set group =>   2
Atom  15H    basis set group =>   2
Atom  16C    basis set group =>   1
Atom  17N    basis set group =>   4
Atom  18O    basis set group =>   3
Atom  19C    basis set group =>   1
Atom  20H    basis set group =>   2
Atom  21H    basis set group =>   2
Atom  22H    basis set group =>   2
Atom  23C    basis set group =>   1
Atom  24H    basis set group =>   2
Atom  25H    basis set group =>   2
Atom  26H    basis set group =>   2
Atom  27C    basis set group =>   1
Atom  28H    basis set group =>   2
Atom  29H    basis set group =>   2
Atom  30C    basis set group =>   1
Atom  31H    basis set group =>   2
Atom  32H    basis set group =>   2
Atom  33H    basis set group =>   2
----------------------------------
AUXILIARY/JK BASIS SET INFORMATION
----------------------------------
There are 4 groups of distinct atoms

 Group   1 Type C   : 13s11p10d2f contracted to 13s11p10d2f pattern {1111111111111/11111111111/1111111111/11}
 Group   2 Type H   : 9s2p contracted to 9s2p pattern {111111111/11}
 Group   3 Type O   : 14s11p10d2f contracted to 14s11p10d2f pattern {11111111111111/11111111111/1111111111/11}
 Group   4 Type N   : 14s11p10d2f contracted to 14s11p10d2f pattern {11111111111111/11111111111/1111111111/11}

Atom   0C    basis set group =>   1
Atom   1H    basis set group =>   2
Atom   2H    basis set group =>   2
Atom   3H    basis set group =>   2
Atom   4C    basis set group =>   1
Atom   5O    basis set group =>   3
Atom   6N    basis set group =>   4
Atom   7C    basis set group =>   1
Atom   8H    basis set group =>   2
Atom   9H    basis set group =>   2
Atom  10C    basis set group =>   1
Atom  11H    basis set group =>   2
Atom  12H    basis set group =>   2
Atom  13C    basis set group =>   1
Atom  14H    basis set group =>   2
Atom  15H    basis set group =>   2
Atom  16C    basis set group =>   1
Atom  17N    basis set group =>   4
Atom  18O    basis set group =>   3
Atom  19C    basis set group =>   1
Atom  20H    basis set group =>   2
Atom  21H    basis set group =>   2
Atom  22H    basis set group =>   2
Atom  23C    basis set group =>   1
Atom  24H    basis set group =>   2
Atom  25H    basis set group =>   2
Atom  26H    basis set group =>   2
Atom  27C    basis set group =>   1
Atom  28H    basis set group =>   2
Atom  29H    basis set group =>   2
Atom  30C    basis set group =>   1
Atom  31H    basis set group =>   2
Atom  32H    basis set group =>   2
Atom  33H    basis set group =>   2


           ************************************************************
           *        Program running with 4 parallel MPI-processes     *
           *              working on a common directory               *
           ************************************************************
------------------------------------------------------------------------------
                           ORCA GTO INTEGRAL CALCULATION
                           -- RI-GTO INTEGRALS CHOSEN --
------------------------------------------------------------------------------
------------------------------------------------------------------------------
                   ___                                                        
                  /   \      - P O W E R E D   B Y -                         
                 /     \                                                     
                 |  |  |   _    _      __       _____    __    __             
                 |  |  |  | |  | |    /  \     |  _  \  |  |  /  |          
                  \  \/   | |  | |   /    \    | | | |  |  | /  /          
                 / \  \   | |__| |  /  /\  \   | |_| |  |  |/  /          
                |  |  |   |  __  | /  /__\  \  |    /   |      \           
                |  |  |   | |  | | |   __   |  |    \   |  |\   \          
                \     /   | |  | | |  |  |  |  | |\  \  |  | \   \       
                 \___/    |_|  |_| |__|  |__|  |_| \__\ |__|  \__/        
                                                                              
                      - O R C A' S   B I G   F R I E N D -                    
                                      &                                       
                       - I N T E G R A L  F E E D E R -                       
                                                                              
 v1 FN, 2020, v2 2021                                                         
------------------------------------------------------------------------------


Reading SHARK input file Nab_gas.SHARKINP.tmp ... ok
----------------------
SHARK INTEGRAL PACKAGE
----------------------

Number of atoms                             ...     34
Number of basis functions                   ...    236
Number of shells                            ...    124
Maximum angular momentum                    ...      2
Integral batch strategy                     ... SHARK/LIBINT Hybrid
RI-J (if used) integral strategy            ... SPLIT-RIJ (Revised 2003 algorithm where possible)
Printlevel                                  ...      1
Contraction scheme used                     ... SEGMENTED contraction
Coulomb Range Separation                    ... NOT USED
Exchange Range Separation                   ... NOT USED
Finite Nucleus Model                        ... NOT USED
Auxiliary Coulomb fitting basis             ... AVAILABLE
   # of basis functions in Aux-J            ...   1844
   # of shells in Aux-J                     ...    728
   Maximum angular momentum in Aux-J        ...      3
Auxiliary J/K fitting basis                 ... AVAILABLE
   # of basis functions in Aux-JK           ...   1844
   # of shells in Aux-JK                    ...    728
   Maximum angular momentum in Aux-JK       ...      3
Auxiliary Correlation fitting basis         ... AVAILABLE
   # of basis functions in Aux-C            ...   1844
   # of shells in Aux-C                     ...    728
   Maximum angular momentum in Aux-C        ...      3
Auxiliary 'external' fitting basis          ... NOT available
Integral threshold                          ...     2.500000e-11
Primitive cut-off                           ...     2.500000e-12
Primitive pair pre-selection threshold      ...     2.500000e-12

Calculating pre-screening integrals         ... done (  0.0 sec) Dimension = 124
Organizing shell pair data                  ... done (  0.9 sec)
Shell pair information
Total number of shell pairs                 ...      7750
Shell pairs after pre-screening             ...      6706
Total number of primitive shell pairs       ...     42549
Primitive shell pairs kept                  ...     21679
          la=0 lb=0:   2861 shell pairs
          la=1 lb=0:   2090 shell pairs
          la=1 lb=1:    393 shell pairs
          la=2 lb=0:    924 shell pairs
          la=2 lb=1:    353 shell pairs
          la=2 lb=2:     85 shell pairs

Calculating one electron integrals          ... done (  0.0 sec)
Calculating RI/J V-Matrix + Cholesky decomp.... done (  0.2 sec)
Calculating RI/JK V-Matrix + Cholesky decomp... done (  0.2 sec)
Calculating RI/C V-Matrix + Cholesky decomp.... done (  0.2 sec)
Calculating Nuclear repulsion               ... done (  0.0 sec) ENN=    993.883679092106 Eh

SHARK setup successfully completed in   1.9 seconds

Maximum memory used throughout the entire GTOINT-calculation: 30.9 MB


           ************************************************************
           *        Program running with 4 parallel MPI-processes     *
           *              working on a common directory               *
           ************************************************************
-------------------------------------------------------------------------------
                                 ORCA SCF
-------------------------------------------------------------------------------

------------
SCF SETTINGS
------------
Hamiltonian:
 Density Functional     Method          .... DFT(GTOs)
 Exchange Functional    Exchange        .... B88
   X-Alpha parameter    XAlpha          ....  0.666667
   Becke's b parameter  XBeta           ....  0.004200
 Correlation Functional Correlation     .... LYP
 LDA part of GGA corr.  LDAOpt          .... VWN-5
 Gradients option       PostSCFGGA      .... off
 Hybrid DFT is turned on
   Fraction HF Exchange ScalHFX         ....  0.200000
   Scaling of DF-GGA-X  ScalDFX         ....  0.720000
   Scaling of DF-GGA-C  ScalDFC         ....  0.810000
   Scaling of DF-LDA-C  ScalLDAC        ....  1.000000
   Perturbative correction              ....  0.000000
   Density functional embedding theory  .... OFF
   NL short-range parameter             ....  4.800000
 RI-approximation to the Coulomb term is turned on
   Number of AuxJ basis functions       .... 1844
   RIJ-COSX (HFX calculated with COS-X)).... on


General Settings:
 Integral files         IntName         .... Nab_gas
 Hartree-Fock type      HFTyp           .... RHF
 Total Charge           Charge          ....    0
 Multiplicity           Mult            ....    1
 Number of Electrons    NEL             ....  110
 Basis Dimension        Dim             ....  236
 Nuclear Repulsion      ENuc            ....    993.8836790921 Eh

Convergence Acceleration:
 DIIS                   CNVDIIS         .... on
   Start iteration      DIISMaxIt       ....    12
   Startup error        DIISStart       ....  0.200000
   # of expansion vecs  DIISMaxEq       ....     5
   Bias factor          DIISBfac        ....   1.050
   Max. coefficient     DIISMaxC        ....  10.000
 Trust-Rad. Augm. Hess. CNVTRAH         .... auto
   Auto Start mean grad. ratio tolernc. ....  1.125000
   Auto Start start iteration           ....    20
   Auto Start num. interpolation iter.  ....    10
   Max. Number of Micro iterations      ....    16
   Max. Number of Macro iterations      .... Maxiter - #DIIS iter
   Number of Davidson start vectors     ....     2
   Converg. threshold I  (grad. norm)   ....   1.000e-05
   Converg. threshold II (energy diff.) ....   1.000e-08
   Grad. Scal. Fac. for Micro threshold ....   0.100
   Minimum threshold for Micro iter.    ....   0.010
   NR start threshold (gradient norm)   ....   0.001
   Initial trust radius                 ....   0.400
   Minimum AH scaling param. (alpha)    ....   1.000
   Maximum AH scaling param. (alpha)    .... 1000.000
   Orbital update algorithm             .... Taylor
   White noise on init. David. guess    .... on
   Maximum white noise                  ....   0.010
   Quad. conv. algorithm                .... NR
 SOSCF                  CNVSOSCF        .... on
   Start iteration      SOSCFMaxIt      ....   150
   Startup grad/error   SOSCFStart      ....  0.003300
 Level Shifting         CNVShift        .... on
   Level shift para.    LevelShift      ....    0.2500
   Turn off err/grad.   ShiftErr        ....    0.0010
 Zerner damping         CNVZerner       .... off
 Static damping         CNVDamp         .... on
   Fraction old density DampFac         ....    0.7000
   Max. Damping (<1)    DampMax         ....    0.9800
   Min. Damping (>=0)   DampMin         ....    0.0000
   Turn off err/grad.   DampErr         ....    0.1000
 Fernandez-Rico         CNVRico         .... off

SCF Procedure:
 Maximum # iterations   MaxIter         ....   125
 SCF integral mode      SCFMode         .... Direct
   Integral package                     .... SHARK and LIBINT hybrid scheme
 Reset frequency        DirectResetFreq ....    20
 Integral Threshold     Thresh          ....  2.500e-11 Eh
 Primitive CutOff       TCut            ....  2.500e-12 Eh

Convergence Tolerance:
 Convergence Check Mode ConvCheckMode   .... Total+1el-Energy
 Convergence forced     ConvForced      .... 0
 Energy Change          TolE            ....  1.000e-08 Eh
 1-El. energy change                    ....  1.000e-05 Eh
 Orbital Gradient       TolG            ....  1.000e-05
 Orbital Rotation angle TolX            ....  1.000e-05
 DIIS Error             TolErr          ....  5.000e-07


Diagonalization of the overlap matrix:
Smallest eigenvalue                        ... 2.889e-03
Time for diagonalization                   ...    0.009 sec
Threshold for overlap eigenvalues          ... 1.000e-08
Number of eigenvalues below threshold      ... 0
Time for construction of square roots      ...    0.005 sec
Total time needed                          ...    0.014 sec

Time for model grid setup =    0.261 sec

------------------------------
INITIAL GUESS: MODEL POTENTIAL
------------------------------
Loading Hartree-Fock densities                     ... done
Calculating cut-offs                               ... done
Initializing the effective Hamiltonian             ... done
Setting up the integral package (SHARK)            ... done
Starting the Coulomb interaction                   ... done (   0.3 sec)
Reading the grid                                   ... done
Mapping shells                                     ... done
Starting the XC term evaluation                    ... done (   0.2 sec)
  promolecular density results
     # of electrons  =    109.992457484
     EX              =    -86.929379850
     EC              =     -3.675893932
     EX+EC           =    -90.605273781
Transforming the Hamiltonian                       ... done (   0.0 sec)
Diagonalizing the Hamiltonian                      ... done (   0.0 sec)
Back transforming the eigenvectors                 ... done (   0.0 sec)
Now organizing SCF variables                       ... done
                      ------------------
                      INITIAL GUESS DONE (   0.8 sec)
                      ------------------
-------------------
DFT GRID GENERATION
-------------------

General Integration Accuracy     IntAcc      ... 4.388
Radial Grid Type                 RadialGrid  ... OptM3 with GC (2021)
Angular Grid (max. ang.)         AngularGrid ... 4 (Lebedev-302)
Angular grid pruning method      GridPruning ... 4 (adaptive)
Weight generation scheme         WeightScheme... Becke
Basis function cutoff            BFCut       ... 1.0000e-11
Integration weight cutoff        WCut        ... 1.0000e-14
Angular grids for H and He will be reduced by one unit
Partially contracted basis set               ... off
Rotationally invariant grid construction     ... off

Total number of grid points                  ...   147244
Total number of batches                      ...     2319
Average number of points per batch           ...       63
Average number of grid points per atom       ...     4331
Time for grid setup =    2.739 sec

--------------------
COSX GRID GENERATION
--------------------

GRIDX 1
-------
General Integration Accuracy     IntAcc      ... 3.816
Radial Grid Type                 RadialGrid  ... OptM3 with GC (2021)
Angular Grid (max. ang.)         AngularGrid ... 1 (Lebedev-50)
Angular grid pruning method      GridPruning ... 4 (adaptive)
Weight generation scheme         WeightScheme... Becke
Basis function cutoff            BFCut       ... 1.0000e-11
Integration weight cutoff        WCut        ... 1.0000e-14
Angular grids for H and He will be reduced by one unit
Partially contracted basis set               ... on
Rotationally invariant grid construction     ... off

Total number of grid points                  ...    18768
Total number of batches                      ...      315
Average number of points per batch           ...       59
Average number of grid points per atom       ...      552
UseSFitting                                  ... on

GRIDX 2
-------
General Integration Accuracy     IntAcc      ... 4.020
Radial Grid Type                 RadialGrid  ... OptM3 with GC (2021)
Angular Grid (max. ang.)         AngularGrid ... 2 (Lebedev-110)
Angular grid pruning method      GridPruning ... 4 (adaptive)
Weight generation scheme         WeightScheme... Becke
Basis function cutoff            BFCut       ... 1.0000e-11
Integration weight cutoff        WCut        ... 1.0000e-14
Angular grids for H and He will be reduced by one unit
Partially contracted basis set               ... on
Rotationally invariant grid construction     ... off

Total number of grid points                  ...    39329
Total number of batches                      ...      632
Average number of points per batch           ...       62
Average number of grid points per atom       ...     1157
UseSFitting                                  ... on

GRIDX 3
-------
General Integration Accuracy     IntAcc      ... 4.338
Radial Grid Type                 RadialGrid  ... OptM3 with GC (2021)
Angular Grid (max. ang.)         AngularGrid ... 3 (Lebedev-194)
Angular grid pruning method      GridPruning ... 4 (adaptive)
Weight generation scheme         WeightScheme... Becke
Basis function cutoff            BFCut       ... 1.0000e-11
Integration weight cutoff        WCut        ... 1.0000e-14
Angular grids for H and He will be reduced by one unit
Partially contracted basis set               ... on
Rotationally invariant grid construction     ... off

Total number of grid points                  ...    85594
Total number of batches                      ...     1356
Average number of points per batch           ...       63
Average number of grid points per atom       ...     2517
UseSFitting                                  ... on

Time for X-Grid setup             =    2.813 sec

--------------
SCF ITERATIONS
--------------
ITER       Energy         Delta-E        Max-DP      RMS-DP      [F,P]     Damp
               ***  Starting incremental Fock matrix formation  ***
  0   -652.1963068401   0.000000000000 0.09929450  0.00235249  0.2749356 0.7000
  1   -652.4198962917  -0.223589451666 0.05533488  0.00157281  0.1054185 0.7000
                               ***Turning on DIIS***
  2   -652.5039682810  -0.084071989280 0.06465666  0.00241612  0.0388295 0.0000
  3   -652.6391941280  -0.135225846949 0.03669286  0.00108281  0.0513570 0.0000
  4   -652.6677720060  -0.028577878028 0.00986647  0.00036524  0.0164723 0.0000
  5   -652.6700489386  -0.002276932633 0.00376445  0.00010901  0.0059886 0.0000
                      *** Initiating the SOSCF procedure ***
                           *** Shutting down DIIS ***
                      *** Re-Reading the Fockian *** 
                      *** Removing any level shift *** 
ITER      Energy       Delta-E        Grad      Rot      Max-DP    RMS-DP
  6   -652.67019315  -0.0001442097  0.000237  0.000237  0.001433  0.000047
               *** Restarting incremental Fock matrix formation ***
  7   -652.67019791  -0.0000047661  0.000213  0.000815  0.001628  0.000025
  8   -652.67019336   0.0000045587  0.000409  0.000614  0.001067  0.000016
  9   -652.67020094  -0.0000075873  0.000052  0.000168  0.000286  0.000006
 10   -652.67020065   0.0000002952  0.000103  0.000115  0.000217  0.000004
 11   -652.67020103  -0.0000003811  0.000005  0.000008  0.000023  0.000001
 12   -652.67020103  -0.0000000017  0.000005  0.000005  0.000011  0.000000
                  ***Gradient check signals convergence***
              ***Rediagonalizing the Fockian in SOSCF/NRSCF***

               *****************************************************
               *                     SUCCESS                       *
               *           SCF CONVERGED AFTER  13 CYCLES          *
               *****************************************************

Old exchange energy                            =    -17.749771198 Eh
New exchange energy                            =    -17.749740288 Eh
Exchange energy change after final integration =      0.000030910 Eh
Total energy after final integration           =   -652.670170119 Eh
Final COS-X integration done in                =     9.687 sec

----------------
TOTAL SCF ENERGY
----------------

Total Energy       :         -652.67017012 Eh          -17760.05823 eV

Components:
Nuclear Repulsion  :          993.88367909 Eh           27044.94985 eV
Electronic Energy  :        -1646.55384921 Eh          -44805.00808 eV
One Electron Energy:        -2859.42192833 Eh          -77808.82639 eV
Two Electron Energy:         1212.86807912 Eh           33003.81831 eV
Max COSX asymmetry :            0.00000186 Eh               0.00005 eV

Virial components:
Potential Energy   :        -1301.54143484 Eh          -35416.74299 eV
Kinetic Energy     :          648.87126473 Eh           17656.68476 eV
Virial Ratio       :            2.00585464


DFT components:
N(Alpha)           :       55.000010706162 electrons
N(Beta)            :       55.000010706162 electrons
N(Total)           :      110.000021412324 electrons
E(X)               :      -70.449396581910 Eh       
E(C)               :       -4.334686132250 Eh       
E(XC)              :      -74.784082714160 Eh       
DFET-embed. en.    :        0.000000000000 Eh       

---------------
SCF CONVERGENCE
---------------

  Last Energy change         ...    1.4038e-09  Tolerance :   1.0000e-08
  Last MAX-Density change    ...    3.9968e-15  Tolerance :   1.0000e-07
  Last RMS-Density change    ...    4.4289e-17  Tolerance :   5.0000e-09
  Last Orbital Gradient      ...    3.0496e-07  Tolerance :   1.0000e-05
  Last Orbital Rotation      ...    8.3992e-07  Tolerance :   1.0000e-05

             **** THE GBW FILE WAS UPDATED (Nab_gas.gbw) ****
             **** DENSITY Nab_gas.scfp WAS UPDATED ****
             **** ENERGY FILE WAS UPDATED (Nab_gas.en.tmp) ****
             **** THE GBW FILE WAS UPDATED (Nab_gas.gbw) ****
             **** DENSITY Nab_gas.scfp WAS UPDATED ****
----------------
ORBITAL ENERGIES
----------------

  NO   OCC          E(Eh)            E(eV) 
   0   2.0000     -19.104963      -519.8725 
   1   2.0000     -19.100735      -519.7574 
   2   2.0000     -14.361042      -390.7838 
   3   2.0000     -14.357797      -390.6955 
   4   2.0000     -10.282010      -279.7877 
   5   2.0000     -10.274272      -279.5772 
   6   2.0000     -10.216637      -278.0088 
   7   2.0000     -10.210750      -277.8486 
   8   2.0000     -10.204419      -277.6763 
   9   2.0000     -10.200766      -277.5770 
  10   2.0000     -10.182263      -277.0734 
  11   2.0000     -10.177592      -276.9463 
  12   2.0000     -10.177193      -276.9355 
  13   2.0000     -10.166888      -276.6551 
  14   2.0000      -1.027570       -27.9616 
  15   2.0000      -1.018817       -27.7234 
  16   2.0000      -0.934258       -25.4224 
  17   2.0000      -0.927129       -25.2285 
  18   2.0000      -0.800538       -21.7837 
  19   2.0000      -0.762744       -20.7553 
  20   2.0000      -0.734685       -19.9918 
  21   2.0000      -0.720551       -19.6072 
  22   2.0000      -0.708237       -19.2721 
  23   2.0000      -0.672655       -18.3039 
  24   2.0000      -0.647234       -17.6121 
  25   2.0000      -0.588627       -16.0174 
  26   2.0000      -0.554128       -15.0786 
  27   2.0000      -0.538322       -14.6485 
  28   2.0000      -0.512296       -13.9403 
  29   2.0000      -0.491728       -13.3806 
  30   2.0000      -0.481556       -13.1038 
  31   2.0000      -0.469602       -12.7785 
  32   2.0000      -0.460803       -12.5391 
  33   2.0000      -0.456417       -12.4197 
  34   2.0000      -0.451951       -12.2982 
  35   2.0000      -0.430131       -11.7045 
  36   2.0000      -0.415582       -11.3086 
  37   2.0000      -0.410141       -11.1605 
  38   2.0000      -0.405591       -11.0367 
  39   2.0000      -0.401134       -10.9154 
  40   2.0000      -0.398557       -10.8453 
  41   2.0000      -0.395059       -10.7501 
  42   2.0000      -0.391842       -10.6626 
  43   2.0000      -0.381897       -10.3919 
  44   2.0000      -0.373536       -10.1644 
  45   2.0000      -0.364106        -9.9078 
  46   2.0000      -0.356121        -9.6905 
  47   2.0000      -0.351477        -9.5642 
  48   2.0000      -0.340910        -9.2766 
  49   2.0000      -0.335464        -9.1284 
  50   2.0000      -0.328821        -8.9477 
  51   2.0000      -0.252934        -6.8827 
  52   2.0000      -0.246849        -6.7171 
  53   2.0000      -0.235004        -6.3948 
  54   2.0000      -0.231662        -6.3038 
  55   0.0000       0.017357         0.4723 
  56   0.0000       0.028724         0.7816 
  57   0.0000       0.073095         1.9890 
  58   0.0000       0.088574         2.4102 
  59   0.0000       0.101316         2.7569 
  60   0.0000       0.111935         3.0459 
  61   0.0000       0.129090         3.5127 
  62   0.0000       0.136157         3.7050 
  63   0.0000       0.140788         3.8310 
  64   0.0000       0.142803         3.8859 
  65   0.0000       0.152824         4.1586 
  66   0.0000       0.156314         4.2535 
  67   0.0000       0.161782         4.4023 
  68   0.0000       0.165582         4.5057 
  69   0.0000       0.170202         4.6314 
  70   0.0000       0.178723         4.8633 
  71   0.0000       0.181170         4.9299 
  72   0.0000       0.185905         5.0587 
  73   0.0000       0.190846         5.1932 
  74   0.0000       0.191557         5.2125 
  75   0.0000       0.199386         5.4256 
  76   0.0000       0.200868         5.4659 
  77   0.0000       0.224454         6.1077 
  78   0.0000       0.227319         6.1857 
  79   0.0000       0.229170         6.2360 
  80   0.0000       0.237619         6.4659 
  81   0.0000       0.242369         6.5952 
  82   0.0000       0.262659         7.1473 
  83   0.0000       0.266819         7.2605 
  84   0.0000       0.279005         7.5921 
  85   0.0000       0.292347         7.9552 
  86   0.0000       0.340332         9.2609 
  87   0.0000       0.361148         9.8273 
  88   0.0000       0.378942        10.3115 
  89   0.0000       0.422500        11.4968 
  90   0.0000       0.466148        12.6845 
  91   0.0000       0.486659        13.2427 
  92   0.0000       0.501193        13.6382 
  93   0.0000       0.505323        13.7505 
  94   0.0000       0.518934        14.1209 
  95   0.0000       0.522296        14.2124 
  96   0.0000       0.544410        14.8141 
  97   0.0000       0.550090        14.9687 
  98   0.0000       0.550672        14.9846 
  99   0.0000       0.567640        15.4463 
 100   0.0000       0.591105        16.0848 
 101   0.0000       0.601588        16.3700 
 102   0.0000       0.608135        16.5482 
 103   0.0000       0.609556        16.5869 
 104   0.0000       0.621742        16.9184 
 105   0.0000       0.641027        17.4432 
 106   0.0000       0.647270        17.6131 
 107   0.0000       0.669037        18.2054 
 108   0.0000       0.671177        18.2637 
 109   0.0000       0.681207        18.5366 
 110   0.0000       0.702073        19.1044 
 111   0.0000       0.718476        19.5507 
 112   0.0000       0.721617        19.6362 
 113   0.0000       0.730672        19.8826 
 114   0.0000       0.755706        20.5638 
 115   0.0000       0.769174        20.9303 
 116   0.0000       0.791989        21.5511 
 117   0.0000       0.803618        21.8676 
 118   0.0000       0.812157        22.0999 
 119   0.0000       0.828335        22.5401 
 120   0.0000       0.834399        22.7051 
 121   0.0000       0.843035        22.9401 
 122   0.0000       0.849717        23.1220 
 123   0.0000       0.855851        23.2889 
 124   0.0000       0.869120        23.6500 
 125   0.0000       0.877437        23.8763 
 126   0.0000       0.880117        23.9492 
 127   0.0000       0.887887        24.1606 
 128   0.0000       0.896066        24.3832 
 129   0.0000       0.901901        24.5420 
 130   0.0000       0.912529        24.8312 
 131   0.0000       0.914580        24.8870 
 132   0.0000       0.927179        25.2298 
 133   0.0000       0.930402        25.3175 
 134   0.0000       0.948609        25.8130 
 135   0.0000       0.953749        25.9528 
 136   0.0000       0.955944        26.0126 
 137   0.0000       0.966052        26.2876 
 138   0.0000       0.975051        26.5325 
 139   0.0000       0.986583        26.8463 
 140   0.0000       0.992652        27.0114 
 141   0.0000       1.010217        27.4894 
 142   0.0000       1.018782        27.7225 
 143   0.0000       1.024958        27.8905 
 144   0.0000       1.036006        28.1912 
 145   0.0000       1.055471        28.7208 
 146   0.0000       1.063867        28.9493 
 147   0.0000       1.099999        29.9325 
 148   0.0000       1.139338        31.0030 
 149   0.0000       1.142664        31.0935 
 150   0.0000       1.172002        31.8918 
 151   0.0000       1.220484        33.2111 
 152   0.0000       1.250983        34.0410 
 153   0.0000       1.281946        34.8835 
 154   0.0000       1.290386        35.1132 
 155   0.0000       1.314819        35.7780 
 156   0.0000       1.353434        36.8288 
 157   0.0000       1.360298        37.0156 
 158   0.0000       1.403513        38.1915 
 159   0.0000       1.408826        38.3361 
 160   0.0000       1.429771        38.9061 
 161   0.0000       1.437221        39.1088 
 162   0.0000       1.445436        39.3323 
 163   0.0000       1.460745        39.7489 
 164   0.0000       1.489662        40.5358 
 165   0.0000       1.510221        41.0952 
 166   0.0000       1.537448        41.8361 
 167   0.0000       1.557812        42.3902 
 168   0.0000       1.599441        43.5230 
 169   0.0000       1.646606        44.8064 
 170   0.0000       1.690541        46.0020 
 171   0.0000       1.709817        46.5265 
 172   0.0000       1.751035        47.6481 
 173   0.0000       1.760431        47.9038 
 174   0.0000       1.783921        48.5430 
 175   0.0000       1.793136        48.7937 
 176   0.0000       1.813919        49.3592 
 177   0.0000       1.840475        50.0819 
 178   0.0000       1.850436        50.3529 
 179   0.0000       1.861101        50.6431 
 180   0.0000       1.878239        51.1095 
 181   0.0000       1.893273        51.5186 
 182   0.0000       1.909351        51.9561 
 183   0.0000       1.913207        52.0610 
 184   0.0000       1.933279        52.6072 
 185   0.0000       1.941973        52.8438 
 186   0.0000       1.957250        53.2595 
 187   0.0000       1.960412        53.3455 
 188   0.0000       1.978585        53.8400 
 189   0.0000       1.988242        54.1028 
 190   0.0000       1.996793        54.3355 
 191   0.0000       2.001654        54.4678 
 192   0.0000       2.039515        55.4980 
 193   0.0000       2.046059        55.6761 
 194   0.0000       2.049730        55.7760 
 195   0.0000       2.075701        56.4827 
 196   0.0000       2.085375        56.7459 
 197   0.0000       2.090079        56.8739 
 198   0.0000       2.105663        57.2980 
 199   0.0000       2.120705        57.7073 
 200   0.0000       2.150054        58.5060 
 201   0.0000       2.190840        59.6158 
 202   0.0000       2.198989        59.8375 
 203   0.0000       2.222651        60.4814 
 204   0.0000       2.246090        61.1192 
 205   0.0000       2.262296        61.5602 
 206   0.0000       2.270458        61.7823 
 207   0.0000       2.285564        62.1934 
 208   0.0000       2.302030        62.6414 
 209   0.0000       2.318996        63.1031 
 210   0.0000       2.332090        63.4594 
 211   0.0000       2.363629        64.3176 
 212   0.0000       2.374050        64.6012 
 213   0.0000       2.390415        65.0465 
 214   0.0000       2.402589        65.3778 
 215   0.0000       2.428446        66.0814 
 216   0.0000       2.442025        66.4509 
 217   0.0000       2.493783        67.8593 
 218   0.0000       2.526035        68.7369 
 219   0.0000       2.555113        69.5282 
 220   0.0000       2.568612        69.8955 
 221   0.0000       2.603294        70.8392 
 222   0.0000       2.616619        71.2018 
 223   0.0000       2.630535        71.5805 
 224   0.0000       2.648617        72.0725 
 225   0.0000       2.689798        73.1931 
 226   0.0000       2.713764        73.8453 
 227   0.0000       2.727515        74.2194 
 228   0.0000       2.758266        75.0562 
 229   0.0000       2.805242        76.3345 
 230   0.0000       2.938652        79.9648 
 231   0.0000       2.958534        80.5058 
 232   0.0000       3.009485        81.8923 
 233   0.0000       3.015644        82.0599 
 234   0.0000       3.166976        86.1778 
 235   0.0000       3.185812        86.6904 

                    ********************************
                    * MULLIKEN POPULATION ANALYSIS *
                    ********************************

-----------------------
MULLIKEN ATOMIC CHARGES
-----------------------
   0 C :   -0.551760
   1 H :    0.168908
   2 H :    0.176111
   3 H :    0.188369
   4 C :    0.525341
   5 O :   -0.486007
   6 N :   -0.375671
   7 C :   -0.250679
   8 H :    0.173636
   9 H :    0.203586
  10 C :   -0.159878
  11 H :    0.149070
  12 H :    0.174439
  13 C :   -0.263583
  14 H :    0.164392
  15 H :    0.129447
  16 C :    0.524037
  17 N :   -0.364622
  18 O :   -0.495313
  19 C :   -0.343414
  20 H :    0.149286
  21 H :    0.154667
  22 H :    0.213412
  23 C :   -0.320199
  24 H :    0.149359
  25 H :    0.201078
  26 H :    0.151575
  27 C :   -0.251742
  28 H :    0.128859
  29 H :    0.144599
  30 C :   -0.440961
  31 H :    0.147448
  32 H :    0.140222
  33 H :    0.145990
Sum of atomic charges:    0.0000000

--------------------------------
MULLIKEN REDUCED ORBITAL CHARGES
--------------------------------
  0 C s       :     3.318023  s :     3.318023
      pz      :     1.082524  p :     3.201548
      px      :     1.080851
      py      :     1.038174
      dz2     :     0.002636  d :     0.032188
      dxz     :     0.008459
      dyz     :     0.009032
      dx2y2   :     0.004313
      dxy     :     0.007748
  1 H s       :     0.831092  s :     0.831092
  2 H s       :     0.823889  s :     0.823889
  3 H s       :     0.811631  s :     0.811631
  4 C s       :     2.980325  s :     2.980325
      pz      :     0.801525  p :     2.386159
      px      :     0.774401
      py      :     0.810233
      dz2     :     0.013805  d :     0.108174
      dxz     :     0.025894
      dyz     :     0.009204
      dx2y2   :     0.021694
      dxy     :     0.037578
  5 O s       :     3.876011  s :     3.876011
      pz      :     1.541653  p :     4.583910
      px      :     1.341929
      py      :     1.700329
      dz2     :     0.002935  d :     0.026087
      dxz     :     0.008401
      dyz     :     0.000518
      dx2y2   :     0.007523
      dxy     :     0.006710
  6 N s       :     3.532067  s :     3.532067
      pz      :     1.439231  p :     3.807128
      px      :     1.113117
      py      :     1.254779
      dz2     :     0.005603  d :     0.036476
      dxz     :     0.006970
      dyz     :     0.005149
      dx2y2   :     0.009293
      dxy     :     0.009461
  7 C s       :     3.249843  s :     3.249843
      pz      :     1.054607  p :     2.948807
      px      :     1.030605
      py      :     0.863595
      dz2     :     0.015611  d :     0.052028
      dxz     :     0.005740
      dyz     :     0.007863
      dx2y2   :     0.012857
      dxy     :     0.009958
  8 H s       :     0.826364  s :     0.826364
  9 H s       :     0.796414  s :     0.796414
 10 C s       :     3.212970  s :     3.212970
      pz      :     1.044172  p :     2.892673
      px      :     0.784313
      py      :     1.064188
      dz2     :     0.012074  d :     0.054235
      dxz     :     0.010663
      dyz     :     0.006639
      dx2y2   :     0.016583
      dxy     :     0.008276
 11 H s       :     0.850930  s :     0.850930
 12 H s       :     0.825561  s :     0.825561
 13 C s       :     3.250083  s :     3.250083
      pz      :     0.983864  p :     2.973615
      px      :     0.938041
      py      :     1.051710
      dz2     :     0.010124  d :     0.039885
      dxz     :     0.007154
      dyz     :     0.005951
      dx2y2   :     0.010179
      dxy     :     0.006478
 14 H s       :     0.835608  s :     0.835608
 15 H s       :     0.870553  s :     0.870553
 16 C s       :     2.983135  s :     2.983135
      pz      :     0.758663  p :     2.385204
      px      :     0.789948
      py      :     0.836593
      dz2     :     0.035267  d :     0.107624
      dxz     :     0.021226
      dyz     :     0.022484
      dx2y2   :     0.013686
      dxy     :     0.014961
 17 N s       :     3.530891  s :     3.530891
      pz      :     1.113400  p :     3.796221
      px      :     1.484972
      py      :     1.197848
      dz2     :     0.008801  d :     0.037510
      dxz     :     0.007207
      dyz     :     0.010444
      dx2y2   :     0.004841
      dxy     :     0.006217
 18 O s       :     3.873440  s :     3.873440
      pz      :     1.565579  p :     4.595680
      px      :     1.418415
      py      :     1.611685
      dz2     :     0.005460  d :     0.026193
      dxz     :     0.005944
      dyz     :     0.005858
      dx2y2   :     0.005134
      dxy     :     0.003797
 19 C s       :     3.268625  s :     3.268625
      pz      :     0.938244  p :     3.026265
      px      :     1.038658
      py      :     1.049364
      dz2     :     0.005436  d :     0.048523
      dxz     :     0.015258
      dyz     :     0.012717
      dx2y2   :     0.004065
      dxy     :     0.011048
 20 H s       :     0.850714  s :     0.850714
 21 H s       :     0.845333  s :     0.845333
 22 H s       :     0.786588  s :     0.786588
 23 C s       :     3.254203  s :     3.254203
      pz      :     1.101365  p :     3.017773
      px      :     1.025402
      py      :     0.891005
      dz2     :     0.004601  d :     0.048223
      dxz     :     0.011978
      dyz     :     0.010244
      dx2y2   :     0.009844
      dxy     :     0.011555
 24 H s       :     0.850641  s :     0.850641
 25 H s       :     0.798922  s :     0.798922
 26 H s       :     0.848425  s :     0.848425
 27 C s       :     3.243325  s :     3.243325
      pz      :     1.007828  p :     2.967635
      px      :     0.937156
      py      :     1.022651
      dz2     :     0.011083  d :     0.040782
      dxz     :     0.006459
      dyz     :     0.005653
      dx2y2   :     0.011423
      dxy     :     0.006163
 28 H s       :     0.871141  s :     0.871141
 29 H s       :     0.855401  s :     0.855401
 30 C s       :     3.292683  s :     3.292683
      pz      :     1.021532  p :     3.113291
      px      :     1.041760
      py      :     1.049999
      dz2     :     0.010430  d :     0.034987
      dxz     :     0.004383
      dyz     :     0.005359
      dx2y2   :     0.011841
      dxy     :     0.002975
 31 H s       :     0.852552  s :     0.852552
 32 H s       :     0.859778  s :     0.859778
 33 H s       :     0.854010  s :     0.854010


                     *******************************
                     * LOEWDIN POPULATION ANALYSIS *
                     *******************************

----------------------
LOEWDIN ATOMIC CHARGES
----------------------
   0 C :   -0.389367
   1 H :    0.140263
   2 H :    0.146782
   3 H :    0.153467
   4 C :    0.111274
   5 O :   -0.298137
   6 N :   -0.075369
   7 C :   -0.178438
   8 H :    0.140958
   9 H :    0.158688
  10 C :   -0.159096
  11 H :    0.127179
  12 H :    0.140554
  13 C :   -0.243544
  14 H :    0.133956
  15 H :    0.114887
  16 C :    0.094792
  17 N :   -0.080260
  18 O :   -0.297987
  19 C :   -0.285327
  20 H :    0.120506
  21 H :    0.127097
  22 H :    0.156280
  23 C :   -0.278384
  24 H :    0.120144
  25 H :    0.155335
  26 H :    0.126349
  27 C :   -0.233039
  28 H :    0.115718
  29 H :    0.124093
  30 C :   -0.362088
  31 H :    0.124955
  32 H :    0.121393
  33 H :    0.126364

-------------------------------
LOEWDIN REDUCED ORBITAL CHARGES
-------------------------------
  0 C s       :     2.981841  s :     2.981841
      pz      :     1.128709  p :     3.344023
      px      :     1.121561
      py      :     1.093752
      dz2     :     0.004818  d :     0.063503
      dxz     :     0.016078
      dyz     :     0.017664
      dx2y2   :     0.008754
      dxy     :     0.016188
  1 H s       :     0.859737  s :     0.859737
  2 H s       :     0.853218  s :     0.853218
  3 H s       :     0.846533  s :     0.846533
  4 C s       :     2.848084  s :     2.848084
      pz      :     0.856962  p :     2.785910
      px      :     0.990970
      py      :     0.937978
      dz2     :     0.030686  d :     0.254732
      dxz     :     0.060174
      dyz     :     0.020528
      dx2y2   :     0.051562
      dxy     :     0.091783
  5 O s       :     3.569466  s :     3.569466
      pz      :     1.539440  p :     4.675853
      px      :     1.440758
      py      :     1.695655
      dz2     :     0.006730  d :     0.052819
      dxz     :     0.013978
      dyz     :     0.000796
      dx2y2   :     0.019290
      dxy     :     0.012024
  6 N s       :     3.094593  s :     3.094593
      pz      :     1.441065  p :     3.885541
      px      :     1.168453
      py      :     1.276024
      dz2     :     0.012146  d :     0.095235
      dxz     :     0.018211
      dyz     :     0.013761
      dx2y2   :     0.025256
      dxy     :     0.025860
  7 C s       :     2.930990  s :     2.930990
      pz      :     1.088734  p :     3.137402
      px      :     1.084128
      py      :     0.964540
      dz2     :     0.031895  d :     0.110046
      dxz     :     0.010810
      dyz     :     0.016795
      dx2y2   :     0.028117
      dxy     :     0.022429
  8 H s       :     0.859042  s :     0.859042
  9 H s       :     0.841312  s :     0.841312
 10 C s       :     2.922144  s :     2.922144
      pz      :     1.100470  p :     3.122279
      px      :     0.907018
      py      :     1.114791
      dz2     :     0.023607  d :     0.114673
      dxz     :     0.025218
      dyz     :     0.012996
      dx2y2   :     0.034543
      dxy     :     0.018309
 11 H s       :     0.872821  s :     0.872821
 12 H s       :     0.859446  s :     0.859446
 13 C s       :     2.938822  s :     2.938822
      pz      :     1.073424  p :     3.219704
      px      :     1.039371
      py      :     1.106909
      dz2     :     0.020380  d :     0.085018
      dxz     :     0.016716
      dyz     :     0.012431
      dx2y2   :     0.022097
[...]
     76       0.000902   0.000278  -0.004056   0.000534  -0.186926   0.376114
     77      -0.002000  -0.000630   0.007000  -0.001087   0.336562  -0.672483
     78       0.002514   0.000406   0.001183   0.000094   0.068900  -0.134741
     79       0.002006   0.000341   0.000924   0.000061   0.056842  -0.108482
     80       0.001167   0.000184   0.000433   0.000052   0.028329  -0.055492
     81       0.001006   0.000220  -0.000006  -0.000007   0.000014  -0.000002
     82       0.013177   0.003902   0.000039  -0.000222   0.000035  -0.000013
     83      -0.007693  -0.002523  -0.000016   0.000136  -0.000038  -0.000012
     84      -0.031999  -0.009303  -0.000030   0.000719  -0.000236   0.000025
     85      -0.115900  -0.033031  -0.000166   0.002022  -0.000621   0.000145
     86      -0.004936  -0.001510   0.000000   0.000099  -0.000040   0.000017
     87       0.019039   0.006310   0.000126  -0.000398   0.000019  -0.000020
     88      -0.038861  -0.012690  -0.000165   0.000656  -0.000060  -0.000009
     89       0.096180   0.031451   0.000393  -0.001642   0.000211   0.000005
     90       0.005691   0.000713  -0.000003   0.000055   0.000013  -0.000027
     91       0.014569   0.003768  -0.000022  -0.000062   0.000078  -0.000043
     92      -0.004891  -0.001919  -0.000024   0.000021  -0.000003   0.000014
     93      -0.027419  -0.006885   0.000061   0.000130  -0.000138   0.000052
     94      -0.143670  -0.035820   0.000333   0.000868  -0.000848   0.000366
     95      -0.006736  -0.001900  -0.000003   0.000093  -0.000040   0.000014
     96       0.010904   0.003310   0.000019   0.000019   0.000019  -0.000029
     97      -0.029764  -0.010110  -0.000113   0.000065  -0.000041   0.000100
     98       0.081069   0.026878   0.000278  -0.000222   0.000123  -0.000230
     99      -0.051029  -0.004994  -0.000130  -0.000854   0.000108   0.000339
    100      -0.004217  -0.000154   0.000012  -0.000068  -0.000029   0.000046
    101      -0.015070  -0.001654  -0.000002  -0.000199  -0.000023   0.000075


-----------
IR SPECTRUM
-----------

 Mode   freq       eps      Int      T**2         TX        TY        TZ
       cm**-1   L/(mol*cm) km/mol    a.u.
----------------------------------------------------------------------------
  6:     24.95   0.000562    2.84  0.007024  (-0.071071 -0.017009  0.041028)
  7:     47.46   0.000067    0.34  0.000441  (-0.013426  0.010818 -0.011994)
  8:     49.96   0.000298    1.50  0.001858  ( 0.022822  0.029544 -0.021555)
  9:     71.52   0.000330    1.67  0.001438  (-0.021321 -0.021991  0.022356)
 10:     79.06   0.000092    0.46  0.000362  (-0.012395 -0.005519  0.013355)
 11:     96.84   0.000352    1.78  0.001136  (-0.021386 -0.017408  0.019379)
 12:    114.06   0.001326    6.70  0.003628  (-0.000651 -0.055358 -0.023723)
 13:    134.20   0.001097    5.54  0.002550  ( 0.009975  0.045862  0.018634)
 14:    150.62   0.000256    1.29  0.000531  ( 0.004986 -0.022394 -0.002049)
 15:    161.07   0.000154    0.78  0.000299  (-0.008685 -0.000963  0.014927)
 16:    164.24   0.000015    0.08  0.000028  (-0.000157  0.004306 -0.003117)
 17:    193.99   0.000242    1.22  0.000390  ( 0.015992  0.006306 -0.009709)
 18:    236.20   0.000228    1.15  0.000301  ( 0.006574  0.014920 -0.005969)
 19:    246.71   0.000022    0.11  0.000028  ( 0.003046  0.002563 -0.003481)
 20:    261.78   0.000185    0.94  0.000221  ( 0.010868 -0.001842 -0.009979)
 21:    281.94   0.001380    6.98  0.001528  (-0.026597 -0.028642  0.000472)
 22:    345.98   0.001074    5.43  0.000969  ( 0.000231  0.022764  0.021224)
 23:    360.75   0.000706    3.57  0.000611  ( 0.010502 -0.013058  0.018167)
 24:    387.72   0.001162    5.87  0.000935  ( 0.003944 -0.016964 -0.025136)
 25:    428.06   0.000150    0.76  0.000109  ( 0.001497  0.009970  0.002789)
 26:    444.07   0.001069    5.40  0.000751  (-0.013429  0.022325  0.008524)
 27:    467.13   0.001464    7.40  0.000978  (-0.031170  0.002462  0.000837)
 28:    488.90   0.002935   14.83  0.001873  (-0.022709 -0.030474  0.020714)
 29:    582.26   0.001807    9.13  0.000969  (-0.008174  0.027689  0.011623)
 30:    595.99   0.001589    8.03  0.000832  (-0.016635  0.021758  0.009060)
 31:    633.68   0.002618   13.23  0.001289  ( 0.009115 -0.000495  0.034726)
 32:    703.64   0.000345    1.74  0.000153  ( 0.011547 -0.000061  0.004418)
 33:    740.35   0.001294    6.54  0.000545  (-0.005680 -0.021730  0.006387)
 34:    766.46   0.000872    4.41  0.000355  (-0.002556 -0.015918 -0.009764)
 35:    799.51   0.001291    6.52  0.000504  (-0.011626 -0.016586 -0.009678)
 36:    829.64   0.001949    9.85  0.000733  (-0.013931 -0.011678 -0.020062)
 37:    920.43   0.000404    2.04  0.000137  ( 0.010975 -0.002612 -0.003100)
 38:    953.03   0.000920    4.65  0.000301  (-0.003831 -0.012667  0.011229)
 39:    959.66   0.000589    2.97  0.000191  ( 0.004391  0.013089 -0.000912)
 40:   1006.10   0.003153   15.94  0.000978  (-0.014309 -0.004747 -0.027401)
 41:   1008.31   0.003346   16.91  0.001036  (-0.016020  0.026695  0.008142)
 42:   1029.67   0.003588   18.13  0.001087  ( 0.014678 -0.022918 -0.018620)
 43:   1063.57   0.000682    3.44  0.000200  ( 0.002480 -0.008651 -0.010908)
 44:   1070.33   0.000267    1.35  0.000078  (-0.006020  0.006454  0.000070)
 45:   1079.74   0.003644   18.41  0.001053  ( 0.010237 -0.011963  0.028374)
 46:   1096.07   0.000681    3.44  0.000194  (-0.009748  0.009929  0.000381)
 47:   1140.95   0.000993    5.02  0.000272  (-0.010490 -0.006886 -0.010684)
 48:   1141.47   0.000670    3.38  0.000183  ( 0.007849 -0.002731  0.010677)
 49:   1155.33   0.007490   37.85  0.002023  ( 0.022467  0.027056  0.028042)
 50:   1189.82   0.000617    3.12  0.000162  (-0.009659 -0.006059 -0.005630)
 51:   1205.38   0.005464   27.62  0.001415  (-0.010969  0.005035 -0.035624)
 52:   1238.04   0.002441   12.34  0.000615  ( 0.019260 -0.007646 -0.013637)
 53:   1270.89   0.009638   48.71  0.002367  ( 0.017633 -0.039655  0.021982)
 54:   1291.02   0.007912   39.99  0.001913  ( 0.016205 -0.035819 -0.019156)
 55:   1301.61   0.015348   77.56  0.003680  ( 0.001813  0.055651 -0.024072)
 56:   1311.66   0.000984    4.97  0.000234  (-0.008468  0.012739  0.000226)
 57:   1343.28   0.001557    7.87  0.000362  ( 0.012540 -0.013321  0.005204)
 58:   1354.00   0.001468    7.42  0.000338  (-0.005808  0.017314 -0.002191)
 59:   1374.89   0.000074    0.38  0.000017  ( 0.003823 -0.001375  0.000624)
 60:   1404.46   0.000781    3.95  0.000174  (-0.012899  0.000339 -0.002659)
 61:   1416.07   0.001966    9.93  0.000433  ( 0.015484  0.007226 -0.011884)
 62:   1429.84   0.005102   25.78  0.001114  ( 0.028849 -0.014686  0.008099)
 63:   1441.76   0.001171    5.92  0.000254  ( 0.008282  0.000059  0.013600)
 64:   1447.30   0.006193   31.29  0.001335  (-0.010219 -0.019002 -0.029491)
 65:   1460.46   0.018959   95.81  0.004051  (-0.001751 -0.057554 -0.027121)
 66:   1474.37   0.022582  114.12  0.004780  (-0.033999  0.048182 -0.036087)
 67:   1496.62   0.003020   15.26  0.000630  ( 0.024815 -0.002242  0.002980)
 68:   1500.51   0.001167    5.90  0.000243  (-0.006992  0.003976  0.013342)
 69:   1512.32   0.000957    4.84  0.000198  (-0.003277  0.005587 -0.012474)
 70:   1518.16   0.002194   11.09  0.000451  ( 0.004226  0.019382 -0.007586)
 71:   1519.49   0.001426    7.21  0.000293  (-0.002429 -0.006841  0.015497)
 72:   1522.48   0.001829    9.24  0.000375  (-0.009760  0.016722 -0.000132)
 73:   1525.30   0.000132    0.67  0.000027  (-0.002573  0.002527 -0.003753)
 74:   1529.15   0.001550    7.83  0.000316  ( 0.001098 -0.014482  0.010265)
 75:   1533.08   0.002816   14.23  0.000573  ( 0.009732  0.015602 -0.015332)
 76:   1538.09   0.001832    9.26  0.000372  (-0.016949 -0.008837  0.002498)
 77:   1539.96   0.003616   18.27  0.000733  ( 0.024681  0.007873  0.007846)
 78:   1543.78   0.001567    7.92  0.000317  ( 0.004499 -0.002072 -0.017093)
 79:   1569.88   0.008380   42.35  0.001666  (-0.004252  0.026199  0.031006)
 80:   1745.33   0.040281  203.56  0.007202  ( 0.083152 -0.010430  0.013387)
 81:   1749.60   0.076854  388.39  0.013708  (-0.070989  0.021107 -0.090680)
 82:   3019.09   0.004948   25.01  0.000511  ( 0.011069 -0.007382  0.018287)
 83:   3022.23   0.004639   23.44  0.000479  (-0.006759 -0.016510 -0.012678)
 84:   3027.69   0.015251   77.07  0.001572  ( 0.006402 -0.017502 -0.034994)
 85:   3036.48   0.002496   12.62  0.000257  ( 0.012792 -0.001285  0.009553)
 86:   3041.34   0.006281   31.74  0.000644  (-0.011901  0.010861  0.019617)
 87:   3056.22   0.002937   14.84  0.000300  (-0.000131  0.009073 -0.014751)
 88:   3059.46   0.000932    4.71  0.000095  (-0.005265 -0.005808  0.005799)
 89:   3068.84   0.012703   64.20  0.001292  (-0.029018 -0.020271 -0.006230)
 90:   3070.17   0.004264   21.55  0.000433  (-0.007808 -0.008137 -0.017499)
 91:   3079.76   0.006962   35.18  0.000705  (-0.019848 -0.017647  0.000130)
 92:   3083.05   0.004798   24.25  0.000486  ( 0.004184  0.004438 -0.021177)
 93:   3099.05   0.000965    4.88  0.000097  (-0.000403  0.004071 -0.008969)
 94:   3106.25   0.005538   27.98  0.000556  ( 0.005371 -0.016879  0.015575)
 95:   3112.85   0.007547   38.14  0.000757  (-0.024171 -0.007965 -0.010437)
 96:   3121.04   0.010767   54.41  0.001077  ( 0.003065  0.032067 -0.006236)
 97:   3123.61   0.002768   13.99  0.000277  ( 0.007450  0.004062 -0.014301)
 98:   3165.45   0.000457    2.31  0.000045  (-0.001922 -0.006065 -0.002132)
 99:   3175.99   0.001495    7.56  0.000147  (-0.009433  0.005721 -0.005024)
100:   3187.93   0.002194   11.09  0.000215  ( 0.002446  0.014388  0.001336)
101:   3190.14   0.000182    0.92  0.000018  ( 0.003544  0.001912  0.001274)

* The epsilon (eps) is given for a Dirac delta lineshape.
** The dipole moment derivative (T) already includes vibrational overlap.

The first frequency considered to be a vibration is 6
The total number of vibrations considered is 96


--------------------------
THERMOCHEMISTRY AT 298.15K
--------------------------

Temperature         ... 298.15 K
Pressure            ... 1.00 atm
Total Mass          ... 200.28 AMU

Throughout the following assumptions are being made:
  (1) The electronic state is orbitally nondegenerate
  (2) There are no thermally accessible electronically excited states
  (3) Hindered rotations indicated by low frequency modes are not
      treated as such but are treated as vibrations and this may
      cause some error
  (4) All equations used are the standard statistical mechanics
      equations for an ideal gas
  (5) All vibrations are strictly harmonic

freq.      24.95  E(vib)   ...       0.56 
freq.      47.46  E(vib)   ...       0.53 
freq.      49.96  E(vib)   ...       0.52 
freq.      71.52  E(vib)   ...       0.50 
freq.      79.06  E(vib)   ...       0.49 
freq.      96.84  E(vib)   ...       0.46 
freq.     114.06  E(vib)   ...       0.44 
freq.     134.20  E(vib)   ...       0.42 
freq.     150.62  E(vib)   ...       0.40 
freq.     161.07  E(vib)   ...       0.39 
freq.     164.24  E(vib)   ...       0.39 
freq.     193.99  E(vib)   ...       0.36 
freq.     236.20  E(vib)   ...       0.32 
freq.     246.71  E(vib)   ...       0.31 
freq.     261.78  E(vib)   ...       0.30 
freq.     281.94  E(vib)   ...       0.28 
freq.     345.98  E(vib)   ...       0.23 
freq.     360.75  E(vib)   ...       0.22 
freq.     387.72  E(vib)   ...       0.20 
freq.     428.06  E(vib)   ...       0.18 
freq.     444.07  E(vib)   ...       0.17 
freq.     467.13  E(vib)   ...       0.16 
freq.     488.90  E(vib)   ...       0.15 
freq.     582.26  E(vib)   ...       0.11 
freq.     595.99  E(vib)   ...       0.10 
freq.     633.68  E(vib)   ...       0.09 
freq.     703.64  E(vib)   ...       0.07 
freq.     740.35  E(vib)   ...       0.06 
freq.     766.46  E(vib)   ...       0.06 
freq.     799.51  E(vib)   ...       0.05 
freq.     829.64  E(vib)   ...       0.04 
freq.     920.43  E(vib)   ...       0.03 
freq.     953.03  E(vib)   ...       0.03 
freq.     959.66  E(vib)   ...       0.03 
freq.    1006.10  E(vib)   ...       0.02 
freq.    1008.31  E(vib)   ...       0.02 
freq.    1029.67  E(vib)   ...       0.02 
freq.    1063.57  E(vib)   ...       0.02 
freq.    1070.33  E(vib)   ...       0.02 
freq.    1079.74  E(vib)   ...       0.02 
freq.    1096.07  E(vib)   ...       0.02 
freq.    1140.95  E(vib)   ...       0.01 
freq.    1141.47  E(vib)   ...       0.01 
freq.    1155.33  E(vib)   ...       0.01 
freq.    1189.82  E(vib)   ...       0.01 
freq.    1205.38  E(vib)   ...       0.01 
freq.    1238.04  E(vib)   ...       0.01 
freq.    1270.89  E(vib)   ...       0.01 
freq.    1291.02  E(vib)   ...       0.01 
freq.    1301.61  E(vib)   ...       0.01 
freq.    1311.66  E(vib)   ...       0.01 
freq.    1343.28  E(vib)   ...       0.01 
freq.    1354.00  E(vib)   ...       0.01 
freq.    1374.89  E(vib)   ...       0.01 
freq.    1404.46  E(vib)   ...       0.00 
freq.    1416.07  E(vib)   ...       0.00 
freq.    1429.84  E(vib)   ...       0.00 
freq.    1441.76  E(vib)   ...       0.00 
freq.    1447.30  E(vib)   ...       0.00 
freq.    1460.46  E(vib)   ...       0.00 
freq.    1474.37  E(vib)   ...       0.00 
freq.    1496.62  E(vib)   ...       0.00 
freq.    1500.51  E(vib)   ...       0.00 
freq.    1512.32  E(vib)   ...       0.00 
freq.    1518.16  E(vib)   ...       0.00 
freq.    1519.49  E(vib)   ...       0.00 
freq.    1522.48  E(vib)   ...       0.00 
freq.    1525.30  E(vib)   ...       0.00 
freq.    1529.15  E(vib)   ...       0.00 
freq.    1533.08  E(vib)   ...       0.00 
freq.    1538.09  E(vib)   ...       0.00 
freq.    1539.96  E(vib)   ...       0.00 
freq.    1543.78  E(vib)   ...       0.00 
freq.    1569.88  E(vib)   ...       0.00 
freq.    1745.33  E(vib)   ...       0.00 
freq.    1749.60  E(vib)   ...       0.00 
freq.    3019.09  E(vib)   ...       0.00 
freq.    3022.23  E(vib)   ...       0.00 
freq.    3027.69  E(vib)   ...       0.00 
freq.    3036.48  E(vib)   ...       0.00 
freq.    3041.34  E(vib)   ...       0.00 
freq.    3056.22  E(vib)   ...       0.00 
freq.    3059.46  E(vib)   ...       0.00 
freq.    3068.84  E(vib)   ...       0.00 
freq.    3070.17  E(vib)   ...       0.00 
freq.    3079.76  E(vib)   ...       0.00 
freq.    3083.05  E(vib)   ...       0.00 
freq.    3099.05  E(vib)   ...       0.00 
freq.    3106.25  E(vib)   ...       0.00 
freq.    3112.85  E(vib)   ...       0.00 
freq.    3121.04  E(vib)   ...       0.00 
freq.    3123.61  E(vib)   ...       0.00 
freq.    3165.45  E(vib)   ...       0.00 
freq.    3175.99  E(vib)   ...       0.00 
freq.    3187.93  E(vib)   ...       0.00 
freq.    3190.14  E(vib)   ...       0.00 

------------
INNER ENERGY
------------

The inner energy is: U= E(el) + E(ZPE) + E(vib) + E(rot) + E(trans)
    E(el)   - is the total energy from the electronic structure calculation
              = E(kin-el) + E(nuc-el) + E(el-el) + E(nuc-nuc)
    E(ZPE)  - the the zero temperature vibrational energy from the frequency calculation
    E(vib)  - the the finite temperature correction to E(ZPE) due to population
              of excited vibrational states
    E(rot)  - is the rotational thermal energy
    E(trans)- is the translational thermal energy

Summary of contributions to the inner energy U:
Electronic energy                ...   -652.72611502 Eh
Zero point energy                ...      0.30221856 Eh     189.64 kcal/mol
Thermal vibrational correction   ...      0.01424742 Eh       8.94 kcal/mol
Thermal rotational correction    ...      0.00141627 Eh       0.89 kcal/mol
Thermal translational correction ...      0.00141627 Eh       0.89 kcal/mol
-----------------------------------------------------------------------
Total thermal energy                   -652.40681649 Eh


Summary of corrections to the electronic energy:
(perhaps to be used in another calculation)
Total thermal correction                  0.01707996 Eh      10.72 kcal/mol
Non-thermal (ZPE) correction              0.30221856 Eh     189.64 kcal/mol
-----------------------------------------------------------------------
Total correction                          0.31929853 Eh     200.36 kcal/mol


--------
ENTHALPY
--------

The enthalpy is H = U + kB*T
                kB is Boltzmann's constant
Total free energy                 ...   -652.40681649 Eh 
Thermal Enthalpy correction       ...      0.00094421 Eh       0.59 kcal/mol
-----------------------------------------------------------------------
Total Enthalpy                    ...   -652.40587228 Eh


Note: Only C1 symmetry has been detected, increase convergence thresholds 
      if your molecule has a higher symmetry. Symmetry factor of 1.0 is   
      used for the rotational entropy correction. 
 

Note: Rotational entropy computed according to Herzberg 
Infrared and Raman Spectra, Chapter V,1, Van Nostrand Reinhold, 1945 
Point Group:  C1, Symmetry Number:   1  
Rotational constants in cm-1:     0.021299     0.019129     0.012649 

Vibrational entropy computed according to the QRRHO of S. Grimme
Chem.Eur.J. 2012 18 9955


-------
ENTROPY
-------

The entropy contributions are T*S = T*(S(el)+S(vib)+S(rot)+S(trans))
     S(el)   - electronic entropy
     S(vib)  - vibrational entropy
     S(rot)  - rotational entropy
     S(trans)- translational entropy
The entropies will be listed as multiplied by the temperature to get
units of energy

Electronic entropy                ...      0.00000000 Eh      0.00 kcal/mol
Vibrational entropy               ...      0.02584303 Eh     16.22 kcal/mol
Rotational entropy                ...      0.01525891 Eh      9.58 kcal/mol
Translational entropy             ...      0.01985492 Eh     12.46 kcal/mol
-----------------------------------------------------------------------
Final entropy term                ...      0.06095686 Eh     38.25 kcal/mol

In case the symmetry of your molecule has not been determined correctly
or in case you have a reason to use a different symmetry number we print 
out the resulting rotational entropy values for sn=1,12 :
 --------------------------------------------------------
|  sn= 1 | S(rot)=       0.01525891 Eh      9.58 kcal/mol|
|  sn= 2 | S(rot)=       0.01460445 Eh      9.16 kcal/mol|
|  sn= 3 | S(rot)=       0.01422162 Eh      8.92 kcal/mol|
|  sn= 4 | S(rot)=       0.01395000 Eh      8.75 kcal/mol|
|  sn= 5 | S(rot)=       0.01373931 Eh      8.62 kcal/mol|
|  sn= 6 | S(rot)=       0.01356716 Eh      8.51 kcal/mol|
|  sn= 7 | S(rot)=       0.01342162 Eh      8.42 kcal/mol|
|  sn= 8 | S(rot)=       0.01329554 Eh      8.34 kcal/mol|
|  sn= 9 | S(rot)=       0.01318433 Eh      8.27 kcal/mol|
|  sn=10 | S(rot)=       0.01308485 Eh      8.21 kcal/mol|
|  sn=11 | S(rot)=       0.01299486 Eh      8.15 kcal/mol|
|  sn=12 | S(rot)=       0.01291271 Eh      8.10 kcal/mol|
 --------------------------------------------------------


-------------------
GIBBS FREE ENERGY
-------------------

The Gibbs free energy is G = H - T*S

Total enthalpy                    ...   -652.40587228 Eh 
Total entropy correction          ...     -0.06095686 Eh    -38.25 kcal/mol
-----------------------------------------------------------------------
Final Gibbs free energy         ...   -652.46682914 Eh

For completeness - the Gibbs free energy minus the electronic energy
G-E(el)                           ...      0.25928588 Eh    162.70 kcal/mol


Timings for individual modules:

Sum of individual times         ...     1438.088 sec (=  23.968 min)
GTO integral calculation        ...       18.101 sec (=   0.302 min)   1.3 %
SCF iterations                  ...      693.344 sec (=  11.556 min)  48.2 %
SCF Gradient evaluation         ...      218.256 sec (=   3.638 min)  15.2 %
Geometry relaxation             ...        1.368 sec (=   0.023 min)   0.1 %
Analytical frequency calculation...      507.020 sec (=   8.450 min)  35.3 %
                             ****ORCA TERMINATED NORMALLY****
TOTAL RUN TIME: 0 days 0 hours 24 minutes 4 seconds 697 msec
