
                                 *****************
                                 * O   R   C   A *
                                 *****************

                                            #,                                       
                                            ###                                      
                                            ####                                     
                                            #####                                    
                                            ######                                   
                                           ########,                                 
                                     ,,################,,,,,                         
                               ,,#################################,,                 
                          ,,##########################################,,             
                       ,#########################################, ''#####,          
                    ,#############################################,,   '####,        
                  ,##################################################,,,,####,       
                ,###########''''           ''''###############################       
              ,#####''   ,,,,##########,,,,          '''####'''          '####       
            ,##' ,,,,###########################,,,                        '##       
           ' ,,###''''                  '''############,,,                           
         ,,##''                                '''############,,,,        ,,,,,,###''
      ,#''                                            '''#######################'''  
     '                                                          ''''####''''         
             ,#######,   #######,   ,#######,      ##                                
            ,#'     '#,  ##    ##  ,#'     '#,    #''#        ######   ,####,        
            ##       ##  ##   ,#'  ##            #'  '#       #        #'  '#        
            ##       ##  #######   ##           ,######,      #####,   #    #        
            '#,     ,#'  ##    ##  '#,     ,#' ,#      #,         ##   #,  ,#        
             '#######'   ##     ##  '#######'  #'      '#     #####' # '####'        



                  #######################################################
                  #                        -***-                        #
                  #          Department of theory and spectroscopy      #
                  #    Directorship and core code : Frank Neese         #
                  #        Max Planck Institute fuer Kohlenforschung    #
                  #                Kaiser Wilhelm Platz 1               #
                  #                 D-45470 Muelheim/Ruhr               #
                  #                      Germany                        #
                  #                                                     #
                  #                  All rights reserved                #
                  #                        -***-                        #
                  #######################################################


                         Program Version 5.0.4 -  RELEASE  -


 With contributions from (in alphabetic order):
   Daniel Aravena         : Magnetic Suceptibility
   Michael Atanasov       : Ab Initio Ligand Field Theory (pilot matlab implementation)
   Alexander A. Auer      : GIAO ZORA, VPT2 properties, NMR spectrum
   Ute Becker             : Parallelization
   Giovanni Bistoni       : ED, misc. LED, open-shell LED, HFLD
   Martin Brehm           : Molecular dynamics
   Dmytro Bykov           : SCF Hessian
   Vijay G. Chilkuri      : MRCI spin determinant printing, contributions to CSF-ICE
   Dipayan Datta          : RHF DLPNO-CCSD density
   Achintya Kumar Dutta   : EOM-CC, STEOM-CC
   Dmitry Ganyushin       : Spin-Orbit,Spin-Spin,Magnetic field MRCI
   Miquel Garcia          : C-PCM and meta-GGA Hessian, CC/C-PCM, Gaussian charge scheme
   Yang Guo               : DLPNO-NEVPT2, F12-NEVPT2, CIM, IAO-localization
   Andreas Hansen         : Spin unrestricted coupled pair/coupled cluster methods
   Benjamin Helmich-Paris : MC-RPA, TRAH-SCF, COSX integrals
   Lee Huntington         : MR-EOM, pCC
   Robert Izsak           : Overlap fitted RIJCOSX, COSX-SCS-MP3, EOM
   Marcus Kettner         : VPT2
   Christian Kollmar      : KDIIS, OOCD, Brueckner-CCSD(T), CCSD density, CASPT2, CASPT2-K
   Simone Kossmann        : Meta GGA functionals, TD-DFT gradient, OOMP2, MP2 Hessian
   Martin Krupicka        : Initial AUTO-CI
   Lucas Lang             : DCDCAS
   Marvin Lechner         : AUTO-CI (C++ implementation), FIC-MRCC
   Dagmar Lenk            : GEPOL surface, SMD
   Dimitrios Liakos       : Extrapolation schemes; Compound Job, initial MDCI parallelization
   Dimitrios Manganas     : Further ROCIS development; embedding schemes
   Dimitrios Pantazis     : SARC Basis sets
   Anastasios Papadopoulos: AUTO-CI, single reference methods and gradients
   Taras Petrenko         : DFT Hessian,TD-DFT gradient, ASA, ECA, R-Raman, ABS, FL, XAS/XES, NRVS
   Peter Pinski           : DLPNO-MP2, DLPNO-MP2 Gradient
   Christoph Reimann      : Effective Core Potentials
   Marius Retegan         : Local ZFS, SOC
   Christoph Riplinger    : Optimizer, TS searches, QM/MM, DLPNO-CCSD(T), (RO)-DLPNO pert. Triples
   Tobias Risthaus        : Range-separated hybrids, TD-DFT gradient, RPA, STAB
   Michael Roemelt        : Original ROCIS implementation
   Masaaki Saitow         : Open-shell DLPNO-CCSD energy and density
   Barbara Sandhoefer     : DKH picture change effects
   Avijit Sen             : IP-ROCIS
   Kantharuban Sivalingam : CASSCF convergence, NEVPT2, FIC-MRCI
   Bernardo de Souza      : ESD, SOC TD-DFT
   Georgi Stoychev        : AutoAux, RI-MP2 NMR, DLPNO-MP2 response
   Willem Van den Heuvel  : Paramagnetic NMR
   Boris Wezisla          : Elementary symmetry handling
   Frank Wennmohs         : Technical directorship


 We gratefully acknowledge several colleagues who have allowed us to
 interface, adapt or use parts of their codes:
   Stefan Grimme, W. Hujo, H. Kruse, P. Pracht,  : VdW corrections, initial TS optimization,
                  C. Bannwarth, S. Ehlert          DFT functionals, gCP, sTDA/sTD-DF
   Ed Valeev, F. Pavosevic, A. Kumar             : LibInt (2-el integral package), F12 methods
   Garnet Chan, S. Sharma, J. Yang, R. Olivares  : DMRG
   Ulf Ekstrom                                   : XCFun DFT Library
   Mihaly Kallay                                 : mrcc  (arbitrary order and MRCC methods)
   Jiri Pittner, Ondrej Demel                    : Mk-CCSD
   Frank Weinhold                                : gennbo (NPA and NBO analysis)
   Christopher J. Cramer and Donald G. Truhlar   : smd solvation model
   Lars Goerigk                                  : TD-DFT with DH, B97 family of functionals
   V. Asgeirsson, H. Jonsson                     : NEB implementation
   FAccTs GmbH                                   : IRC, NEB, NEB-TS, DLPNO-Multilevel, CI-OPT
                                                   MM, QMMM, 2- and 3-layer-ONIOM, Crystal-QMMM,
                                                   LR-CPCM, SF, NACMEs, symmetry and pop. for TD-DFT,
                                                   nearIR, NL-DFT gradient (VV10), updates on ESD,
                                                   ML-optimized integration grids
   S Lehtola, MJT Oliveira, MAL Marques          : LibXC Library
   Liviu Ungur et al                             : ANISO software


 Your calculation uses the libint2 library for the computation of 2-el integrals
 For citations please refer to: http://libint.valeyev.net

 Your ORCA version has been built with support for libXC version: 5.1.0
 For citations please refer to: https://tddft.org/programs/libxc/

 This ORCA versions uses:
   CBLAS   interface :  Fast vector & matrix operations
   LAPACKE interface :  Fast linear algebra routines
   SCALAPACK package :  Parallel linear algebra routines
   Shared memory     :  Shared parallel matrices
   BLAS/LAPACK       :  OpenBLAS 0.3.15  USE64BITINT DYNAMIC_ARCH NO_AFFINITY SkylakeX SINGLE_THREADED
        Core in use  :  SkylakeX
   Copyright (c) 2011-2014, The OpenBLAS Project




***************************************
The coordinates will be read from file: /users/fjb15167/WWenergy/structures/Na.xyz
***************************************


Your calculation utilizes the atom-pairwise dispersion correction
based on tight binding partial charges (D4)
Cite in your paper:
E.Caldeweyher, C.Bannwarth, S.Grimme, J.Chem.Phys., (2017), 147, 034112.
E.Caldeweyher, S.Ehlert, A.Hansen, H.Neugebauer, S.Grimme, J.Chem.Phys., (2018), in progress.
   

================================================================================

----- Orbital basis set information -----
Your calculation utilizes the basis: 6-31G(d)
   H-He, Li-Ne : W. J. Hehre, R. Ditchfield and J.A. Pople, J. Chem. Phys. 56, 2257 (1972).
                 Note: He and Ne are unpublished basis sets taken from the Gaussian program.
                 Note: Li and B from J. D. Dill and J. A. Pople, J. Chem. Phys. 62, 2921 (1975).
   Na - Ar     : M. M. Francl, W. J. Pietro, W. J. Hehre, J. S. Binkley, M. S. Gordon, 
                 D. J. DeFrees and J. A. Pople, J. Chem. Phys. 77, 3654 (1982).
   K - Zn      : V. A. Rassolov, J. A. Pople, M. A. Ratner, and T. L. Windus, J. Chem. Phys. 109, 1223 (1998).

----- AuxJ basis set information -----
Your calculation utilizes the AutoAux generation procedure.
  G. L. Stoychev, A. A. Auer, F. Neese, J. Chem. Theory Comput. 13, 554 (2017)

----- AuxC basis set information -----
Your calculation utilizes the AutoAux generation procedure.
  G. L. Stoychev, A. A. Auer, F. Neese, J. Chem. Theory Comput. 13, 554 (2017)

----- AuxJK basis set information -----
Your calculation utilizes the AutoAux generation procedure.
  G. L. Stoychev, A. A. Auer, F. Neese, J. Chem. Theory Comput. 13, 554 (2017)

================================================================================
                                        WARNINGS
                       Please study these warnings very carefully!
================================================================================


WARNING: Geometry Optimization
  ===> : Switching off AutoStart
         For restart on a previous wavefunction, please use MOREAD

INFO   : the flag for use of the SHARK integral package has been found!

================================================================================
                                       INPUT FILE
================================================================================
NAME = Na_gas.inp
|  1> ! OPT FREQ B3LYP 6-31G(d) D4 AUTOAUX
|  2> 
|  3> %PAL NPROCS 4 END
|  4> 
|  5> %maxcore 3375
|  6> 
|  7> *xyzfile 0 1 /users/fjb15167/WWenergy/structures/Na.xyz
|  8> 
|  9>                          ****END OF INPUT****
================================================================================

                       *****************************
                       * Geometry Optimization Run *
                       *****************************

Geometry optimization settings:
Update method            Update   .... BFGS
Choice of coordinates    CoordSys .... Z-matrix Internals
Initial Hessian          InHess   .... Almoef's Model

Convergence Tolerances:
Energy Change            TolE     ....  5.0000e-06 Eh
Max. Gradient            TolMAXG  ....  3.0000e-04 Eh/bohr
RMS Gradient             TolRMSG  ....  1.0000e-04 Eh/bohr
Max. Displacement        TolMAXD  ....  4.0000e-03 bohr
RMS Displacement         TolRMSD  ....  2.0000e-03 bohr
Strict Convergence                ....  False
------------------------------------------------------------------------------
                        ORCA OPTIMIZATION COORDINATE SETUP
------------------------------------------------------------------------------

The optimization will be done in new redundant internal coordinates
Making redundant internal coordinates   ...  (new redundants) done
Evaluating the initial hessian          ...  (Almloef) done
Evaluating the coordinates              ...  done
Calculating the B-matrix                .... done
Calculating the G-matrix                .... done
Diagonalizing the G-matrix              .... done
Small eigenvalue found = 7.616e-03
Small eigenvalue found = 1.257e-02
Small eigenvalue found = 2.329e-02
The first mode is                       ....   41
The number of degrees of freedom        ....   69

    -----------------------------------------------------------------
                    Redundant Internal Coordinates


    -----------------------------------------------------------------
         Definition                    Initial Value    Approx d2E/dq
    -----------------------------------------------------------------
      1. B(O   4,C   0)                  1.2347         0.990181   
      2. B(C   5,H   1)                  1.0922         0.357196   
      3. B(C   5,C   0)                  1.5128         0.397931   
      4. B(C   5,H   3)                  1.0929         0.356332   
      5. B(C   5,H   2)                  1.0896         0.360636   
      6. B(C   7,N   6)                  1.4533         0.443527   
      7. B(H   8,C   7)                  1.0956         0.352772   
      8. B(H   9,C   7)                  1.0945         0.354184   
      9. B(H  10,C   7)                  1.0876         0.363255   
     10. B(C  11,N   6)                  1.4555         0.439916   
     11. B(H  12,C  11)                  1.0956         0.352709   
     12. B(H  13,C  11)                  1.0951         0.353451   
     13. B(H  14,C  11)                  1.0889         0.361555   
     14. B(N  15,C   0)                  1.3856         0.568762   
     15. B(C  16,N  15)                  1.4585         0.435021   
     16. B(H  17,C  16)                  1.0963         0.351831   
     17. B(H  18,C  16)                  1.0958         0.352567   
     18. B(C  19,N  15)                  1.4589         0.434403   
     19. B(H  20,C  19)                  1.0871         0.364000   
     20. B(H  21,C  19)                  1.0962         0.352012   
     21. B(H  22,C  19)                  1.0940         0.354908   
     22. B(C  23,C  16)                  1.5308         0.372443   
     23. B(C  23,N   6)                  1.3651         0.613091   
     24. B(O  24,C  23)                  1.2366         0.983078   
     25. A(O   4,C   0,N  15)          121.2209         0.459055   
     26. A(C   5,C   0,N  15)          117.3602         0.392561   
     27. A(O   4,C   0,C   5)          121.3779         0.433147   
     28. A(H   1,C   5,H   3)          107.3409         0.289991   
     29. A(C   0,C   5,H   2)          106.8800         0.327787   
     30. A(H   1,C   5,H   2)          109.8590         0.290538   
     31. A(C   0,C   5,H   1)          113.0415         0.327270   
     32. A(H   2,C   5,H   3)          108.9938         0.290427   
     33. A(C   0,C   5,H   3)          110.6840         0.327139   
     34. A(C  11,N   6,C  23)          118.7058         0.402253   
     35. A(C   7,N   6,C  11)          115.8123         0.380119   
     36. A(C   7,N   6,C  23)          125.4766         0.402833   
     37. A(H   9,C   7,H  10)          108.0166         0.290482   
     38. A(N   6,C   7,H   9)          108.1958         0.330720   
     39. A(H   8,C   7,H  10)          108.6738         0.290299   
     40. A(N   6,C   7,H  10)          111.0862         0.332107   
     41. A(H   8,C   7,H   9)          108.8381         0.289151   
     42. A(N   6,C   7,H   8)          111.9300         0.330501   
     43. A(N   6,C  11,H  12)          110.4852         0.330045   
     44. A(H  13,C  11,H  14)          109.9593         0.290173   
     45. A(H  12,C  11,H  14)          109.3969         0.290078   
     46. A(N   6,C  11,H  14)          108.2581         0.331400   
     47. A(H  12,C  11,H  13)          108.7812         0.289049   
     48. A(N   6,C  11,H  13)          109.9519         0.330159   
     49. A(C  16,N  15,C  19)          116.4121         0.378020   
     50. A(C   0,N  15,C  19)          116.8074         0.396099   
     51. A(C   0,N  15,C  16)          122.3436         0.396197   
     52. A(H  17,C  16,H  18)          106.9193         0.288823   
     53. A(N  15,C  16,H  18)          107.1574         0.329413   
     54. A(N  15,C  16,H  17)          112.6534         0.329300   
     55. A(H  17,C  16,C  23)          105.3140         0.322924   
     56. A(N  15,C  16,C  23)          116.0269         0.370442   
     57. A(H  18,C  16,C  23)          108.3799         0.323035   
     58. A(H  20,C  19,H  21)          108.8953         0.290294   
     59. A(N  15,C  19,H  21)          111.4962         0.329250   
     60. A(N  15,C  19,H  20)          108.2784         0.331078   
     61. A(H  21,C  19,H  22)          108.7019         0.289145   
     62. A(H  20,C  19,H  22)          109.8252         0.290668   
     63. A(N  15,C  19,H  22)          109.6290         0.329696   
     64. A(C  16,C  23,O  24)          119.1261         0.427478   
     65. A(N   6,C  23,O  24)          123.0578         0.464782   
     66. A(N   6,C  23,C  16)          117.8091         0.393170   
     67. D(H   2,C   5,C   0,N  15)   -171.7506         0.011757   
     68. D(H   2,C   5,C   0,O   4)     10.5522         0.011757   
     69. D(H   1,C   5,C   0,N  15)    -50.7637         0.011757   
     70. D(H   3,C   5,C   0,O   4)   -108.0103         0.011757   
     71. D(H   3,C   5,C   0,N  15)     69.6869         0.011757   
     72. D(H   1,C   5,C   0,O   4)    131.5391         0.011757   
     73. D(H   8,C   7,N   6,C  11)    -81.0716         0.016776   
     74. D(H  10,C   7,N   6,C  23)    -23.6009         0.016776   
     75. D(H   9,C   7,N   6,C  11)     38.8452         0.016776   
     76. D(H   8,C   7,N   6,C  23)     98.0786         0.016776   
     77. D(H  10,C   7,N   6,C  11)    157.2489         0.016776   
     78. D(H   9,C   7,N   6,C  23)   -142.0047         0.016776   
     79. D(H  13,C  11,N   6,C   7)     55.2792         0.016502   
     80. D(H  12,C  11,N   6,C  23)    115.9851         0.016502   
     81. D(H  12,C  11,N   6,C   7)    -64.8039         0.016502   
     82. D(H  14,C  11,N   6,C  23)     -3.7886         0.016502   
     83. D(H  14,C  11,N   6,C   7)    175.4224         0.016502   
     84. D(H  13,C  11,N   6,C  23)   -123.9318         0.016502   
     85. D(C  19,N  15,C   0,C   5)    171.5524         0.025882   
     86. D(C  16,N  15,C   0,C   5)     16.0633         0.025882   
     87. D(C  16,N  15,C   0,O   4)   -166.2357         0.025882   
     88. D(C  19,N  15,C   0,O   4)    -10.7466         0.025882   
     89. D(C  23,C  16,N  15,C  19)    141.8901         0.016135   
     90. D(C  23,C  16,N  15,C   0)    -62.5306         0.016135   
     91. D(H  18,C  16,N  15,C  19)     20.6916         0.016135   
     92. D(H  18,C  16,N  15,C   0)    176.2709         0.016135   
     93. D(H  17,C  16,N  15,C  19)    -96.6241         0.016135   
     94. D(H  17,C  16,N  15,C   0)     58.9551         0.016135   
     95. D(H  21,C  19,N  15,C   0)    -91.2245         0.016089   
     96. D(H  20,C  19,N  15,C  16)   -174.4860         0.016089   
     97. D(H  20,C  19,N  15,C   0)     28.5526         0.016089   
     98. D(H  22,C  19,N  15,C  16)    -54.6835         0.016089   
     99. D(H  22,C  19,N  15,C   0)    148.3552         0.016089   
    100. D(H  21,C  19,N  15,C  16)     65.7369         0.016089   
    101. D(O  24,C  23,C  16,H  18)   -109.8065         0.010378   
    102. D(O  24,C  23,C  16,N  15)    129.6503         0.010378   
    103. D(N   6,C  23,C  16,H  18)     69.2647         0.010378   
    104. D(N   6,C  23,C  16,H  17)   -176.5968         0.010378   
    105. D(N   6,C  23,C  16,N  15)    -51.2785         0.010378   
    106. D(O  24,C  23,N   6,C  11)     -5.9842         0.030384   
    107. D(O  24,C  23,N   6,C   7)    174.8880         0.030384   
    108. D(O  24,C  23,C  16,H  17)      4.3320         0.010378   
    109. D(C  16,C  23,N   6,C  11)    174.9838         0.030384   
    110. D(C  16,C  23,N   6,C   7)     -4.1440         0.030384   
    -----------------------------------------------------------------

Number of atoms                         .... 25
Number of degrees of freedom            .... 110

         *************************************************************
         *                GEOMETRY OPTIMIZATION CYCLE   1            *
         *************************************************************
---------------------------------
CARTESIAN COORDINATES (ANGSTROEM)
---------------------------------
  C     -1.739000    0.622000   -0.433000
  H     -0.623000    2.285000    0.441000
  H     -1.533000    2.622000   -1.058000
  H     -0.006000    1.715000   -1.106000
  O     -2.794000    0.487000   -1.060000
  C     -0.920000    1.890000   -0.533000
  N      1.713000   -0.436000   -0.275000
  C      1.161000   -1.660000   -0.831000
  H      0.575000   -1.470000   -1.737000
  H      1.992000   -2.327000   -1.081000
  H      0.528000   -2.168000   -0.107000
  C      2.932000    0.052000   -0.903000
  H      3.753000   -0.657000   -0.749000
  H      2.773000    0.179000   -1.979000
  H      3.190000    1.008000   -0.450000
  N     -1.234000   -0.402000    0.352000
  C     -0.168000   -0.187000    1.324000
  H     -0.434000    0.556000    2.085000
  H     -0.011000   -1.137000    1.847000
  C     -2.114000   -1.540000    0.595000
  H     -2.790000   -1.635000   -0.251000
  H     -2.705000   -1.403000    1.508000
  H     -1.517000   -2.451000    0.697000
  C      1.175000    0.279000    0.756000
  O      1.730000    1.265000    1.255000

----------------------------
CARTESIAN COORDINATES (A.U.)
----------------------------
  NO LB      ZA    FRAG     MASS         X           Y           Z
   0 C     6.0000    0    12.011   -3.286234    1.175410   -0.818251
   1 H     1.0000    0     1.008   -1.177299    4.318024    0.833369
   2 H     1.0000    0     1.008   -2.896950    4.954862   -1.999330
   3 H     1.0000    0     1.008   -0.011338    3.240880   -2.090037
   4 O     8.0000    0    15.999   -5.279895    0.920297   -2.003110
   5 C     6.0000    0    12.011   -1.738548    3.571582   -1.007224
   6 N     7.0000    0    14.007    3.237101   -0.823921   -0.519675
   7 C     6.0000    0    12.011    2.193972   -3.136945   -1.570362
   8 H     1.0000    0     1.008    1.086593   -2.777897   -3.282454
   9 H     1.0000    0     1.008    3.764334   -4.397393   -2.042794
  10 H     1.0000    0     1.008    0.997775   -4.096926   -0.202201
  11 C     6.0000    0    12.011    5.540677    0.098266   -1.706423
  12 H     1.0000    0     1.008    7.092142   -1.241550   -1.415405
  13 H     1.0000    0     1.008    5.240211    0.338261   -3.739768
  14 H     1.0000    0     1.008    6.028226    1.904844   -0.850377
  15 N     7.0000    0    14.007   -2.331922   -0.759670    0.665184
  16 C     6.0000    0    12.011   -0.317474   -0.353379    2.501997
  17 H     1.0000    0     1.008   -0.820141    1.050688    3.940079
  18 H     1.0000    0     1.008   -0.020787   -2.148619    3.490324
  19 C     6.0000    0    12.011   -3.994881   -2.910178    1.124387
  20 H     1.0000    0     1.008   -5.272336   -3.089702   -0.474321
  21 H     1.0000    0     1.008   -5.111709   -2.651286    2.849707
  22 H     1.0000    0     1.008   -2.866715   -4.631719    1.317139
  23 C     6.0000    0    12.011    2.220428    0.527234    1.428633
  24 O     8.0000    0    15.999    3.269226    2.390504    2.371606

--------------------------------
INTERNAL COORDINATES (ANGSTROEM)
--------------------------------
 C      0   0   0     0.000000000000     0.00000000     0.00000000
 H      1   0   0     2.185154685600     0.00000000     0.00000000
 H      2   1   0     1.785684742613    63.10237182     0.00000000
 H      2   1   3     1.760340308009    65.23371516   292.39133669
 O      1   2   3     1.234657442370   136.28086181   326.53151185
 C      3   2   1     1.089595337729    35.11860885   321.45859003
 N      4   2   1     2.876164633675   101.40451667   274.22163788
 C      7   4   2     1.453277674775   106.99749869   116.48067502
 H      8   7   4     1.095596641105   111.93004377    25.97944592
 H      8   7   4     1.094509022347   108.19575726   145.89617751
 H      8   7   4     1.087625395069   111.08621649   264.29995671
 C      7   4   2     1.455503005837    97.18933232   236.31414826
 H     12   7   4     1.095645015505   110.48520123   182.34635542
 H     12   7   4     1.095073513514   109.95192088   302.42948868
 H     12   7   4     1.088902658643   108.25808310    62.57272489
 N      1   2   3     1.385577857791    98.60944618   170.05855423
 C     16   1   2     1.458548936443   122.34360220   354.94374969
 H     17  16   1     1.096323857261   112.65344007    58.95509168
 H     17  16   1     1.095754534556   107.15737134   176.27087754
 C     16   1   2     1.458935570887   116.80737074   150.43288364
 H     20  16   1     1.087068075145   108.27838092    28.55264314
 H     20  16   1     1.096183834947   111.49621362   268.77547562
 H     20  16   1     1.093953381091   109.62899397   148.35516686
 C      7   4   2     1.365148343588    65.85585854   354.60761050
 O     24   7   4     1.236617159836   123.05780666   269.12777931

---------------------------
INTERNAL COORDINATES (A.U.)
---------------------------
 C      0   0   0     0.000000000000     0.00000000     0.00000000
 H      1   0   0     4.129343916039     0.00000000     0.00000000
 H      2   1   0     3.374455125060    63.10237182     0.00000000
 H      2   1   3     3.326561084639    65.23371516   292.39133669
 O      1   2   3     2.333164435287   136.28086181   326.53151185
 C      3   2   1     2.059036785105    35.11860885   321.45859003
 N      4   2   1     5.435163473715   101.40451667   274.22163788
 C      7   4   2     2.746296801867   106.99749869   116.48067502
 H      8   7   4     2.070377604932   111.93004377    25.97944592
 H      8   7   4     2.068322303343   108.19575726   145.89617751
 H      8   7   4     2.055314132979   111.08621649   264.29995671
 C      7   4   2     2.750502068131    97.18933232   236.31414826
 H     12   7   4     2.070469019300   110.48520123   182.34635542
 H     12   7   4     2.069389037052   109.95192088   302.42948868
 H     12   7   4     2.057727811334   108.25808310    62.57272489
 N      1   2   3     2.618362688450    98.60944618   170.05855423
 C     16   1   2     2.756258042800   122.34360220   354.94374969
 H     17  16   1     2.071751844308   112.65344007    58.95509168
 H     17  16   1     2.070675980313   107.15737134   176.27087754
 C     16   1   2     2.756988676013   116.80737074   150.43288364
 H     20  16   1     2.054260950953   108.27838092    28.55264314
 H     20  16   1     2.071487240482   111.49621362   268.77547562
 H     20  16   1     2.067272293539   109.62899397   148.35516686
 C      7   4   2     2.579756501557    65.85585854   354.60761050
 O     24   7   4     2.336867764597   123.05780666   269.12777931

---------------------
BASIS SET INFORMATION
---------------------
There are 4 groups of distinct atoms

 Group   1 Type C   : 10s4p1d contracted to 3s2p1d pattern {631/31/1}
 Group   2 Type H   : 4s contracted to 2s pattern {31}
 Group   3 Type O   : 10s4p1d contracted to 3s2p1d pattern {631/31/1}
 Group   4 Type N   : 10s4p1d contracted to 3s2p1d pattern {631/31/1}

Atom   0C    basis set group =>   1
Atom   1H    basis set group =>   2
Atom   2H    basis set group =>   2
Atom   3H    basis set group =>   2
Atom   4O    basis set group =>   3
Atom   5C    basis set group =>   1
Atom   6N    basis set group =>   4
Atom   7C    basis set group =>   1
Atom   8H    basis set group =>   2
Atom   9H    basis set group =>   2
Atom  10H    basis set group =>   2
Atom  11C    basis set group =>   1
Atom  12H    basis set group =>   2
Atom  13H    basis set group =>   2
Atom  14H    basis set group =>   2
Atom  15N    basis set group =>   4
Atom  16C    basis set group =>   1
Atom  17H    basis set group =>   2
Atom  18H    basis set group =>   2
Atom  19C    basis set group =>   1
Atom  20H    basis set group =>   2
Atom  21H    basis set group =>   2
Atom  22H    basis set group =>   2
Atom  23C    basis set group =>   1
Atom  24O    basis set group =>   3
---------------------------------
AUXILIARY/J BASIS SET INFORMATION
---------------------------------
There are 4 groups of distinct atoms

 Group   1 Type C   : 13s11p10d2f contracted to 13s11p10d2f pattern {1111111111111/11111111111/1111111111/11}
 Group   2 Type H   : 9s2p contracted to 9s2p pattern {111111111/11}
 Group   3 Type O   : 14s11p10d2f contracted to 14s11p10d2f pattern {11111111111111/11111111111/1111111111/11}
 Group   4 Type N   : 14s11p10d2f contracted to 14s11p10d2f pattern {11111111111111/11111111111/1111111111/11}

Atom   0C    basis set group =>   1
Atom   1H    basis set group =>   2
Atom   2H    basis set group =>   2
Atom   3H    basis set group =>   2
Atom   4O    basis set group =>   3
Atom   5C    basis set group =>   1
Atom   6N    basis set group =>   4
Atom   7C    basis set group =>   1
Atom   8H    basis set group =>   2
Atom   9H    basis set group =>   2
Atom  10H    basis set group =>   2
Atom  11C    basis set group =>   1
Atom  12H    basis set group =>   2
Atom  13H    basis set group =>   2
Atom  14H    basis set group =>   2
Atom  15N    basis set group =>   4
Atom  16C    basis set group =>   1
Atom  17H    basis set group =>   2
Atom  18H    basis set group =>   2
Atom  19C    basis set group =>   1
Atom  20H    basis set group =>   2
Atom  21H    basis set group =>   2
Atom  22H    basis set group =>   2
Atom  23C    basis set group =>   1
Atom  24O    basis set group =>   3
---------------------------------
AUXILIARY/C BASIS SET INFORMATION
---------------------------------
There are 4 groups of distinct atoms

 Group   1 Type C   : 13s11p10d2f contracted to 13s11p10d2f pattern {1111111111111/11111111111/1111111111/11}
 Group   2 Type H   : 9s2p contracted to 9s2p pattern {111111111/11}
 Group   3 Type O   : 14s11p10d2f contracted to 14s11p10d2f pattern {11111111111111/11111111111/1111111111/11}
 Group   4 Type N   : 14s11p10d2f contracted to 14s11p10d2f pattern {11111111111111/11111111111/1111111111/11}

Atom   0C    basis set group =>   1
Atom   1H    basis set group =>   2
Atom   2H    basis set group =>   2
Atom   3H    basis set group =>   2
Atom   4O    basis set group =>   3
Atom   5C    basis set group =>   1
Atom   6N    basis set group =>   4
Atom   7C    basis set group =>   1
Atom   8H    basis set group =>   2
Atom   9H    basis set group =>   2
Atom  10H    basis set group =>   2
Atom  11C    basis set group =>   1
Atom  12H    basis set group =>   2
Atom  13H    basis set group =>   2
Atom  14H    basis set group =>   2
Atom  15N    basis set group =>   4
Atom  16C    basis set group =>   1
Atom  17H    basis set group =>   2
Atom  18H    basis set group =>   2
Atom  19C    basis set group =>   1
Atom  20H    basis set group =>   2
Atom  21H    basis set group =>   2
Atom  22H    basis set group =>   2
Atom  23C    basis set group =>   1
Atom  24O    basis set group =>   3
----------------------------------
AUXILIARY/JK BASIS SET INFORMATION
----------------------------------
There are 4 groups of distinct atoms

 Group   1 Type C   : 13s11p10d2f contracted to 13s11p10d2f pattern {1111111111111/11111111111/1111111111/11}
 Group   2 Type H   : 9s2p contracted to 9s2p pattern {111111111/11}
 Group   3 Type O   : 14s11p10d2f contracted to 14s11p10d2f pattern {11111111111111/11111111111/1111111111/11}
 Group   4 Type N   : 14s11p10d2f contracted to 14s11p10d2f pattern {11111111111111/11111111111/1111111111/11}

Atom   0C    basis set group =>   1
Atom   1H    basis set group =>   2
Atom   2H    basis set group =>   2
Atom   3H    basis set group =>   2
Atom   4O    basis set group =>   3
Atom   5C    basis set group =>   1
Atom   6N    basis set group =>   4
Atom   7C    basis set group =>   1
Atom   8H    basis set group =>   2
Atom   9H    basis set group =>   2
Atom  10H    basis set group =>   2
Atom  11C    basis set group =>   1
Atom  12H    basis set group =>   2
Atom  13H    basis set group =>   2
Atom  14H    basis set group =>   2
Atom  15N    basis set group =>   4
Atom  16C    basis set group =>   1
Atom  17H    basis set group =>   2
Atom  18H    basis set group =>   2
Atom  19C    basis set group =>   1
Atom  20H    basis set group =>   2
Atom  21H    basis set group =>   2
Atom  22H    basis set group =>   2
Atom  23C    basis set group =>   1
Atom  24O    basis set group =>   3


           ************************************************************
           *        Program running with 4 parallel MPI-processes     *
           *              working on a common directory               *
           ************************************************************
------------------------------------------------------------------------------
                           ORCA GTO INTEGRAL CALCULATION
                           -- RI-GTO INTEGRALS CHOSEN --
------------------------------------------------------------------------------
------------------------------------------------------------------------------
                   ___                                                        
                  /   \      - P O W E R E D   B Y -                         
                 /     \                                                     
                 |  |  |   _    _      __       _____    __    __             
                 |  |  |  | |  | |    /  \     |  _  \  |  |  /  |          
                  \  \/   | |  | |   /    \    | | | |  |  | /  /          
                 / \  \   | |__| |  /  /\  \   | |_| |  |  |/  /          
                |  |  |   |  __  | /  /__\  \  |    /   |      \           
                |  |  |   | |  | | |   __   |  |    \   |  |\   \          
                \     /   | |  | | |  |  |  |  | |\  \  |  | \   \       
                 \___/    |_|  |_| |__|  |__|  |_| \__\ |__|  \__/        
                                                                              
                      - O R C A' S   B I G   F R I E N D -                    
                                      &                                       
                       - I N T E G R A L  F E E D E R -                       
                                                                              
 v1 FN, 2020, v2 2021                                                         
------------------------------------------------------------------------------


Reading SHARK input file Na_gas.SHARKINP.tmp ... ok
----------------------
SHARK INTEGRAL PACKAGE
----------------------

Number of atoms                             ...     25
Number of basis functions                   ...    182
Number of shells                            ...     94
Maximum angular momentum                    ...      2
Integral batch strategy                     ... SHARK/LIBINT Hybrid
RI-J (if used) integral strategy            ... SPLIT-RIJ (Revised 2003 algorithm where possible)
Printlevel                                  ...      1
Contraction scheme used                     ... SEGMENTED contraction
Coulomb Range Separation                    ... NOT USED
Exchange Range Separation                   ... NOT USED
Finite Nucleus Model                        ... NOT USED
Auxiliary Coulomb fitting basis             ... AVAILABLE
   # of basis functions in Aux-J            ...   1424
   # of shells in Aux-J                     ...    554
   Maximum angular momentum in Aux-J        ...      3
Auxiliary J/K fitting basis                 ... AVAILABLE
   # of basis functions in Aux-JK           ...   1424
   # of shells in Aux-JK                    ...    554
   Maximum angular momentum in Aux-JK       ...      3
Auxiliary Correlation fitting basis         ... AVAILABLE
   # of basis functions in Aux-C            ...   1424
   # of shells in Aux-C                     ...    554
   Maximum angular momentum in Aux-C        ...      3
Auxiliary 'external' fitting basis          ... NOT available
Integral threshold                          ...     2.500000e-11
Primitive cut-off                           ...     2.500000e-12
Primitive pair pre-selection threshold      ...     2.500000e-12

Calculating pre-screening integrals         ... done (  0.0 sec) Dimension = 94
Organizing shell pair data                  ... done (  0.0 sec)
Shell pair information
Total number of shell pairs                 ...      4465
Shell pairs after pre-screening             ...      4109
Total number of primitive shell pairs       ...     24804
Primitive shell pairs kept                  ...     14171
          la=0 lb=0:   1686 shell pairs
          la=1 lb=0:   1281 shell pairs
          la=1 lb=1:    250 shell pairs
          la=2 lb=0:    596 shell pairs
          la=2 lb=1:    233 shell pairs
          la=2 lb=2:     63 shell pairs

Calculating one electron integrals          ... done (  0.0 sec)
Calculating RI/J V-Matrix + Cholesky decomp.... done (  0.4 sec)
Calculating RI/JK V-Matrix + Cholesky decomp... done (  0.1 sec)
Calculating RI/C V-Matrix + Cholesky decomp.... done (  0.1 sec)
Calculating Nuclear repulsion               ... done (  0.0 sec) ENN=    676.666068432552 Eh

SHARK setup successfully completed in   1.3 seconds

Maximum memory used throughout the entire GTOINT-calculation: 19.8 MB


           ************************************************************
           *        Program running with 4 parallel MPI-processes     *
           *              working on a common directory               *
           ************************************************************
-------------------------------------------------------------------------------
                                 ORCA SCF
-------------------------------------------------------------------------------

------------
SCF SETTINGS
------------
Hamiltonian:
 Density Functional     Method          .... DFT(GTOs)
 Exchange Functional    Exchange        .... B88
   X-Alpha parameter    XAlpha          ....  0.666667
   Becke's b parameter  XBeta           ....  0.004200
 Correlation Functional Correlation     .... LYP
 LDA part of GGA corr.  LDAOpt          .... VWN-5
 Gradients option       PostSCFGGA      .... off
 Hybrid DFT is turned on
   Fraction HF Exchange ScalHFX         ....  0.200000
   Scaling of DF-GGA-X  ScalDFX         ....  0.720000
   Scaling of DF-GGA-C  ScalDFC         ....  0.810000
   Scaling of DF-LDA-C  ScalLDAC        ....  1.000000
   Perturbative correction              ....  0.000000
   Density functional embedding theory  .... OFF
   NL short-range parameter             ....  4.800000
 RI-approximation to the Coulomb term is turned on
   Number of AuxJ basis functions       .... 1424
   RIJ-COSX (HFX calculated with COS-X)).... on


General Settings:
 Integral files         IntName         .... Na_gas
 Hartree-Fock type      HFTyp           .... RHF
 Total Charge           Charge          ....    0
 Multiplicity           Mult            ....    1
 Number of Electrons    NEL             ....   86
 Basis Dimension        Dim             ....  182
 Nuclear Repulsion      ENuc            ....    676.6660684326 Eh

Convergence Acceleration:
 DIIS                   CNVDIIS         .... on
   Start iteration      DIISMaxIt       ....    12
   Startup error        DIISStart       ....  0.200000
   # of expansion vecs  DIISMaxEq       ....     5
   Bias factor          DIISBfac        ....   1.050
   Max. coefficient     DIISMaxC        ....  10.000
 Trust-Rad. Augm. Hess. CNVTRAH         .... auto
   Auto Start mean grad. ratio tolernc. ....  1.125000
   Auto Start start iteration           ....    20
   Auto Start num. interpolation iter.  ....    10
   Max. Number of Micro iterations      ....    16
   Max. Number of Macro iterations      .... Maxiter - #DIIS iter
   Number of Davidson start vectors     ....     2
   Converg. threshold I  (grad. norm)   ....   1.000e-05
   Converg. threshold II (energy diff.) ....   1.000e-08
   Grad. Scal. Fac. for Micro threshold ....   0.100
   Minimum threshold for Micro iter.    ....   0.010
   NR start threshold (gradient norm)   ....   0.001
   Initial trust radius                 ....   0.400
   Minimum AH scaling param. (alpha)    ....   1.000
   Maximum AH scaling param. (alpha)    .... 1000.000
   Orbital update algorithm             .... Taylor
   White noise on init. David. guess    .... on
   Maximum white noise                  ....   0.010
   Quad. conv. algorithm                .... NR
 SOSCF                  CNVSOSCF        .... on
   Start iteration      SOSCFMaxIt      ....   150
   Startup grad/error   SOSCFStart      ....  0.003300
 Level Shifting         CNVShift        .... on
   Level shift para.    LevelShift      ....    0.2500
   Turn off err/grad.   ShiftErr        ....    0.0010
 Zerner damping         CNVZerner       .... off
 Static damping         CNVDamp         .... on
   Fraction old density DampFac         ....    0.7000
   Max. Damping (<1)    DampMax         ....    0.9800
   Min. Damping (>=0)   DampMin         ....    0.0000
   Turn off err/grad.   DampErr         ....    0.1000
 Fernandez-Rico         CNVRico         .... off

SCF Procedure:
 Maximum # iterations   MaxIter         ....   125
 SCF integral mode      SCFMode         .... Direct
   Integral package                     .... SHARK and LIBINT hybrid scheme
 Reset frequency        DirectResetFreq ....    20
 Integral Threshold     Thresh          ....  2.500e-11 Eh
 Primitive CutOff       TCut            ....  2.500e-12 Eh

Convergence Tolerance:
 Convergence Check Mode ConvCheckMode   .... Total+1el-Energy
 Convergence forced     ConvForced      .... 0
 Energy Change          TolE            ....  1.000e-08 Eh
 1-El. energy change                    ....  1.000e-05 Eh
 Orbital Gradient       TolG            ....  1.000e-05
 Orbital Rotation angle TolX            ....  1.000e-05
 DIIS Error             TolErr          ....  5.000e-07


Diagonalization of the overlap matrix:
Smallest eigenvalue                        ... 3.543e-03
Time for diagonalization                   ...    0.035 sec
Threshold for overlap eigenvalues          ... 1.000e-08
Number of eigenvalues below threshold      ... 0
Time for construction of square roots      ...    0.003 sec
Total time needed                          ...    0.039 sec

Time for model grid setup =    0.223 sec

------------------------------
INITIAL GUESS: MODEL POTENTIAL
------------------------------
Loading Hartree-Fock densities                     ... done
Calculating cut-offs                               ... done
Initializing the effective Hamiltonian             ... done
Setting up the integral package (SHARK)            ... done
Starting the Coulomb interaction                   ... done (   0.3 sec)
Reading the grid                                   ... done
Mapping shells                                     ... done
Starting the XC term evaluation                    ... done (   0.1 sec)
  promolecular density results
     # of electrons  =     86.000514786
     EX              =    -69.705765237
     EC              =     -2.901374787
     EX+EC           =    -72.607140023
Transforming the Hamiltonian                       ... done (   0.0 sec)
Diagonalizing the Hamiltonian                      ... done (   0.0 sec)
Back transforming the eigenvectors                 ... done (   0.0 sec)
Now organizing SCF variables                       ... done
                      ------------------
                      INITIAL GUESS DONE (   0.7 sec)
                      ------------------
-------------------
DFT GRID GENERATION
-------------------

General Integration Accuracy     IntAcc      ... 4.388
Radial Grid Type                 RadialGrid  ... OptM3 with GC (2021)
Angular Grid (max. ang.)         AngularGrid ... 4 (Lebedev-302)
Angular grid pruning method      GridPruning ... 4 (adaptive)
Weight generation scheme         WeightScheme... Becke
Basis function cutoff            BFCut       ... 1.0000e-11
Integration weight cutoff        WCut        ... 1.0000e-14
Angular grids for H and He will be reduced by one unit
Partially contracted basis set               ... off
Rotationally invariant grid construction     ... off

Total number of grid points                  ...   110730
Total number of batches                      ...     1742
Average number of points per batch           ...       63
Average number of grid points per atom       ...     4429
Time for grid setup =    0.914 sec

--------------------
COSX GRID GENERATION
--------------------

GRIDX 1
-------
General Integration Accuracy     IntAcc      ... 3.816
Radial Grid Type                 RadialGrid  ... OptM3 with GC (2021)
Angular Grid (max. ang.)         AngularGrid ... 1 (Lebedev-50)
Angular grid pruning method      GridPruning ... 4 (adaptive)
Weight generation scheme         WeightScheme... Becke
Basis function cutoff            BFCut       ... 1.0000e-11
Integration weight cutoff        WCut        ... 1.0000e-14
Angular grids for H and He will be reduced by one unit
Partially contracted basis set               ... on
Rotationally invariant grid construction     ... off

Total number of grid points                  ...    14124
Total number of batches                      ...      235
Average number of points per batch           ...       60
Average number of grid points per atom       ...      565
UseSFitting                                  ... on

GRIDX 2
-------
General Integration Accuracy     IntAcc      ... 4.020
Radial Grid Type                 RadialGrid  ... OptM3 with GC (2021)
Angular Grid (max. ang.)         AngularGrid ... 2 (Lebedev-110)
Angular grid pruning method      GridPruning ... 4 (adaptive)
Weight generation scheme         WeightScheme... Becke
Basis function cutoff            BFCut       ... 1.0000e-11
Integration weight cutoff        WCut        ... 1.0000e-14
Angular grids for H and He will be reduced by one unit
Partially contracted basis set               ... on
Rotationally invariant grid construction     ... off

Total number of grid points                  ...    29966
Total number of batches                      ...      480
Average number of points per batch           ...       62
Average number of grid points per atom       ...     1199
UseSFitting                                  ... on

GRIDX 3
-------
General Integration Accuracy     IntAcc      ... 4.338
Radial Grid Type                 RadialGrid  ... OptM3 with GC (2021)
Angular Grid (max. ang.)         AngularGrid ... 3 (Lebedev-194)
Angular grid pruning method      GridPruning ... 4 (adaptive)
Weight generation scheme         WeightScheme... Becke
Basis function cutoff            BFCut       ... 1.0000e-11
Integration weight cutoff        WCut        ... 1.0000e-14
Angular grids for H and He will be reduced by one unit
Partially contracted basis set               ... on
Rotationally invariant grid construction     ... off

Total number of grid points                  ...    65395
Total number of batches                      ...     1035
Average number of points per batch           ...       63
Average number of grid points per atom       ...     2616
UseSFitting                                  ... on

Time for X-Grid setup             =    0.727 sec

--------------
SCF ITERATIONS
--------------
ITER       Energy         Delta-E        Max-DP      RMS-DP      [F,P]     Damp
               ***  Starting incremental Fock matrix formation  ***
  0   -534.4397627216   0.000000000000 0.09721077  0.00284652  0.2729000 0.7000
  1   -534.6159917503  -0.176229028658 0.05322573  0.00182382  0.1011500 0.7000
                               ***Turning on DIIS***
  2   -534.6797595058  -0.063767755537 0.06664457  0.00266251  0.0402061 0.0000
  3   -534.7881961994  -0.108436693548 0.03821021  0.00128037  0.0512535 0.0000
  4   -534.8081157680  -0.019919568594 0.00917696  0.00041387  0.0149395 0.0000
                      *** Initiating the SOSCF procedure ***
                           *** Shutting down DIIS ***
                      *** Re-Reading the Fockian *** 
                      *** Removing any level shift *** 
ITER      Energy       Delta-E        Grad      Rot      Max-DP    RMS-DP
  5   -534.81018349  -0.0020677176  0.000874  0.000874  0.003155  0.000113
               *** Restarting incremental Fock matrix formation ***
  6   -534.81025995  -0.0000764688  0.000395  0.001528  0.002311  0.000072
  7   -534.81024380   0.0000161540  0.001034  0.001361  0.001377  0.000044
  8   -534.81026944  -0.0000256392  0.000191  0.000487  0.000576  0.000018
  9   -534.81026816   0.0000012756  0.000317  0.000310  0.000374  0.000011
 10   -534.81027011  -0.0000019451  0.000007  0.000009  0.000057  0.000001
 11   -534.81027011   0.0000000033  0.000009  0.000005  0.000033  0.000001
                  ***Gradient check signals convergence***
              ***Rediagonalizing the Fockian in SOSCF/NRSCF***

               *****************************************************
               *                     SUCCESS                       *
               *           SCF CONVERGED AFTER  12 CYCLES          *
               *****************************************************

Old exchange energy                            =    -14.202372702 Eh
New exchange energy                            =    -14.202359086 Eh
Exchange energy change after final integration =      0.000013616 Eh
Total energy after final integration           =   -534.810256494 Eh
Final COS-X integration done in                =     5.105 sec

----------------
TOTAL SCF ENERGY
----------------

Total Energy       :         -534.81025649 Eh          -14552.92694 eV

Components:
Nuclear Repulsion  :          676.66606843 Eh           18413.01982 eV
Electronic Energy  :        -1211.47632493 Eh          -32965.94676 eV
One Electron Energy:        -2069.39963383 Eh          -56311.22684 eV
Two Electron Energy:          857.92330890 Eh           23345.28009 eV
Max COSX asymmetry :            0.00000244 Eh               0.00007 eV

Virial components:
Potential Energy   :        -1066.47337327 Eh          -29020.21585 eV
Kinetic Energy     :          531.66311678 Eh           14467.28891 eV
Virial Ratio       :            2.00591942


DFT components:
N(Alpha)           :       42.999971242969 electrons
N(Beta)            :       42.999971242969 electrons
N(Total)           :       85.999942485938 electrons
E(X)               :      -56.411477869366 Eh       
E(C)               :       -3.420462540329 Eh       
E(XC)              :      -59.831940409694 Eh       
DFET-embed. en.    :        0.000000000000 Eh       

---------------
SCF CONVERGENCE
---------------

  Last Energy change         ...   -4.7237e-09  Tolerance :   1.0000e-08
  Last MAX-Density change    ...    3.1086e-15  Tolerance :   1.0000e-07
  Last RMS-Density change    ...    4.3991e-17  Tolerance :   5.0000e-09
  Last Orbital Gradient      ...    8.5877e-07  Tolerance :   1.0000e-05
  Last Orbital Rotation      ...    2.1691e-06  Tolerance :   1.0000e-05

             **** THE GBW FILE WAS UPDATED (Na_gas.gbw) ****
             **** DENSITY Na_gas.scfp WAS UPDATED ****
             **** ENERGY FILE WAS UPDATED (Na_gas.en.tmp) ****
             **** THE GBW FILE WAS UPDATED (Na_gas.gbw) ****
             **** DENSITY Na_gas.scfp WAS UPDATED ****
----------------
ORBITAL ENERGIES
----------------

  NO   OCC          E(Eh)            E(eV) 
   0   2.0000     -19.107874      -519.9517 
   1   2.0000     -19.101301      -519.7728 
   2   2.0000     -14.366856      -390.9420 
   3   2.0000     -14.359109      -390.7312 
   4   2.0000     -10.284448      -279.8540 
   5   2.0000     -10.277287      -279.6592 
   6   2.0000     -10.228309      -278.3264 
   7   2.0000     -10.221237      -278.1340 
   8   2.0000     -10.208044      -277.7750 
   9   2.0000     -10.205803      -277.7140 
  10   2.0000     -10.170944      -276.7654 
  11   2.0000      -1.031148       -28.0590 
  12   2.0000      -1.020762       -27.7764 
  13   2.0000      -0.940348       -25.5882 
  14   2.0000      -0.928560       -25.2674 
  15   2.0000      -0.755980       -20.5713 
  16   2.0000      -0.744346       -20.2547 
  17   2.0000      -0.727666       -19.8008 
  18   2.0000      -0.691849       -18.8262 
  19   2.0000      -0.675290       -18.3756 
  20   2.0000      -0.565482       -15.3875 
  21   2.0000      -0.548129       -14.9154 
  22   2.0000      -0.499644       -13.5960 
  23   2.0000      -0.494731       -13.4623 
  24   2.0000      -0.489838       -13.3292 
  25   2.0000      -0.470661       -12.8073 
  26   2.0000      -0.460550       -12.5322 
  27   2.0000      -0.452220       -12.3055 
  28   2.0000      -0.424676       -11.5560 
  29   2.0000      -0.415133       -11.2964 
  30   2.0000      -0.413667       -11.2564 
  31   2.0000      -0.408307       -11.1106 
  32   2.0000      -0.401225       -10.9179 
  33   2.0000      -0.398684       -10.8488 
  34   2.0000      -0.388587       -10.5740 
  35   2.0000      -0.384145       -10.4531 
  36   2.0000      -0.379301       -10.3213 
  37   2.0000      -0.355163        -9.6645 
  38   2.0000      -0.344741        -9.3809 
  39   2.0000      -0.256439        -6.9781 
  40   2.0000      -0.244611        -6.6562 
  41   2.0000      -0.243741        -6.6325 
  42   2.0000      -0.233477        -6.3532 
  43   0.0000       0.013596         0.3700 
  44   0.0000       0.025207         0.6859 
  45   0.0000       0.068281         1.8580 
  46   0.0000       0.090296         2.4571 
  47   0.0000       0.121317         3.3012 
  48   0.0000       0.125864         3.4249 
  49   0.0000       0.136426         3.7123 
  50   0.0000       0.140696         3.8285 
  51   0.0000       0.151419         4.1203 
  52   0.0000       0.160399         4.3647 
  53   0.0000       0.162053         4.4097 
  54   0.0000       0.168387         4.5820 
  55   0.0000       0.170802         4.6478 
  56   0.0000       0.177144         4.8203 
  57   0.0000       0.184253         5.0138 
  58   0.0000       0.185439         5.0461 
  59   0.0000       0.201344         5.4789 
  60   0.0000       0.221087         6.0161 
  61   0.0000       0.231710         6.3052 
  62   0.0000       0.236598         6.4381 
  63   0.0000       0.263150         7.1607 
  64   0.0000       0.269974         7.3464 
  65   0.0000       0.330102         8.9825 
  66   0.0000       0.342849         9.3294 
  67   0.0000       0.373067        10.1517 
  68   0.0000       0.400581        10.9004 
  69   0.0000       0.471889        12.8407 
  70   0.0000       0.491395        13.3715 
  71   0.0000       0.495518        13.4837 
  72   0.0000       0.513682        13.9780 
  73   0.0000       0.528081        14.3698 
  74   0.0000       0.540778        14.7153 
  75   0.0000       0.546863        14.8809 
  76   0.0000       0.564227        15.3534 
  77   0.0000       0.580705        15.8018 
  78   0.0000       0.612903        16.6779 
  79   0.0000       0.625077        17.0092 
  80   0.0000       0.630230        17.1494 
  81   0.0000       0.649790        17.6817 
  82   0.0000       0.680407        18.5148 
  83   0.0000       0.688805        18.7433 
  84   0.0000       0.693296        18.8655 
  85   0.0000       0.698178        18.9984 
  86   0.0000       0.706803        19.2331 
  87   0.0000       0.757939        20.6246 
  88   0.0000       0.787464        21.4280 
  89   0.0000       0.796384        21.6707 
  90   0.0000       0.811680        22.0869 
  91   0.0000       0.817468        22.2444 
  92   0.0000       0.833637        22.6844 
  93   0.0000       0.849165        23.1070 
  94   0.0000       0.856326        23.3018 
  95   0.0000       0.869188        23.6518 
  96   0.0000       0.871571        23.7167 
  97   0.0000       0.883505        24.0414 
  98   0.0000       0.893965        24.3260 
  99   0.0000       0.909797        24.7568 
 100   0.0000       0.914212        24.8770 
 101   0.0000       0.920356        25.0442 
 102   0.0000       0.929331        25.2884 
 103   0.0000       0.941418        25.6173 
 104   0.0000       0.964060        26.2334 
 105   0.0000       0.969523        26.3821 
 106   0.0000       0.975197        26.5365 
 107   0.0000       0.994192        27.0533 
 108   0.0000       1.008454        27.4414 
 109   0.0000       1.043235        28.3879 
 110   0.0000       1.044659        28.4266 
 111   0.0000       1.082268        29.4500 
 112   0.0000       1.106287        30.1036 
 113   0.0000       1.112374        30.2692 
 114   0.0000       1.147631        31.2286 
 115   0.0000       1.174241        31.9527 
 116   0.0000       1.215022        33.0624 
 117   0.0000       1.229327        33.4517 
 118   0.0000       1.281519        34.8719 
 119   0.0000       1.311637        35.6915 
 120   0.0000       1.344838        36.5949 
 121   0.0000       1.357571        36.9414 
 122   0.0000       1.401757        38.1437 
 123   0.0000       1.407869        38.3101 
 124   0.0000       1.438147        39.1340 
 125   0.0000       1.456631        39.6369 
 126   0.0000       1.466441        39.9039 
 127   0.0000       1.499457        40.8023 
 128   0.0000       1.566871        42.6367 
 129   0.0000       1.643720        44.7279 
 130   0.0000       1.667170        45.3660 
 131   0.0000       1.736840        47.2618 
 132   0.0000       1.741194        47.3803 
 133   0.0000       1.767949        48.1083 
 134   0.0000       1.786025        48.6002 
 135   0.0000       1.813009        49.3345 
 136   0.0000       1.818005        49.4704 
 137   0.0000       1.829724        49.7893 
 138   0.0000       1.852085        50.3978 
 139   0.0000       1.884637        51.2836 
 140   0.0000       1.912044        52.0294 
 141   0.0000       1.919740        52.2388 
 142   0.0000       1.948613        53.0245 
 143   0.0000       1.959452        53.3194 
 144   0.0000       1.976789        53.7912 
 145   0.0000       1.986533        54.0563 
 146   0.0000       1.997985        54.3679 
 147   0.0000       2.030891        55.2634 
 148   0.0000       2.048234        55.7353 
 149   0.0000       2.062666        56.1280 
 150   0.0000       2.084124        56.7119 
 151   0.0000       2.098850        57.1126 
 152   0.0000       2.113454        57.5100 
 153   0.0000       2.128349        57.9153 
 154   0.0000       2.156282        58.6754 
 155   0.0000       2.178989        59.2933 
 156   0.0000       2.223349        60.5004 
 157   0.0000       2.236076        60.8467 
 158   0.0000       2.272755        61.8448 
 159   0.0000       2.296751        62.4978 
 160   0.0000       2.308409        62.8150 
 161   0.0000       2.330230        63.4088 
 162   0.0000       2.343343        63.7656 
 163   0.0000       2.371490        64.5315 
 164   0.0000       2.411671        65.6249 
 165   0.0000       2.422314        65.9145 
 166   0.0000       2.446999        66.5862 
 167   0.0000       2.489736        67.7492 
 168   0.0000       2.557123        69.5829 
 169   0.0000       2.574534        70.0566 
 170   0.0000       2.618634        71.2567 
 171   0.0000       2.627571        71.4998 
 172   0.0000       2.647186        72.0336 
 173   0.0000       2.679753        72.9198 
 174   0.0000       2.711708        73.7893 
 175   0.0000       2.739711        74.5513 
 176   0.0000       2.892782        78.7166 
 177   0.0000       2.959819        80.5408 
 178   0.0000       3.002526        81.7029 
 179   0.0000       3.027958        82.3949 
 180   0.0000       3.151497        85.7566 
 181   0.0000       3.178154        86.4820 

                    ********************************
                    * MULLIKEN POPULATION ANALYSIS *
                    ********************************

-----------------------
MULLIKEN ATOMIC CHARGES
-----------------------
   0 C :    0.519753
   1 H :    0.188240
   2 H :    0.183880
   3 H :    0.180036
   4 O :   -0.470649
   5 C :   -0.556449
   6 N :   -0.366281
   7 C :   -0.307222
   8 H :    0.172029
   9 H :    0.158375
  10 H :    0.163954
  11 C :   -0.326163
  12 H :    0.156256
  13 H :    0.154816
  14 H :    0.205581
  15 N :   -0.379426
  16 C :   -0.258858
  17 H :    0.185245
  18 H :    0.170858
  19 C :   -0.322282
  20 H :    0.203810
  21 H :    0.157583
  22 H :    0.141018
  23 C :    0.529872
  24 O :   -0.483976
Sum of atomic charges:   -0.0000000

--------------------------------
MULLIKEN REDUCED ORBITAL CHARGES
--------------------------------
  0 C s       :     2.984112  s :     2.984112
      pz      :     0.783120  p :     2.388846
      px      :     0.786269
      py      :     0.819457
      dz2     :     0.020551  d :     0.107289
      dxz     :     0.017916
      dyz     :     0.016778
      dx2y2   :     0.019248
      dxy     :     0.032796
  1 H s       :     0.811760  s :     0.811760
  2 H s       :     0.816120  s :     0.816120
  3 H s       :     0.819964  s :     0.819964
  4 O s       :     3.866199  s :     3.866199
      pz      :     1.469452  p :     4.577887
      px      :     1.374126
      py      :     1.734309
      dz2     :     0.005495  d :     0.026562
      dxz     :     0.007791
      dyz     :     0.002039
      dx2y2   :     0.006306
      dxy     :     0.004931
  5 C s       :     3.321700  s :     3.321700
      pz      :     1.103141  p :     3.202714
      px      :     1.073680
      py      :     1.025893
      dz2     :     0.005650  d :     0.032034
      dxz     :     0.007439
      dyz     :     0.005764
      dx2y2   :     0.004957
      dxy     :     0.008225
  6 N s       :     3.527116  s :     3.527116
      pz      :     1.307416  p :     3.802213
      px      :     1.256113
      py      :     1.238684
      dz2     :     0.007382  d :     0.036952
      dxz     :     0.006851
      dyz     :     0.006971
      dx2y2   :     0.007213
      dxy     :     0.008535
  7 C s       :     3.254729  s :     3.254729
      pz      :     1.065315  p :     3.003152
      px      :     1.057628
      py      :     0.880209
      dz2     :     0.007694  d :     0.049341
      dxz     :     0.012065
      dyz     :     0.009218
      dx2y2   :     0.007282
      dxy     :     0.013082
  8 H s       :     0.827971  s :     0.827971
  9 H s       :     0.841625  s :     0.841625
 10 H s       :     0.836046  s :     0.836046
 11 C s       :     3.257095  s :     3.257095
      pz      :     1.032273  p :     3.020808
      px      :     0.881367
      py      :     1.107169
      dz2     :     0.013712  d :     0.048260
      dxz     :     0.007495
      dyz     :     0.005565
      dx2y2   :     0.009413
      dxy     :     0.012075
 12 H s       :     0.843744  s :     0.843744
 13 H s       :     0.845184  s :     0.845184
 14 H s       :     0.794419  s :     0.794419
 15 N s       :     3.536416  s :     3.536416
      pz      :     1.342784  p :     3.806624
      px      :     1.269914
      py      :     1.193926
      dz2     :     0.005704  d :     0.036386
      dxz     :     0.007282
      dyz     :     0.007175
      dx2y2   :     0.007258
      dxy     :     0.008967
 16 C s       :     3.253481  s :     3.253481
      pz      :     0.960105  p :     2.952760
      px      :     0.886040
      py      :     1.106616
      dz2     :     0.007806  d :     0.052617
      dxz     :     0.012845
      dyz     :     0.013083
      dx2y2   :     0.013043
      dxy     :     0.005839
 17 H s       :     0.814755  s :     0.814755
 18 H s       :     0.829142  s :     0.829142
 19 C s       :     3.256085  s :     3.256085
      pz      :     1.121264  p :     3.017715
      px      :     0.999829
      py      :     0.896622
      dz2     :     0.008978  d :     0.048482
      dxz     :     0.013655
      dyz     :     0.003675
      dx2y2   :     0.007888
      dxy     :     0.014286
 20 H s       :     0.796190  s :     0.796190
 21 H s       :     0.842417  s :     0.842417
 22 H s       :     0.858982  s :     0.858982
 23 C s       :     2.977915  s :     2.977915
      pz      :     0.776742  p :     2.383810
      px      :     0.834771
      py      :     0.772296
      dz2     :     0.024007  d :     0.108404
      dxz     :     0.014595
      dyz     :     0.023143
      dx2y2   :     0.022242
      dxy     :     0.024416
 24 O s       :     3.872378  s :     3.872378
      pz      :     1.563174  p :     4.584987
      px      :     1.636007
      py      :     1.385806
      dz2     :     0.004010  d :     0.026612
      dxz     :     0.003586
      dyz     :     0.006038
      dx2y2   :     0.007157
      dxy     :     0.005820


                     *******************************
                     * LOEWDIN POPULATION ANALYSIS *
                     *******************************

----------------------
LOEWDIN ATOMIC CHARGES
----------------------
   0 C :    0.115234
   1 H :    0.151235
   2 H :    0.152024
   3 H :    0.150685
   4 O :   -0.278285
   5 C :   -0.393755
   6 N :   -0.082182
   7 C :   -0.271296
   8 H :    0.131489
   9 H :    0.129388
  10 H :    0.134818
  11 C :   -0.278634
  12 H :    0.125920
  13 H :    0.125175
  14 H :    0.158084
  15 N :   -0.105513
  16 C :   -0.179367
  17 H :    0.143272
  18 H :    0.145304
  19 C :   -0.279200
  20 H :    0.156579
  21 H :    0.123663
  22 H :    0.117312
  23 C :    0.094941
  24 O :   -0.286892

-------------------------------
LOEWDIN REDUCED ORBITAL CHARGES
-------------------------------
  0 C s       :     2.850871  s :     2.850871
      pz      :     0.867447  p :     2.780483
      px      :     0.954426
      py      :     0.958610
      dz2     :     0.044956  d :     0.253411
      dxz     :     0.043866
      dyz     :     0.040296
      dx2y2   :     0.043984
      dxy     :     0.080308
  1 H s       :     0.848765  s :     0.848765
  2 H s       :     0.847976  s :     0.847976
  3 H s       :     0.849315  s :     0.849315
  4 O s       :     3.567442  s :     3.567442
      pz      :     1.484041  p :     4.657551
      px      :     1.443639
      py      :     1.729871
      dz2     :     0.008427  d :     0.053292
      dxz     :     0.018124
      dyz     :     0.003467
      dx2y2   :     0.013799
      dxy     :     0.009476
  5 C s       :     2.981906  s :     2.981906
      pz      :     1.142180  p :     3.348506
      px      :     1.120051
      py      :     1.086274
      dz2     :     0.010646  d :     0.063343
      dxz     :     0.013633
      dyz     :     0.011351
      dx2y2   :     0.010079
      dxy     :     0.017633
  6 N s       :     3.086447  s :     3.086447
      pz      :     1.337990  p :     3.899091
      px      :     1.285749
      py      :     1.275352
      dz2     :     0.017482  d :     0.096644
      dxz     :     0.018897
      dyz     :     0.019571
      dx2y2   :     0.019544
      dxy     :     0.021150
  7 C s       :     2.959601  s :     2.959601
      pz      :     1.116420  p :     3.213390
      px      :     1.115166
      py      :     0.981804
      dz2     :     0.014751  d :     0.098305
      dxz     :     0.023641
      dyz     :     0.018472
      dx2y2   :     0.015131
      dxy     :     0.026310
  8 H s       :     0.868511  s :     0.868511
  9 H s       :     0.870612  s :     0.870612
 10 H s       :     0.865182  s :     0.865182
 11 C s       :     2.962493  s :     2.962493
      pz      :     1.094993  p :     3.220270
      px      :     0.982356
      py      :     1.142921
      dz2     :     0.026926  d :     0.095871
      dxz     :     0.015271
      dyz     :     0.010321
      dx2y2   :     0.019420
      dxy     :     0.023934
 12 H s       :     0.874080  s :     0.874080
 13 H s       :     0.874825  s :     0.874825
 14 H s       :     0.841916  s :     0.841916
 15 N s       :     3.106556  s :     3.106556
      pz      :     1.370635  p :     3.904322
      px      :     1.284404
      py      :     1.249282
      dz2     :     0.014256  d :     0.094635
      dxz     :     0.018740
      dyz     :     0.019201
      dx2y2   :     0.019223
      dxy     :     0.023215
 16 C s       :     2.932659  s :     2.932659
      pz      :     1.029465  p :     3.135053
      px      :     0.979043
      py      :     1.126545
      dz2     :     0.016812  d :     0.111656
      dxz     :     0.028642
      dyz     :     0.026180
      dx2y2   :     0.027635
      dxy     :     0.012386
 17 H s       :     0.856728  s :     0.856728
 18 H s       :     0.854696  s :     0.854696
 19 C s       :     2.962975  s :     2.962975
      pz      :     1.155858  p :     3.219659
      px      :     1.070797
      py      :     0.993003
      dz2     :     0.016778  d :     0.096566
      dxz     :     0.026497
      dyz     :     0.006938
      dx2y2   :     0.016929
      dxy     :     0.029424
 20 H s       :     0.843421  s :     0.843421
 21 H s       :     0.876337  s :     0.876337
 22 H s       :     0.882688  s :     0.882688
 23 C s       :     2.851421  s :     2.851421
      pz      :     0.904646  p :     2.796956
      px      :     0.960481
      py      :     0.931829
      dz2     :     0.055814  d :     0.256683
      dxz     :     0.032550
      dyz     :     0.059109
      dx2y2   :     0.050904
      dxy     :     0.058306
 24 O s       :     3.566829  s :     3.566829
      pz      :     1.567306  p :     4.666362
      px      :     1.652172
      py      :     1.446884
      dz2     :     0.007395  d :     0.053701
      dxz     :     0.006411
      dyz     :     0.012958
      dx2y2   :     0.012495
      dxy     :     0.014441


                      *****************************
                      * MAYER POPULATION ANALYSIS *
                      *****************************

  NA   - Mulliken gross atomic population
  ZA   - Total nuclear charge
  QA   - Mulliken gross atomic charge
  VA   - Mayer's total valence
  BVA  - Mayer's bonded valence
  FA   - Mayer's free valence

  ATOM       NA         ZA         QA         VA         BVA        FA
  0 C      5.4802     6.0000     0.5198     3.9745     3.9745     0.0000
  1 H      0.8118     1.0000     0.1882     0.9329     0.9329     0.0000
  2 H      0.8161     1.0000     0.1839     0.9381     0.9381    -0.0000
  3 H      0.8200     1.0000     0.1800     0.9307     0.9307    -0.0000
  4 O      8.4706     8.0000    -0.4706     2.0722     2.0722     0.0000
  5 C      6.5564     6.0000    -0.5564     3.7888     3.7888    -0.0000
  6 N      7.3663     7.0000    -0.3663     3.1312     3.1312    -0.0000
  7 C      6.3072     6.0000    -0.3072     3.8069     3.8069     0.0000
  8 H      0.8280     1.0000     0.1720     0.9240     0.9240     0.0000
  9 H      0.8416     1.0000     0.1584     0.9297     0.9297     0.0000
 10 H      0.8360     1.0000     0.1640     0.9375     0.9375    -0.0000
 11 C      6.3262     6.0000    -0.3262     3.7855     3.7855    -0.0000
 12 H      0.8437     1.0000     0.1563     0.9297     0.9297    -0.0000
 13 H      0.8452     1.0000     0.1548     0.9287     0.9287    -0.0000
 14 H      0.7944     1.0000     0.2056     0.9467     0.9467    -0.0000
 15 N      7.3794     7.0000    -0.3794     3.0503     3.0503     0.0000
 16 C      6.2589     6.0000    -0.2589     3.7700     3.7700    -0.0000
 17 H      0.8148     1.0000     0.1852     0.9322     0.9322    -0.0000
 18 H      0.8291     1.0000     0.1709     0.9307     0.9307    -0.0000
 19 C      6.3223     6.0000    -0.3223     3.8003     3.8003    -0.0000
 20 H      0.7962     1.0000     0.2038     0.9441     0.9441    -0.0000
 21 H      0.8424     1.0000     0.1576     0.9262     0.9262    -0.0000
 22 H      0.8590     1.0000     0.1410     0.9345     0.9345     0.0000
 23 C      5.4701     6.0000     0.5299     3.9350     3.9350    -0.0000
 24 O      8.4840     8.0000    -0.4840     2.0565     2.0565    -0.0000

  Mayer bond orders larger than 0.100000
B(  0-C ,  4-O ) :   1.8571 B(  0-C ,  5-C ) :   0.9915 B(  0-C , 15-N ) :   1.0970 
B(  1-H ,  5-C ) :   0.9172 B(  2-H ,  5-C ) :   0.9382 B(  3-H ,  5-C ) :   0.9236 
B(  6-N ,  7-C ) :   0.9603 B(  6-N , 11-C ) :   0.9527 B(  6-N , 23-C ) :   1.1549 
B(  7-C ,  8-H ) :   0.9318 B(  7-C ,  9-H ) :   0.9370 B(  7-C , 10-H ) :   0.9330 
B( 11-C , 12-H ) :   0.9400 B( 11-C , 13-H ) :   0.9406 B( 11-C , 14-H ) :   0.9178 
B( 15-N , 16-C ) :   0.9318 B( 15-N , 19-C ) :   0.9534 B( 16-C , 17-H ) :   0.9155 
B( 16-C , 18-H ) :   0.9216 B( 16-C , 23-C ) :   0.9315 B( 19-C , 20-H ) :   0.9195 
B( 19-C , 21-H ) :   0.9400 B( 19-C , 22-H ) :   0.9366 B( 23-C , 24-O ) :   1.8009 


-------
TIMINGS
-------

Total SCF time: 0 days 0 hours 0 min 39 sec 

Total time                  ....      39.742 sec
Sum of individual times     ....      39.334 sec  ( 99.0%)

Fock matrix formation       ....      36.900 sec  ( 92.8%)
  Split-RI-J                ....       4.694 sec  ( 12.7% of F)
  Chain of spheres X        ....      26.056 sec  ( 70.6% of F)
  XC integration            ....       5.845 sec  ( 15.8% of F)
    Basis function eval.    ....       2.084 sec  ( 35.7% of XC)
    Density eval.           ....       1.172 sec  ( 20.1% of XC)
    XC-Functional eval.     ....       0.490 sec  (  8.4% of XC)
    XC-Potential eval.      ....       1.146 sec  ( 19.6% of XC)
Diagonalization             ....       0.048 sec  (  0.1%)
Density matrix formation    ....       0.006 sec  (  0.0%)
Population analysis         ....       0.010 sec  (  0.0%)
Initial guess               ....       0.429 sec  (  1.1%)
Orbital Transformation      ....       0.000 sec  (  0.0%)
Orbital Orthonormalization  ....       0.000 sec  (  0.0%)
DIIS solution               ....       0.029 sec  (  0.1%)
SOSCF solution              ....       0.047 sec  (  0.1%)
Grid generation             ....       1.864 sec  (  4.7%)

Maximum memory used throughout the entire SCF-calculation: 61.4 MB


-------------------------------------------------------------------------------
                          DFT DISPERSION CORRECTION                            
                                                                               
                                 DFTD4 V2.5                                    
-------------------------------------------------------------------------------
The B3LYP functional is recognized
Active option DFTDOPT                   ...         5   

Starting D4
-------------------------   ----------------
Dispersion correction           -0.039958276
-------------------------   ----------------


-------------------------   --------------------
FINAL SINGLE POINT ENERGY      -534.850214770362
-------------------------   --------------------



           ************************************************************
           *        Program running with 4 parallel MPI-processes     *
           *              working on a common directory               *
           ************************************************************
------------------------------------------------------------------------------
                         ORCA SCF GRADIENT CALCULATION
------------------------------------------------------------------------------

 ... reading COSX grid (gridx3)
Gradient of the Kohn-Sham DFT energy:
Kohn-Sham wavefunction type      ... RKS
Hartree-Fock exchange scaling    ...    0.200
Number of operators              ...    1
Number of atoms                  ...   25
Basis set dimensions             ...  182
Integral neglect threshold       ... 2.5e-11
Integral primitive cutoff        ... 2.5e-12
SHARK Integral package           ... ON

Nuc. rep. gradient       (SHARK) ... done (  0.0 sec)
HCore & Overlap gradient (SHARK) ... done (  0.1 sec)
RI-J gradient            (SHARK) ... done (  1.7 sec)
COSX-gradient                    ... done (  6.1 sec)
Exchange-correlation gradient    ... done
Dispersion correction            ... Starting D4
Starting D4


------------------- 
Dispersion Gradient 
------------------- 
   1  :   -0.000791457    0.000434784   -0.000295888
   2  :   -0.000077378    0.000267212   -0.000008818
   3  :   -0.000065667    0.000160832   -0.000084089
   4  :   -0.000114644    0.000299066   -0.000172480
   5  :   -0.000619522    0.000157665   -0.000415640
   6  :   -0.000413906    0.000961439   -0.000354694
   7  :    0.000843328   -0.000260910   -0.000150246
   8  :    0.000502436   -0.000873502   -0.000534349
   9  :    0.000125371   -0.000218603   -0.000249100
  10  :    0.000065898   -0.000164944   -0.000096742
  11  :    0.000123807   -0.000226932   -0.000080908
  12  :    0.000772805    0.000046763   -0.000359746
  13  :    0.000168313    0.000002642   -0.000065269
  14  :    0.000170214    0.000027666   -0.000132040
  15  :    0.000155773    0.000043591   -0.000032807
  16  :   -0.000698615   -0.000206862    0.000228049
  17  :   -0.000025538   -0.000061435    0.000789428
  18  :    0.000019991    0.000072338    0.000257384
  19  :   -0.000017865   -0.000090297    0.000244946
  20  :   -0.000732219   -0.000638539    0.000275247
  21  :   -0.000154379   -0.000085635   -0.000002710
  22  :   -0.000153622   -0.000133938    0.000082710
  23  :   -0.000191772   -0.000209896    0.000075466
  24  :    0.000540948    0.000187237    0.000458256
  25  :    0.000567702    0.000510258    0.000624039

  |G| =    0.002797778

Starting D4
Starting D4
done

------------------
CARTESIAN GRADIENT
------------------

   1   C   :    0.010741318    0.003868318    0.007520221
   2   H   :   -0.000853753   -0.000736432   -0.000655517
   3   H   :   -0.000208058   -0.001124237    0.000583097
   4   H   :   -0.001431333   -0.000346718    0.000951990
   5   O   :   -0.011359963   -0.001412443   -0.006856105
   6   C   :    0.002298481   -0.001796627    0.000326547
   7   N   :   -0.001230352   -0.001528822    0.000397862
   8   C   :   -0.000834609   -0.000984253   -0.001286228
   9   H   :    0.000831818    0.000393877    0.001192262
  10   H   :   -0.000236530    0.001324433    0.000681798
  11   H   :    0.000629383    0.001226823    0.000084241
  12   C   :    0.000767938   -0.001010880   -0.001414443
  13   H   :   -0.001379476    0.000726570    0.000295279
  14   H   :   -0.000403046   -0.000154825    0.001819004
  15   H   :   -0.000344508   -0.000241792   -0.000059091
  16   N   :    0.003747521   -0.001393200   -0.001696318
  17   C   :    0.000421389   -0.000143967   -0.001012708
  18   H   :    0.000429611    0.000349821    0.000025805
  19   H   :    0.000081486   -0.000011280   -0.000408708
  20   C   :   -0.002015887    0.000023162    0.001439742
  21   H   :    0.001133216    0.000154957    0.000745929
  22   H   :    0.001203668    0.000170835   -0.001630136
  23   H   :   -0.000201425    0.001429291   -0.000334324
  24   C   :   -0.007044609   -0.008532299   -0.006357445
  25   O   :    0.005038399    0.009746451    0.005660467

Difference to translation invariance:
           :   -0.0002193223   -0.0000032364    0.0000132194

Difference to rotation invariance:
           :   -0.0007103695    0.0000390491    0.0013349215

Norm of the cartesian gradient     ...    0.0274542305
RMS gradient                       ...    0.0031701415
MAX gradient                       ...    0.0113599628

-------
TIMINGS
-------

Total SCF gradient time            ...       10.899 sec

One electron gradient       ....       0.140 sec  (  1.3%)
[...]
         *                GEOMETRY OPTIMIZATION CYCLE   9            *
         *************************************************************
---------------------------------
CARTESIAN COORDINATES (ANGSTROEM)
---------------------------------
  C     -1.716880    0.598711   -0.463963
  H     -0.600233    2.281628    0.409416
  H     -1.545465    2.619084   -1.070618
  H     -0.012174    1.731422   -1.158314
  O     -2.713905    0.421330   -1.155040
  C     -0.917406    1.887478   -0.560066
  N      1.704149   -0.431269   -0.266804
  C      1.127286   -1.637583   -0.839518
  H      0.519004   -1.425660   -1.728845
  H      1.942425   -2.311051   -1.128781
  H      0.506780   -2.163059   -0.114296
  C      2.928951    0.050760   -0.891973
  H      3.737119   -0.683473   -0.776377
  H      2.765902    0.221957   -1.964229
  H      3.217226    0.982934   -0.407954
  N     -1.261204   -0.377219    0.406454
  C     -0.176487   -0.164294    1.358499
  H     -0.423444    0.597749    2.106309
  H     -0.035503   -1.105136    1.902926
  C     -2.099651   -1.553150    0.608643
  H     -2.814181   -1.603578   -0.211790
  H     -2.649311   -1.493528    1.558541
  H     -1.487432   -2.463196    0.620827
  C      1.182792    0.272678    0.783866
  O      1.755639    1.233466    1.290085

----------------------------
CARTESIAN COORDINATES (A.U.)
----------------------------
  NO LB      ZA    FRAG     MASS         X           Y           Z
   0 C     6.0000    0    12.011   -3.244433    1.131400   -0.876762
   1 H     1.0000    0     1.008   -1.134276    4.311653    0.773684
   2 H     1.0000    0     1.008   -2.920505    4.949352   -2.023175
   3 H     1.0000    0     1.008   -0.023006    3.271913   -2.188896
   4 O     8.0000    0    15.999   -5.128536    0.796198   -2.182709
   5 C     6.0000    0    12.011   -1.733646    3.566817   -1.058371
   6 N     7.0000    0    14.007    3.220376   -0.814980   -0.504186
   7 C     6.0000    0    12.011    2.130262   -3.094583   -1.586459
   8 H     1.0000    0     1.008    0.980776   -2.694108   -3.267043
   9 H     1.0000    0     1.008    3.670651   -4.367254   -2.133087
  10 H     1.0000    0     1.008    0.957675   -4.087590   -0.215989
  11 C     6.0000    0    12.011    5.534915    0.095923   -1.685586
  12 H     1.0000    0     1.008    7.062132   -1.291577   -1.467139
  13 H     1.0000    0     1.008    5.226798    0.419439   -3.711855
  14 H     1.0000    0     1.008    6.079677    1.857476   -0.770921
  15 N     7.0000    0    14.007   -2.383331   -0.712841    0.768088
  16 C     6.0000    0    12.011   -0.333512   -0.310470    2.567191
  17 H     1.0000    0     1.008   -0.800193    1.129582    3.980348
  18 H     1.0000    0     1.008   -0.067091   -2.088405    3.596008
  19 C     6.0000    0    12.011   -3.967765   -2.935029    1.150168
  20 H     1.0000    0     1.008   -5.318031   -3.030324   -0.400225
  21 H     1.0000    0     1.008   -5.006471   -2.822360    2.945217
  22 H     1.0000    0     1.008   -2.810838   -4.654766    1.173193
  23 C     6.0000    0    12.011    2.235152    0.515287    1.481292
  24 O     8.0000    0    15.999    3.317676    2.330914    2.437907

--------------------------------
INTERNAL COORDINATES (ANGSTROEM)
--------------------------------
 C      0   0   0     0.000000000000     0.00000000     0.00000000
 H      1   0   0     2.200432025161     0.00000000     0.00000000
 H      2   1   0     1.788250495275    63.10139946     0.00000000
 H      2   1   3     1.762474579033    65.00785132   292.53475115
 O      1   2   3     1.226013640290   138.33718407   333.61968944
 C      3   2   1     1.091039921449    35.10373239   322.18021156
 N      4   2   1     2.901342612083    99.01864760   275.23729280
 C      7   4   2     1.454636183995   105.22359585   117.20098794
 H      8   7   4     1.098098427534   112.24039147    23.38019324
 H      8   7   4     1.096213585942   108.57141185   143.27534594
 H      8   7   4     1.089540959171   111.33027529   261.57955435
 C      7   4   2     1.457164560241    96.82386926   236.57495891
 H     12   7   4     1.097997208433   110.62764103   185.88558324
 H     12   7   4     1.098009533605   110.22638290   305.81624996
 H     12   7   4     1.089185480441   108.35614492    66.06988439
 N      1   2   3     1.384812669627    97.03824165   175.67278735
 C     16   1   2     1.458882699256   123.50300305   350.23956616
 H     17  16   1     1.095863388141   112.28753483    63.46913150
 H     17  16   1     1.096112037419   107.12687966   180.26322116
 C     16   1   2     1.458316352981   117.79006135   155.09080022
 H     20  16   1     1.089130921561   108.06458521    17.68725250
 H     20  16   1     1.099085354073   111.32237106   258.03081200
 H     20  16   1     1.096879104433   110.46603262   137.62800021
 C      7   4   2     1.367940630679    68.09661926   354.77407942
 O     24   7   4     1.227813287909   122.78842992   268.42752698

---------------------------
INTERNAL COORDINATES (A.U.)
---------------------------
 C      0   0   0     0.000000000000     0.00000000     0.00000000
 H      1   0   0     4.158213903864     0.00000000     0.00000000
 H      2   1   0     3.379303694919    63.10139946     0.00000000
 H      2   1   3     3.330594272370    65.00785132   292.53475115
 O      1   2   3     2.316830016601   138.33718407   333.61968944
 C      3   2   1     2.061766652714    35.10373239   322.18021156
 N      4   2   1     5.482742957512    99.01864760   275.23729280
 C      7   4   2     2.748864012244   105.22359585   117.20098794
 H      8   7   4     2.075105296129   112.24039147    23.38019324
 H      8   7   4     2.071543461715   108.57141185   143.27534594
 H      8   7   4     2.058934024523   111.33027529   261.57955435
 C      7   4   2     2.753641950912    96.82386926   236.57495891
 H     12   7   4     2.074914019748   110.62764103   185.88558324
 H     12   7   4     2.074937310947   110.22638290   305.81624996
 H     12   7   4     2.058262267077   108.35614492    66.06988439
 N      1   2   3     2.616916692379    97.03824165   175.67278735
 C     16   1   2     2.756888763110   123.50300305   350.23956616
 H     17  16   1     2.070881683777   112.28753483    63.46913150
 H     17  16   1     2.071351562817   107.12687966   180.26322116
 C     16   1   2     2.755818523753   117.79006135   155.09080022
 H     20  16   1     2.058159165735   108.06458521    17.68725250
 H     20  16   1     2.076970317002   111.32237106   258.03081200
 H     20  16   1     2.072801109399   110.46603262   137.62800021
 C      7   4   2     2.585033159446    68.09661926   354.77407942
 O     24   7   4     2.320230857737   122.78842992   268.42752698



           ************************************************************
           *        Program running with 4 parallel MPI-processes     *
           *              working on a common directory               *
           ************************************************************
------------------------------------------------------------------------------
                   ___                                                        
                  /   \      - P O W E R E D   B Y -                         
                 /     \                                                     
                 |  |  |   _    _      __       _____    __    __             
                 |  |  |  | |  | |    /  \     |  _  \  |  |  /  |          
                  \  \/   | |  | |   /    \    | | | |  |  | /  /          
                 / \  \   | |__| |  /  /\  \   | |_| |  |  |/  /          
                |  |  |   |  __  | /  /__\  \  |    /   |      \           
                |  |  |   | |  | | |   __   |  |    \   |  |\   \          
                \     /   | |  | | |  |  |  |  | |\  \  |  | \   \       
                 \___/    |_|  |_| |__|  |__|  |_| \__\ |__|  \__/        
                                                                              
                      - O R C A' S   B I G   F R I E N D -                    
                                      &                                       
                       - I N T E G R A L  F E E D E R -                       
                                                                              
 v1 FN, 2020, v2 2021                                                         
------------------------------------------------------------------------------


Reading SHARK input file Na_gas.SHARKINP.tmp ... ok
----------------------
SHARK INTEGRAL PACKAGE
----------------------

Number of atoms                             ...     25
Number of basis functions                   ...    182
Number of shells                            ...     94
Maximum angular momentum                    ...      2
Integral batch strategy                     ... SHARK/LIBINT Hybrid
RI-J (if used) integral strategy            ... SPLIT-RIJ (Revised 2003 algorithm where possible)
Printlevel                                  ...      1
Contraction scheme used                     ... SEGMENTED contraction
Coulomb Range Separation                    ... NOT USED
Exchange Range Separation                   ... NOT USED
Finite Nucleus Model                        ... NOT USED
Auxiliary Coulomb fitting basis             ... AVAILABLE
   # of basis functions in Aux-J            ...   1424
   # of shells in Aux-J                     ...    554
   Maximum angular momentum in Aux-J        ...      3
Auxiliary J/K fitting basis                 ... AVAILABLE
   # of basis functions in Aux-JK           ...   1424
   # of shells in Aux-JK                    ...    554
   Maximum angular momentum in Aux-JK       ...      3
Auxiliary Correlation fitting basis         ... AVAILABLE
   # of basis functions in Aux-C            ...   1424
   # of shells in Aux-C                     ...    554
   Maximum angular momentum in Aux-C        ...      3
Auxiliary 'external' fitting basis          ... NOT available
Integral threshold                          ...     2.500000e-11
Primitive cut-off                           ...     2.500000e-12
Primitive pair pre-selection threshold      ...     2.500000e-12

Calculating pre-screening integrals         ... done (  0.0 sec) Dimension = 94
Organizing shell pair data                  ... done (  0.0 sec)
Shell pair information
Total number of shell pairs                 ...      4465
Shell pairs after pre-screening             ...      4112
Total number of primitive shell pairs       ...     24804
Primitive shell pairs kept                  ...     14173
          la=0 lb=0:   1688 shell pairs
          la=1 lb=0:   1279 shell pairs
          la=1 lb=1:    250 shell pairs
          la=2 lb=0:    598 shell pairs
          la=2 lb=1:    234 shell pairs
          la=2 lb=2:     63 shell pairs

Calculating one electron integrals          ... done (  0.0 sec)
Calculating RI/J V-Matrix + Cholesky decomp.... done (  0.1 sec)
Calculating RI/JK V-Matrix + Cholesky decomp... done (  0.1 sec)
Calculating RI/C V-Matrix + Cholesky decomp.... done (  0.1 sec)
Calculating Nuclear repulsion               ... done (  0.0 sec) ENN=    676.421519688788 Eh

SHARK setup successfully completed in   0.6 seconds

Maximum memory used throughout the entire GTOINT-calculation: 19.8 MB


           ************************************************************
           *        Program running with 4 parallel MPI-processes     *
           *              working on a common directory               *
           ************************************************************

Diagonalization of the overlap matrix:
Smallest eigenvalue                        ... 3.537e-03
Time for diagonalization                   ...    0.006 sec
Threshold for overlap eigenvalues          ... 1.000e-08
Number of eigenvalues below threshold      ... 0
Time for construction of square roots      ...    0.003 sec
Total time needed                          ...    0.010 sec

-------------------
DFT GRID GENERATION
-------------------

General Integration Accuracy     IntAcc      ... 4.388
Radial Grid Type                 RadialGrid  ... OptM3 with GC (2021)
Angular Grid (max. ang.)         AngularGrid ... 4 (Lebedev-302)
Angular grid pruning method      GridPruning ... 4 (adaptive)
Weight generation scheme         WeightScheme... Becke
Basis function cutoff            BFCut       ... 1.0000e-11
Integration weight cutoff        WCut        ... 1.0000e-14
Angular grids for H and He will be reduced by one unit
Partially contracted basis set               ... off
Rotationally invariant grid construction     ... off

Total number of grid points                  ...   110737
Total number of batches                      ...     1743
Average number of points per batch           ...       63
Average number of grid points per atom       ...     4429
Time for grid setup =    0.753 sec

--------------------
COSX GRID GENERATION
--------------------

GRIDX 1
-------
General Integration Accuracy     IntAcc      ... 3.816
Radial Grid Type                 RadialGrid  ... OptM3 with GC (2021)
Angular Grid (max. ang.)         AngularGrid ... 1 (Lebedev-50)
Angular grid pruning method      GridPruning ... 4 (adaptive)
Weight generation scheme         WeightScheme... Becke
Basis function cutoff            BFCut       ... 1.0000e-11
Integration weight cutoff        WCut        ... 1.0000e-14
Angular grids for H and He will be reduced by one unit
Partially contracted basis set               ... on
Rotationally invariant grid construction     ... off

Total number of grid points                  ...    14117
Total number of batches                      ...      234
Average number of points per batch           ...       60
Average number of grid points per atom       ...      565
UseSFitting                                  ... on

GRIDX 2
-------
General Integration Accuracy     IntAcc      ... 4.020
Radial Grid Type                 RadialGrid  ... OptM3 with GC (2021)
Angular Grid (max. ang.)         AngularGrid ... 2 (Lebedev-110)
Angular grid pruning method      GridPruning ... 4 (adaptive)
Weight generation scheme         WeightScheme... Becke
Basis function cutoff            BFCut       ... 1.0000e-11
Integration weight cutoff        WCut        ... 1.0000e-14
Angular grids for H and He will be reduced by one unit
Partially contracted basis set               ... on
Rotationally invariant grid construction     ... off

Total number of grid points                  ...    29953
Total number of batches                      ...      480
Average number of points per batch           ...       62
Average number of grid points per atom       ...     1198
UseSFitting                                  ... on

GRIDX 3
-------
General Integration Accuracy     IntAcc      ... 4.338
Radial Grid Type                 RadialGrid  ... OptM3 with GC (2021)
Angular Grid (max. ang.)         AngularGrid ... 3 (Lebedev-194)
Angular grid pruning method      GridPruning ... 4 (adaptive)
Weight generation scheme         WeightScheme... Becke
Basis function cutoff            BFCut       ... 1.0000e-11
Integration weight cutoff        WCut        ... 1.0000e-14
Angular grids for H and He will be reduced by one unit
Partially contracted basis set               ... on
Rotationally invariant grid construction     ... off

Total number of grid points                  ...    65398
Total number of batches                      ...     1036
Average number of points per batch           ...       63
Average number of grid points per atom       ...     2616
UseSFitting                                  ... on

Time for X-Grid setup             =    0.848 sec

--------------
SCF ITERATIONS
--------------
ITER       Energy         Delta-E        Max-DP      RMS-DP      [F,P]     Damp
               ***  Starting incremental Fock matrix formation  ***
                      *** Initiating the SOSCF procedure ***
                      *** Re-Reading the Fockian *** 
                      *** Removing any level shift *** 
ITER      Energy       Delta-E        Grad      Rot      Max-DP    RMS-DP
  0   -534.81086383 -534.8108638314  0.001112  0.001112  0.003410  0.000070
               *** Restarting incremental Fock matrix formation ***
  1   -534.81096208  -0.0000982476  0.000262  0.000546  0.001962  0.000043
  2   -534.81097317  -0.0000110905  0.000044  0.000190  0.000327  0.000009
  3   -534.81097310   0.0000000673  0.000104  0.000143  0.000166  0.000005
  4   -534.81097336  -0.0000002562  0.000027  0.000060  0.000083  0.000003
  5   -534.81097333   0.0000000251  0.000040  0.000042  0.000050  0.000001
  6   -534.81097337  -0.0000000398  0.000004  0.000006  0.000019  0.000001
  7   -534.81097338  -0.0000000075  0.000004  0.000002  0.000007  0.000000
                  ***Gradient check signals convergence***
              ***Rediagonalizing the Fockian in SOSCF/NRSCF***

               *****************************************************
               *                     SUCCESS                       *
               *           SCF CONVERGED AFTER   8 CYCLES          *
               *****************************************************

Old exchange energy                            =    -14.201158461 Eh
New exchange energy                            =    -14.201157301 Eh
Exchange energy change after final integration =      0.000001160 Eh
Total energy after final integration           =   -534.810972216 Eh
Final COS-X integration done in                =     5.304 sec
Total Energy       :         -534.81097222 Eh          -14552.94641 eV
  Last Energy change         ...    4.6319e-09  Tolerance :   1.0000e-08
  Last MAX-Density change    ...    3.5527e-15  Tolerance :   1.0000e-07
             **** THE GBW FILE WAS UPDATED (Na_gas.gbw) ****
             **** DENSITY Na_gas.scfp WAS UPDATED ****
             **** ENERGY FILE WAS UPDATED (Na_gas.en.tmp) ****
             **** THE GBW FILE WAS UPDATED (Na_gas.gbw) ****
             **** DENSITY Na_gas.scfp WAS UPDATED ****
Total SCF time: 0 days 0 hours 0 min 32 sec 

Maximum memory used throughout the entire SCF-calculation: 61.5 MB


-------------------------------------------------------------------------------
                          DFT DISPERSION CORRECTION                            
                                                                               
                                 DFTD4 V2.5                                    
-------------------------------------------------------------------------------
Starting D4
-------------------------   ----------------
Dispersion correction           -0.039914601
-------------------------   ----------------


-------------------------   --------------------
FINAL SINGLE POINT ENERGY      -534.850886816467
-------------------------   --------------------



           ************************************************************
           *        Program running with 4 parallel MPI-processes     *
           *              working on a common directory               *
           ************************************************************
------------------------------------------------------------------------------
                         ORCA SCF GRADIENT CALCULATION
------------------------------------------------------------------------------

 ... reading COSX grid (gridx3)
Gradient of the Kohn-Sham DFT energy:
Kohn-Sham wavefunction type      ... RKS
Hartree-Fock exchange scaling    ...    0.200
Number of operators              ...    1
Number of atoms                  ...   25
Basis set dimensions             ...  182
Integral neglect threshold       ... 2.5e-11
Integral primitive cutoff        ... 2.5e-12
SHARK Integral package           ... ON

Nuc. rep. gradient       (SHARK) ... done (  0.0 sec)
HCore & Overlap gradient (SHARK) ... done (  0.1 sec)
RI-J gradient            (SHARK) ... done (  1.1 sec)
COSX-gradient                    ... 