
                                 *****************
                                 * O   R   C   A *
                                 *****************

                                            #,                                       
                                            ###                                      
                                            ####                                     
                                            #####                                    
                                            ######                                   
                                           ########,                                 
                                     ,,################,,,,,                         
                               ,,#################################,,                 
                          ,,##########################################,,             
                       ,#########################################, ''#####,          
                    ,#############################################,,   '####,        
                  ,##################################################,,,,####,       
                ,###########''''           ''''###############################       
              ,#####''   ,,,,##########,,,,          '''####'''          '####       
            ,##' ,,,,###########################,,,                        '##       
           ' ,,###''''                  '''############,,,                           
         ,,##''                                '''############,,,,        ,,,,,,###''
      ,#''                                            '''#######################'''  
     '                                                          ''''####''''         
             ,#######,   #######,   ,#######,      ##                                
            ,#'     '#,  ##    ##  ,#'     '#,    #''#        ######   ,####,        
            ##       ##  ##   ,#'  ##            #'  '#       #        #'  '#        
            ##       ##  #######   ##           ,######,      #####,   #    #        
            '#,     ,#'  ##    ##  '#,     ,#' ,#      #,         ##   #,  ,#        
             '#######'   ##     ##  '#######'  #'      '#     #####' # '####'        



                  #######################################################
                  #                        -***-                        #
                  #          Department of theory and spectroscopy      #
                  #    Directorship and core code : Frank Neese         #
                  #        Max Planck Institute fuer Kohlenforschung    #
                  #                Kaiser Wilhelm Platz 1               #
                  #                 D-45470 Muelheim/Ruhr               #
                  #                      Germany                        #
                  #                                                     #
                  #                  All rights reserved                #
                  #                        -***-                        #
                  #######################################################


                         Program Version 5.0.4 -  RELEASE  -


 With contributions from (in alphabetic order):
   Daniel Aravena         : Magnetic Suceptibility
   Michael Atanasov       : Ab Initio Ligand Field Theory (pilot matlab implementation)
   Alexander A. Auer      : GIAO ZORA, VPT2 properties, NMR spectrum
   Ute Becker             : Parallelization
   Giovanni Bistoni       : ED, misc. LED, open-shell LED, HFLD
   Martin Brehm           : Molecular dynamics
   Dmytro Bykov           : SCF Hessian
   Vijay G. Chilkuri      : MRCI spin determinant printing, contributions to CSF-ICE
   Dipayan Datta          : RHF DLPNO-CCSD density
   Achintya Kumar Dutta   : EOM-CC, STEOM-CC
   Dmitry Ganyushin       : Spin-Orbit,Spin-Spin,Magnetic field MRCI
   Miquel Garcia          : C-PCM and meta-GGA Hessian, CC/C-PCM, Gaussian charge scheme
   Yang Guo               : DLPNO-NEVPT2, F12-NEVPT2, CIM, IAO-localization
   Andreas Hansen         : Spin unrestricted coupled pair/coupled cluster methods
   Benjamin Helmich-Paris : MC-RPA, TRAH-SCF, COSX integrals
   Lee Huntington         : MR-EOM, pCC
   Robert Izsak           : Overlap fitted RIJCOSX, COSX-SCS-MP3, EOM
   Marcus Kettner         : VPT2
   Christian Kollmar      : KDIIS, OOCD, Brueckner-CCSD(T), CCSD density, CASPT2, CASPT2-K
   Simone Kossmann        : Meta GGA functionals, TD-DFT gradient, OOMP2, MP2 Hessian
   Martin Krupicka        : Initial AUTO-CI
   Lucas Lang             : DCDCAS
   Marvin Lechner         : AUTO-CI (C++ implementation), FIC-MRCC
   Dagmar Lenk            : GEPOL surface, SMD
   Dimitrios Liakos       : Extrapolation schemes; Compound Job, initial MDCI parallelization
   Dimitrios Manganas     : Further ROCIS development; embedding schemes
   Dimitrios Pantazis     : SARC Basis sets
   Anastasios Papadopoulos: AUTO-CI, single reference methods and gradients
   Taras Petrenko         : DFT Hessian,TD-DFT gradient, ASA, ECA, R-Raman, ABS, FL, XAS/XES, NRVS
   Peter Pinski           : DLPNO-MP2, DLPNO-MP2 Gradient
   Christoph Reimann      : Effective Core Potentials
   Marius Retegan         : Local ZFS, SOC
   Christoph Riplinger    : Optimizer, TS searches, QM/MM, DLPNO-CCSD(T), (RO)-DLPNO pert. Triples
   Tobias Risthaus        : Range-separated hybrids, TD-DFT gradient, RPA, STAB
   Michael Roemelt        : Original ROCIS implementation
   Masaaki Saitow         : Open-shell DLPNO-CCSD energy and density
   Barbara Sandhoefer     : DKH picture change effects
   Avijit Sen             : IP-ROCIS
   Kantharuban Sivalingam : CASSCF convergence, NEVPT2, FIC-MRCI
   Bernardo de Souza      : ESD, SOC TD-DFT
   Georgi Stoychev        : AutoAux, RI-MP2 NMR, DLPNO-MP2 response
   Willem Van den Heuvel  : Paramagnetic NMR
   Boris Wezisla          : Elementary symmetry handling
   Frank Wennmohs         : Technical directorship


 We gratefully acknowledge several colleagues who have allowed us to
 interface, adapt or use parts of their codes:
   Stefan Grimme, W. Hujo, H. Kruse, P. Pracht,  : VdW corrections, initial TS optimization,
                  C. Bannwarth, S. Ehlert          DFT functionals, gCP, sTDA/sTD-DF
   Ed Valeev, F. Pavosevic, A. Kumar             : LibInt (2-el integral package), F12 methods
   Garnet Chan, S. Sharma, J. Yang, R. Olivares  : DMRG
   Ulf Ekstrom                                   : XCFun DFT Library
   Mihaly Kallay                                 : mrcc  (arbitrary order and MRCC methods)
   Jiri Pittner, Ondrej Demel                    : Mk-CCSD
   Frank Weinhold                                : gennbo (NPA and NBO analysis)
   Christopher J. Cramer and Donald G. Truhlar   : smd solvation model
   Lars Goerigk                                  : TD-DFT with DH, B97 family of functionals
   V. Asgeirsson, H. Jonsson                     : NEB implementation
   FAccTs GmbH                                   : IRC, NEB, NEB-TS, DLPNO-Multilevel, CI-OPT
                                                   MM, QMMM, 2- and 3-layer-ONIOM, Crystal-QMMM,
                                                   LR-CPCM, SF, NACMEs, symmetry and pop. for TD-DFT,
                                                   nearIR, NL-DFT gradient (VV10), updates on ESD,
                                                   ML-optimized integration grids
   S Lehtola, MJT Oliveira, MAL Marques          : LibXC Library
   Liviu Ungur et al                             : ANISO software


 Your calculation uses the libint2 library for the computation of 2-el integrals
 For citations please refer to: http://libint.valeyev.net

 Your ORCA version has been built with support for libXC version: 5.1.0
 For citations please refer to: https://tddft.org/programs/libxc/

 This ORCA versions uses:
   CBLAS   interface :  Fast vector & matrix operations
   LAPACKE interface :  Fast linear algebra routines
   SCALAPACK package :  Parallel linear algebra routines
   Shared memory     :  Shared parallel matrices
   BLAS/LAPACK       :  OpenBLAS 0.3.15  USE64BITINT DYNAMIC_ARCH NO_AFFINITY SkylakeX SINGLE_THREADED
        Core in use  :  SkylakeX
   Copyright (c) 2011-2014, The OpenBLAS Project




***************************************
The coordinates will be read from file: /users/fjb15167/WWenergy/structures/NmO.xyz
***************************************


Your calculation utilizes the atom-pairwise dispersion correction
based on tight binding partial charges (D4)
Cite in your paper:
E.Caldeweyher, C.Bannwarth, S.Grimme, J.Chem.Phys., (2017), 147, 034112.
E.Caldeweyher, S.Ehlert, A.Hansen, H.Neugebauer, S.Grimme, J.Chem.Phys., (2018), in progress.
   

================================================================================

----- Orbital basis set information -----
Your calculation utilizes the basis: 6-31G(d)
   H-He, Li-Ne : W. J. Hehre, R. Ditchfield and J.A. Pople, J. Chem. Phys. 56, 2257 (1972).
                 Note: He and Ne are unpublished basis sets taken from the Gaussian program.
                 Note: Li and B from J. D. Dill and J. A. Pople, J. Chem. Phys. 62, 2921 (1975).
   Na - Ar     : M. M. Francl, W. J. Pietro, W. J. Hehre, J. S. Binkley, M. S. Gordon, 
                 D. J. DeFrees and J. A. Pople, J. Chem. Phys. 77, 3654 (1982).
   K - Zn      : V. A. Rassolov, J. A. Pople, M. A. Ratner, and T. L. Windus, J. Chem. Phys. 109, 1223 (1998).

----- AuxJ basis set information -----
Your calculation utilizes the AutoAux generation procedure.
  G. L. Stoychev, A. A. Auer, F. Neese, J. Chem. Theory Comput. 13, 554 (2017)

----- AuxC basis set information -----
Your calculation utilizes the AutoAux generation procedure.
  G. L. Stoychev, A. A. Auer, F. Neese, J. Chem. Theory Comput. 13, 554 (2017)

----- AuxJK basis set information -----
Your calculation utilizes the AutoAux generation procedure.
  G. L. Stoychev, A. A. Auer, F. Neese, J. Chem. Theory Comput. 13, 554 (2017)

================================================================================
                                        WARNINGS
                       Please study these warnings very carefully!
================================================================================


WARNING: Geometry Optimization
  ===> : Switching off AutoStart
         For restart on a previous wavefunction, please use MOREAD

INFO   : the flag for use of the SHARK integral package has been found!

================================================================================
                                       INPUT FILE
================================================================================
NAME = NmO_water.inp
|  1> ! OPT FREQ B3LYP 6-31G(d) D4 AUTOAUX CPCM(water)
|  2> 
|  3> %PAL NPROCS 4 END
|  4> 
|  5> %maxcore 3375
|  6> 
|  7> *xyzfile 0 1 /users/fjb15167/WWenergy/structures/NmO.xyz
|  8> 
|  9>                          ****END OF INPUT****
================================================================================

                       *****************************
                       * Geometry Optimization Run *
                       *****************************

Geometry optimization settings:
Update method            Update   .... BFGS
Choice of coordinates    CoordSys .... Z-matrix Internals
Initial Hessian          InHess   .... Almoef's Model

Convergence Tolerances:
Energy Change            TolE     ....  5.0000e-06 Eh
Max. Gradient            TolMAXG  ....  3.0000e-04 Eh/bohr
RMS Gradient             TolRMSG  ....  1.0000e-04 Eh/bohr
Max. Displacement        TolMAXD  ....  4.0000e-03 bohr
RMS Displacement         TolRMSD  ....  2.0000e-03 bohr
Strict Convergence                ....  False
------------------------------------------------------------------------------
                        ORCA OPTIMIZATION COORDINATE SETUP
------------------------------------------------------------------------------

The optimization will be done in new redundant internal coordinates
Making redundant internal coordinates   ...  (new redundants) done
Evaluating the initial hessian          ...  (Almloef) done
Evaluating the coordinates              ...  done
Calculating the B-matrix                .... done
Calculating the G-matrix                .... done
Diagonalizing the G-matrix              .... done
Small eigenvalue found = 4.527e-03
Small eigenvalue found = 5.671e-03
Small eigenvalue found = 1.360e-02
Small eigenvalue found = 1.438e-02
Small eigenvalue found = 2.256e-02
The first mode is                       ....   55
The number of degrees of freedom        ....   90

    -----------------------------------------------------------------
                    Redundant Internal Coordinates


    -----------------------------------------------------------------
         Definition                    Initial Value    Approx d2E/dq
    -----------------------------------------------------------------
      1. B(H   1,C   0)                  1.0919         0.357607   
      2. B(H   2,C   0)                  1.0941         0.354670   
      3. B(H   3,C   0)                  1.0899         0.360227   
      4. B(C   4,C   0)                  1.5155         0.394042   
      5. B(O   5,C   4)                  1.2383         0.977099   
      6. B(N   6,C   4)                  1.3752         0.590973   
      7. B(C   7,N   6)                  1.4604         0.432111   
      8. B(H   8,C   7)                  1.0951         0.353394   
      9. B(H   9,C   7)                  1.0895         0.360718   
     10. B(C  10,N   6)                  1.4610         0.431166   
     11. B(H  11,C  10)                  1.0924         0.356992   
     12. B(H  12,C  10)                  1.0942         0.354546   
     13. B(C  13,C  10)                  1.5319         0.370940   
     14. B(H  14,C  13)                  1.0976         0.350241   
     15. B(H  15,C  13)                  1.0948         0.353815   
     16. B(C  16,C   7)                  1.5249         0.380598   
     17. B(N  17,C  16)                  1.3645         0.614539   
     18. B(O  18,C  16)                  1.2410         0.967442   
     19. B(C  19,N  17)                  1.4547         0.441241   
     20. B(H  20,C  19)                  1.0972         0.350736   
     21. B(H  21,C  19)                  1.0955         0.352939   
     22. B(H  22,C  19)                  1.0872         0.363781   
     23. B(C  23,N  17)                  1.4548         0.441050   
     24. B(H  24,C  23)                  1.0976         0.350243   
     25. B(H  25,C  23)                  1.0887         0.361843   
     26. B(H  26,C  23)                  1.0942         0.354530   
     27. B(O  27,C  13)                  1.4194         0.502355   
     28. B(C  28,O  27)                  1.4279         0.486932   
     29. B(H  29,C  28)                  1.0972         0.350636   
     30. B(H  30,C  28)                  1.0902         0.359777   
     31. B(H  31,C  28)                  1.0948         0.353820   
     32. A(H   1,C   0,C   4)          112.6659         0.326803   
     33. A(H   2,C   0,H   3)          108.8706         0.290162   
     34. A(H   3,C   0,C   4)          107.1278         0.327196   
     35. A(H   1,C   0,H   3)          109.3830         0.290538   
     36. A(H   1,C   0,H   2)          108.0603         0.289830   
     37. A(H   2,C   0,C   4)          110.6738         0.326359   
     38. A(C   0,C   4,O   5)          121.0515         0.431351   
     39. A(O   5,C   4,N   6)          121.8637         0.461155   
     40. A(C   0,C   4,N   6)          117.0792         0.394525   
     41. A(C   4,N   6,C  10)          124.6054         0.398249   
     42. A(C   7,N   6,C  10)          116.2123         0.377093   
     43. A(C   4,N   6,C   7)          118.9133         0.398402   
     44. A(H   8,C   7,H   9)          109.0590         0.290060   
     45. A(N   6,C   7,H   9)          107.9430         0.330293   
     46. A(H   9,C   7,C  16)          113.7043         0.325405   
     47. A(H   8,C   7,C  16)          105.4407         0.324310   
     48. A(N   6,C   7,C  16)          111.0404         0.371396   
     49. A(N   6,C   7,H   8)          109.5872         0.329176   
     50. A(H  12,C  10,C  13)          108.9641         0.323117   
     51. A(H  11,C  10,C  13)          109.3279         0.323482   
     52. A(N   6,C  10,C  13)          112.8715         0.369619   
     53. A(H  11,C  10,H  12)          107.3026         0.289736   
     54. A(N   6,C  10,H  12)          107.3749         0.329234   
     55. A(N   6,C  10,H  11)          110.8154         0.329608   
     56. A(H  14,C  13,H  15)          107.9047         0.288777   
     57. A(H  15,C  13,O  27)          106.9493         0.337572   
     58. A(C  10,C  13,H  15)          110.2955         0.323008   
     59. A(C  10,C  13,H  14)          110.3299         0.322471   
     60. A(H  14,C  13,O  27)          111.1781         0.337001   
     61. A(C  10,C  13,O  27)          110.1050         0.379494   
     62. A(N  17,C  16,O  18)          122.8291         0.463621   
     63. A(C   7,C  16,O  18)          119.2037         0.427909   
     64. A(C   7,C  16,N  17)          117.9473         0.394828   
     65. A(C  16,N  17,C  19)          125.2933         0.402633   
     66. A(C  19,N  17,C  23)          115.4340         0.379948   
     67. A(C  16,N  17,C  23)          118.3287         0.402603   
     68. A(H  21,C  19,H  22)          108.8564         0.290387   
     69. A(H  20,C  19,H  22)          108.4965         0.290102   
     70. A(N  17,C  19,H  22)          111.9843         0.331902   
     71. A(H  20,C  19,H  21)          108.1840         0.288729   
     72. A(N  17,C  19,H  21)          109.0593         0.330245   
     73. A(N  17,C  19,H  20)          110.1764         0.329903   
     74. A(H  25,C  23,H  26)          110.1438         0.290349   
     75. A(H  24,C  23,H  26)          108.5972         0.288869   
     76. A(N  17,C  23,H  26)          109.3469         0.330467   
     77. A(H  24,C  23,H  25)          109.3535         0.289795   
     78. A(N  17,C  23,H  25)          108.6003         0.331585   
     79. A(N  17,C  23,H  24)          110.7947         0.329803   
     80. A(C  13,O  27,C  28)          111.8633         0.395404   
     81. A(H  29,C  28,H  31)          108.3522         0.288829   
     82. A(O  27,C  28,H  31)          112.2181         0.335824   
     83. A(H  29,C  28,H  30)          109.4225         0.289586   
     84. A(O  27,C  28,H  30)          106.3513         0.336759   
     85. A(H  30,C  28,H  31)          109.8353         0.289996   
     86. A(O  27,C  28,H  29)          110.6312         0.335320   
     87. D(O   5,C   4,C   0,H   2)    110.3972         0.011539   
     88. D(O   5,C   4,C   0,H   1)   -128.4935         0.011539   
     89. D(N   6,C   4,C   0,H   1)     52.3518         0.011539   
     90. D(N   6,C   4,C   0,H   2)    -68.7575         0.011539   
     91. D(O   5,C   4,C   0,H   3)     -8.1592         0.011539   
     92. D(N   6,C   4,C   0,H   3)    172.6862         0.011539   
     93. D(C   7,N   6,C   4,C   0)    172.2048         0.028082   
     94. D(C  10,N   6,C   4,C   0)     -1.6011         0.028082   
     95. D(C   7,N   6,C   4,O   5)     -6.9425         0.028082   
     96. D(C  10,N   6,C   4,O   5)    179.2516         0.028082   
     97. D(C  16,C   7,N   6,C   4)    128.1244         0.015919   
     98. D(H   9,C   7,N   6,C   4)      2.8622         0.015919   
     99. D(H   8,C   7,N   6,C  10)     58.5256         0.015919   
    100. D(H   9,C   7,N   6,C  10)    177.1813         0.015919   
    101. D(H   8,C   7,N   6,C   4)   -115.7934         0.015919   
    102. D(C  16,C   7,N   6,C  10)    -57.5565         0.015919   
    103. D(C  13,C  10,N   6,C   7)     97.2024         0.015850   
    104. D(C  13,C  10,N   6,C   4)    -88.8406         0.015850   
    105. D(H  12,C  10,N   6,C   7)    -22.9008         0.015850   
    106. D(H  12,C  10,N   6,C   4)    151.0562         0.015850   
    107. D(H  11,C  10,N   6,C   7)   -139.7957         0.015850   
    108. D(H  11,C  10,N   6,C   4)     34.1613         0.015850   
    109. D(O  27,C  13,C  10,H  11)     64.3889         0.010996   
    110. D(O  27,C  13,C  10,N   6)   -171.7853         0.010996   
    111. D(H  15,C  13,C  10,H  12)   -170.3971         0.010996   
    112. D(H  15,C  13,C  10,H  11)    -53.4096         0.010996   
    113. D(H  15,C  13,C  10,N   6)     70.4161         0.010996   
    114. D(H  14,C  13,C  10,H  12)     70.4869         0.010996   
    115. D(H  14,C  13,C  10,H  11)   -172.5256         0.010996   
    116. D(O  27,C  13,C  10,H  12)    -52.5986         0.010996   
    117. D(H  14,C  13,C  10,N   6)    -48.6999         0.010996   
    118. D(O  18,C  16,C   7,H   9)   -137.6676         0.010807   
    119. D(O  18,C  16,C   7,H   8)    -18.2444         0.010807   
    120. D(O  18,C  16,C   7,N   6)    100.3685         0.010807   
    121. D(N  17,C  16,C   7,H   9)     43.9080         0.010807   
    122. D(N  17,C  16,C   7,H   8)    163.3312         0.010807   
    123. D(N  17,C  16,C   7,N   6)    -78.0559         0.010807   
    124. D(C  23,N  17,C  16,O  18)     -2.5804         0.030539   
    125. D(C  23,N  17,C  16,C   7)    175.7829         0.030539   
    126. D(C  19,N  17,C  16,O  18)   -170.9224         0.030539   
    127. D(C  19,N  17,C  16,C   7)      7.4409         0.030539   
    128. D(H  22,C  19,N  17,C  16)    -14.3880         0.016602   
    129. D(H  21,C  19,N  17,C  23)     56.4250         0.016602   
    130. D(H  21,C  19,N  17,C  16)   -134.9341         0.016602   
    131. D(H  20,C  19,N  17,C  23)    -62.1759         0.016602   
    132. D(H  22,C  19,N  17,C  23)    176.9711         0.016602   
    133. D(H  20,C  19,N  17,C  16)    106.4650         0.016602   
    134. D(H  26,C  23,N  17,C  19)    -53.4121         0.016588   
    135. D(H  26,C  23,N  17,C  16)    137.1109         0.016588   
    136. D(H  25,C  23,N  17,C  19)   -173.6285         0.016588   
    137. D(H  25,C  23,N  17,C  16)     16.8944         0.016588   
    138. D(H  24,C  23,N  17,C  19)     66.2504         0.016588   
    139. D(H  24,C  23,N  17,C  16)   -103.2266         0.016588   
    140. D(C  28,O  27,C  13,H  15)   -149.9241         0.019957   
    141. D(C  28,O  27,C  13,H  14)    -32.3595         0.019957   
    142. D(C  28,O  27,C  13,C  10)     90.2279         0.019957   
    143. D(H  31,C  28,O  27,C  13)    -51.8501         0.018717   
    144. D(H  30,C  28,O  27,C  13)   -171.9707         0.018717   
    145. D(H  29,C  28,O  27,C  13)     69.2945         0.018717   
    -----------------------------------------------------------------

Number of atoms                         .... 32
Number of degrees of freedom            .... 145

         *************************************************************
         *                GEOMETRY OPTIMIZATION CYCLE   1            *
         *************************************************************
---------------------------------
CARTESIAN COORDINATES (ANGSTROEM)
---------------------------------
  C      2.964000   -1.492000   -0.598000
  H      2.291000   -1.923000   -1.342000
  H      3.165000   -2.255000    0.160000
  H      3.903000   -1.215000   -1.077000
  C      2.402000   -0.238000    0.041000
  O      3.066000    0.806000    0.091000
  N      1.137000   -0.320000    0.574000
  C      0.623000    0.806000    1.349000
  H      0.460000    0.494000    2.386000
  H      1.372000    1.597000    1.329000
  C      0.296000   -1.514000    0.535000
  H      0.903000   -2.419000    0.611000
  H     -0.355000   -1.484000    1.414000
  C     -0.572000   -1.590000   -0.725000
  H     -1.089000   -0.636000   -0.890000
  H      0.050000   -1.792000   -1.603000
  C     -0.745000    1.244000    0.837000
  N     -0.791000    2.000000   -0.298000
  O     -1.764000    0.879000    1.444000
  C      0.346000    2.301000   -1.154000
  H      0.282000    1.724000   -2.085000
  H      0.329000    3.366000   -1.410000
  H      1.292000    2.071000   -0.670000
  C     -2.094000    2.344000   -0.846000
  H     -2.325000    1.723000   -1.721000
  H     -2.848000    2.180000   -0.078000
  H     -2.092000    3.394000   -1.154000
  O     -1.496000   -2.662000   -0.617000
  C     -2.726000   -2.246000   -0.023000
  H     -3.278000   -1.583000   -0.701000
  H     -3.306000   -3.153000    0.149000
  H     -2.571000   -1.719000    0.924000

----------------------------
CARTESIAN COORDINATES (A.U.)
----------------------------
  NO LB      ZA    FRAG     MASS         X           Y           Z
   0 C     6.0000    0    12.011    5.601148   -2.819471   -1.130056
   1 H     1.0000    0     1.008    4.329363   -3.633943   -2.536012
   2 H     1.0000    0     1.008    5.980983   -4.261332    0.302356
   3 H     1.0000    0     1.008    7.375601   -2.296017   -2.035235
   4 C     6.0000    0    12.011    4.539122   -0.449755    0.077479
   5 O     8.0000    0    15.999    5.793900    1.523119    0.171965
   6 N     7.0000    0    14.007    2.148619   -0.604712    1.084703
   7 C     6.0000    0    12.011    1.177299    1.523119    2.549241
   8 H     1.0000    0     1.008    0.869274    0.933525    4.508887
   9 H     1.0000    0     1.008    2.592704    3.017893    2.511446
  10 C     6.0000    0    12.011    0.559359   -2.861045    1.011003
  11 H     1.0000    0     1.008    1.706423   -4.571248    1.154623
  12 H     1.0000    0     1.008   -0.670853   -2.804354    2.672073
  13 C     6.0000    0    12.011   -1.080923   -3.004665   -1.370051
  14 H     1.0000    0     1.008   -2.057912   -1.201866   -1.681856
  15 H     1.0000    0     1.008    0.094486   -3.386389   -3.029231
  16 C     6.0000    0    12.011   -1.407846    2.350819    1.581701
  17 N     7.0000    0    14.007   -1.494773    3.779452   -0.563138
  18 O     8.0000    0    15.999   -3.333477    1.661069    2.728765
  19 C     6.0000    0    12.011    0.653845    4.348260   -2.180744
  20 H     1.0000    0     1.008    0.532903    3.257888   -3.940079
  21 H     1.0000    0     1.008    0.621720    6.360818   -2.664514
  22 H     1.0000    0     1.008    2.441526    3.913623   -1.266117
  23 C     6.0000    0    12.011   -3.957087    4.429518   -1.598708
  24 H     1.0000    0     1.008   -4.393613    3.255998   -3.252219
  25 H     1.0000    0     1.008   -5.381940    4.119603   -0.147399
  26 H     1.0000    0     1.008   -3.953307    6.413730   -2.180744
  27 O     8.0000    0    15.999   -2.827030   -5.030451   -1.165961
  28 C     6.0000    0    12.011   -5.151393   -4.244325   -0.043464
  29 H     1.0000    0     1.008   -6.194522   -2.991436   -1.324698
  30 H     1.0000    0     1.008   -6.247435   -5.958307    0.281569
  31 H     1.0000    0     1.008   -4.858486   -3.248439    1.746107

--------------------------------
INTERNAL COORDINATES (ANGSTROEM)
--------------------------------
 C      0   0   0     0.000000000000     0.00000000     0.00000000
 H      1   0   0     1.091891020203     0.00000000     0.00000000
 H      1   2   0     1.094136188964   108.06033933     0.00000000
 H      1   2   3     1.089904124224   109.38302775   118.38263129
 C      1   2   3     1.515480451870   112.66585070   237.41171557
 O      5   1   2     1.238277836352   121.05147825   231.50647135
 N      5   1   2     1.375150173617   117.07922951    52.35182735
 C      7   5   1     1.460375636609   118.91329749   172.20475346
 H      8   7   5     1.095117345311   109.58718881   244.20655400
 H      8   7   5     1.089532927451   107.94301113     2.86216165
 C      7   5   1     1.460971594522   124.60542203   358.39888437
 H     11   7   5     1.092359830825   110.81541741    34.16130768
 H     11   7   5     1.094231236988   107.37488235   151.05619885
 C     11   7   5     1.531926891206   112.87146320   271.15944250
 H     14  11   7     1.097556376684   110.32989358   311.30014833
 H     14  11   7     1.094793131144   110.29545739    70.41614562
 C      8   7   5     1.524930162335   111.04037930   128.12437857
 N     17   8   7     1.364506137766   117.94732610   281.94406808
 O     17   8   7     1.240981466421   119.20372754   100.36850594
 C     18  17   8     1.454684158159   125.29326925     7.44088539
 H     20  18  17     1.097171818814   110.17635446   106.46498853
 H     20  18  17     1.095467936546   109.05931868   225.06591695
 H     20  18  17     1.087231346126   111.98430846   345.61195062
 C     18  17   8     1.454802048390   118.32871956   175.78293193
 H     24  18  17     1.097555010011   110.79465449   256.77339205
 H     24  18  17     1.088685445847   108.60027815    16.89442970
 H     24  18  17     1.094243117410   109.34690455   137.11088787
 O     14  11   7     1.419374510128   110.10499261   188.21466087
 C     28  14  11     1.427862738501   111.86332270    90.22792261
 H     29  28  14     1.097249743677   110.63117756    69.29452829
 H     29  28  14     1.090244467998   106.35126391   188.02934043
 H     29  28  14     1.094789020771   112.21805650   308.14985096

---------------------------
INTERNAL COORDINATES (A.U.)
---------------------------
 C      0   0   0     0.000000000000     0.00000000     0.00000000
 H      1   0   0     2.063374996272     0.00000000     0.00000000
 H      1   2   0     2.067617750354   108.06033933     0.00000000
 H      1   2   3     2.059620307014   109.38302775   118.38263129
 C      1   2   3     2.863843015345   112.66585070   237.41171557
 O      5   1   2     2.340005988409   121.05147825   231.50647135
 N      5   1   2     2.598657221151   117.07922951    52.35182735
 C      7   5   1     2.759710005841   118.91329749   172.20475346
 H      8   7   5     2.069471867144   109.58718881   244.20655400
 H      8   7   5     2.058918846772   107.94301113     2.86216165
 C      7   5   1     2.760836203085   124.60542203   358.39888437
 H     11   7   5     2.064260919956   110.81541741    34.16130768
 H     11   7   5     2.067797365089   107.37488235   151.05619885
 C     11   7   5     2.894922281569   112.87146320   271.15944250
 H     14  11   7     2.074080968472   110.32989358   311.30014833
 H     14  11   7     2.068859191160   110.29545739    70.41614562
 C      8   7   5     2.881700380170   111.04037930   128.12437857
 N     17   8   7     2.578542908432   117.94732610   281.94406808
 O     17   8   7     2.345115108807   119.20372754   100.36850594
 C     18  17   8     2.748954670275   125.29326925     7.44088539
 H     20  18  17     2.073354259415   110.17635446   106.46498853
 H     20  18  17     2.070134388563   109.05931868   225.06591695
 H     20  18  17     2.054569488394   111.98430846   345.61195062
 C     18  17   8     2.749177450525   118.32871956   175.78293193
 H     24  18  17     2.074078385834   110.79465449   256.77339205
 H     24  18  17     2.057317338638   108.60027815    16.89442970
 H     24  18  17     2.067819815834   109.34690455   137.11088787
 O     14  11   7     2.682229105610   110.10499261   188.21466087
 C     28  14  11     2.698269532598   111.86332270    90.22792261
 H     29  28  14     2.073501516065   110.63117756    69.29452829
 H     29  28  14     2.060263463539   106.35126391   188.02934043
 H     29  28  14     2.068851423680   112.21805650   308.14985096

---------------------
BASIS SET INFORMATION
---------------------
There are 4 groups of distinct atoms

 Group   1 Type C   : 10s4p1d contracted to 3s2p1d pattern {631/31/1}
 Group   2 Type H   : 4s contracted to 2s pattern {31}
 Group   3 Type O   : 10s4p1d contracted to 3s2p1d pattern {631/31/1}
 Group   4 Type N   : 10s4p1d contracted to 3s2p1d pattern {631/31/1}

Atom   0C    basis set group =>   1
Atom   1H    basis set group =>   2
Atom   2H    basis set group =>   2
Atom   3H    basis set group =>   2
Atom   4C    basis set group =>   1
Atom   5O    basis set group =>   3
Atom   6N    basis set group =>   4
Atom   7C    basis set group =>   1
Atom   8H    basis set group =>   2
Atom   9H    basis set group =>   2
Atom  10C    basis set group =>   1
Atom  11H    basis set group =>   2
Atom  12H    basis set group =>   2
Atom  13C    basis set group =>   1
Atom  14H    basis set group =>   2
Atom  15H    basis set group =>   2
Atom  16C    basis set group =>   1
Atom  17N    basis set group =>   4
Atom  18O    basis set group =>   3
Atom  19C    basis set group =>   1
Atom  20H    basis set group =>   2
Atom  21H    basis set group =>   2
Atom  22H    basis set group =>   2
Atom  23C    basis set group =>   1
Atom  24H    basis set group =>   2
Atom  25H    basis set group =>   2
Atom  26H    basis set group =>   2
Atom  27O    basis set group =>   3
Atom  28C    basis set group =>   1
Atom  29H    basis set group =>   2
Atom  30H    basis set group =>   2
Atom  31H    basis set group =>   2
---------------------------------
AUXILIARY/J BASIS SET INFORMATION
---------------------------------
There are 4 groups of distinct atoms

 Group   1 Type C   : 13s11p10d2f contracted to 13s11p10d2f pattern {1111111111111/11111111111/1111111111/11}
 Group   2 Type H   : 9s2p contracted to 9s2p pattern {111111111/11}
 Group   3 Type O   : 14s11p10d2f contracted to 14s11p10d2f pattern {11111111111111/11111111111/1111111111/11}
 Group   4 Type N   : 14s11p10d2f contracted to 14s11p10d2f pattern {11111111111111/11111111111/1111111111/11}

Atom   0C    basis set group =>   1
Atom   1H    basis set group =>   2
Atom   2H    basis set group =>   2
Atom   3H    basis set group =>   2
Atom   4C    basis set group =>   1
Atom   5O    basis set group =>   3
Atom   6N    basis set group =>   4
Atom   7C    basis set group =>   1
Atom   8H    basis set group =>   2
Atom   9H    basis set group =>   2
Atom  10C    basis set group =>   1
Atom  11H    basis set group =>   2
Atom  12H    basis set group =>   2
Atom  13C    basis set group =>   1
Atom  14H    basis set group =>   2
Atom  15H    basis set group =>   2
Atom  16C    basis set group =>   1
Atom  17N    basis set group =>   4
Atom  18O    basis set group =>   3
Atom  19C    basis set group =>   1
Atom  20H    basis set group =>   2
Atom  21H    basis set group =>   2
Atom  22H    basis set group =>   2
Atom  23C    basis set group =>   1
Atom  24H    basis set group =>   2
Atom  25H    basis set group =>   2
Atom  26H    basis set group =>   2
Atom  27O    basis set group =>   3
Atom  28C    basis set group =>   1
Atom  29H    basis set group =>   2
Atom  30H    basis set group =>   2
Atom  31H    basis set group =>   2
---------------------------------
AUXILIARY/C BASIS SET INFORMATION
---------------------------------
There are 4 groups of distinct atoms

 Group   1 Type C   : 13s11p10d2f contracted to 13s11p10d2f pattern {1111111111111/11111111111/1111111111/11}
 Group   2 Type H   : 9s2p contracted to 9s2p pattern {111111111/11}
 Group   3 Type O   : 14s11p10d2f contracted to 14s11p10d2f pattern {11111111111111/11111111111/1111111111/11}
 Group   4 Type N   : 14s11p10d2f contracted to 14s11p10d2f pattern {11111111111111/11111111111/1111111111/11}

Atom   0C    basis set group =>   1
Atom   1H    basis set group =>   2
Atom   2H    basis set group =>   2
Atom   3H    basis set group =>   2
Atom   4C    basis set group =>   1
Atom   5O    basis set group =>   3
Atom   6N    basis set group =>   4
Atom   7C    basis set group =>   1
Atom   8H    basis set group =>   2
Atom   9H    basis set group =>   2
Atom  10C    basis set group =>   1
Atom  11H    basis set group =>   2
Atom  12H    basis set group =>   2
Atom  13C    basis set group =>   1
Atom  14H    basis set group =>   2
Atom  15H    basis set group =>   2
Atom  16C    basis set group =>   1
Atom  17N    basis set group =>   4
Atom  18O    basis set group =>   3
Atom  19C    basis set group =>   1
Atom  20H    basis set group =>   2
Atom  21H    basis set group =>   2
Atom  22H    basis set group =>   2
Atom  23C    basis set group =>   1
Atom  24H    basis set group =>   2
Atom  25H    basis set group =>   2
Atom  26H    basis set group =>   2
Atom  27O    basis set group =>   3
Atom  28C    basis set group =>   1
Atom  29H    basis set group =>   2
Atom  30H    basis set group =>   2
Atom  31H    basis set group =>   2
----------------------------------
AUXILIARY/JK BASIS SET INFORMATION
----------------------------------
There are 4 groups of distinct atoms

 Group   1 Type C   : 13s11p10d2f contracted to 13s11p10d2f pattern {1111111111111/11111111111/1111111111/11}
 Group   2 Type H   : 9s2p contracted to 9s2p pattern {111111111/11}
 Group   3 Type O   : 14s11p10d2f contracted to 14s11p10d2f pattern {11111111111111/11111111111/1111111111/11}
 Group   4 Type N   : 14s11p10d2f contracted to 14s11p10d2f pattern {11111111111111/11111111111/1111111111/11}

Atom   0C    basis set group =>   1
Atom   1H    basis set group =>   2
Atom   2H    basis set group =>   2
Atom   3H    basis set group =>   2
Atom   4C    basis set group =>   1
Atom   5O    basis set group =>   3
Atom   6N    basis set group =>   4
Atom   7C    basis set group =>   1
Atom   8H    basis set group =>   2
Atom   9H    basis set group =>   2
Atom  10C    basis set group =>   1
Atom  11H    basis set group =>   2
Atom  12H    basis set group =>   2
Atom  13C    basis set group =>   1
Atom  14H    basis set group =>   2
Atom  15H    basis set group =>   2
Atom  16C    basis set group =>   1
Atom  17N    basis set group =>   4
Atom  18O    basis set group =>   3
Atom  19C    basis set group =>   1
Atom  20H    basis set group =>   2
Atom  21H    basis set group =>   2
Atom  22H    basis set group =>   2
Atom  23C    basis set group =>   1
Atom  24H    basis set group =>   2
Atom  25H    basis set group =>   2
Atom  26H    basis set group =>   2
Atom  27O    basis set group =>   3
Atom  28C    basis set group =>   1
Atom  29H    basis set group =>   2
Atom  30H    basis set group =>   2
Atom  31H    basis set group =>   2


           ************************************************************
           *        Program running with 4 parallel MPI-processes     *
           *              working on a common directory               *
           ************************************************************
------------------------------------------------------------------------------
                           ORCA GTO INTEGRAL CALCULATION
                           -- RI-GTO INTEGRALS CHOSEN --
------------------------------------------------------------------------------
------------------------------------------------------------------------------
                   ___                                                        
                  /   \      - P O W E R E D   B Y -                         
                 /     \                                                     
                 |  |  |   _    _      __       _____    __    __             
                 |  |  |  | |  | |    /  \     |  _  \  |  |  /  |          
                  \  \/   | |  | |   /    \    | | | |  |  | /  /          
                 / \  \   | |__| |  /  /\  \   | |_| |  |  |/  /          
                |  |  |   |  __  | /  /__\  \  |    /   |      \           
                |  |  |   | |  | | |   __   |  |    \   |  |\   \          
                \     /   | |  | | |  |  |  |  | |\  \  |  | \   \       
                 \___/    |_|  |_| |__|  |__|  |_| \__\ |__|  \__/        
                                                                              
                      - O R C A' S   B I G   F R I E N D -                    
                                      &                                       
                       - I N T E G R A L  F E E D E R -                       
                                                                              
 v1 FN, 2020, v2 2021                                                         
------------------------------------------------------------------------------


Reading SHARK input file NmO_water.SHARKINP.tmp ... ok
----------------------
SHARK INTEGRAL PACKAGE
----------------------

Number of atoms                             ...     32
Number of basis functions                   ...    232
Number of shells                            ...    120
Maximum angular momentum                    ...      2
Integral batch strategy                     ... SHARK/LIBINT Hybrid
RI-J (if used) integral strategy            ... SPLIT-RIJ (Revised 2003 algorithm where possible)
Printlevel                                  ...      1
Contraction scheme used                     ... SEGMENTED contraction
Coulomb Range Separation                    ... NOT USED
Exchange Range Separation                   ... NOT USED
Finite Nucleus Model                        ... NOT USED
Auxiliary Coulomb fitting basis             ... AVAILABLE
   # of basis functions in Aux-J            ...   1815
   # of shells in Aux-J                     ...    707
   Maximum angular momentum in Aux-J        ...      3
Auxiliary J/K fitting basis                 ... AVAILABLE
   # of basis functions in Aux-JK           ...   1815
   # of shells in Aux-JK                    ...    707
   Maximum angular momentum in Aux-JK       ...      3
Auxiliary Correlation fitting basis         ... AVAILABLE
   # of basis functions in Aux-C            ...   1815
   # of shells in Aux-C                     ...    707
   Maximum angular momentum in Aux-C        ...      3
Auxiliary 'external' fitting basis          ... NOT available
Integral threshold                          ...     2.500000e-11
Primitive cut-off                           ...     2.500000e-12
Primitive pair pre-selection threshold      ...     2.500000e-12

Calculating pre-screening integrals         ... done (  0.0 sec) Dimension = 120
Organizing shell pair data                  ... done (  0.6 sec)
Shell pair information
Total number of shell pairs                 ...      7260
Shell pairs after pre-screening             ...      6356
Total number of primitive shell pairs       ...     40251
Primitive shell pairs kept                  ...     20697
          la=0 lb=0:   2603 shell pairs
          la=1 lb=0:   2003 shell pairs
          la=1 lb=1:    393 shell pairs
          la=2 lb=0:    902 shell pairs
          la=2 lb=1:    363 shell pairs
          la=2 lb=2:     92 shell pairs

Calculating one electron integrals          ... done (  0.0 sec)
Calculating RI/J V-Matrix + Cholesky decomp.... done (  0.2 sec)
Calculating RI/JK V-Matrix + Cholesky decomp... done (  0.2 sec)
Calculating RI/C V-Matrix + Cholesky decomp.... done (  0.2 sec)
Calculating Nuclear repulsion               ... done (  0.0 sec) ENN=   1010.204860362792 Eh

SHARK setup successfully completed in   1.9 seconds

Maximum memory used throughout the entire GTOINT-calculation: 30.0 MB


           ************************************************************
           *        Program running with 4 parallel MPI-processes     *
           *              working on a common directory               *
           ************************************************************
-------------------------------------------------------------------------------
                                 ORCA SCF
-------------------------------------------------------------------------------

------------
SCF SETTINGS
------------
Hamiltonian:
 Density Functional     Method          .... DFT(GTOs)
 Exchange Functional    Exchange        .... B88
   X-Alpha parameter    XAlpha          ....  0.666667
   Becke's b parameter  XBeta           ....  0.004200
 Correlation Functional Correlation     .... LYP
 LDA part of GGA corr.  LDAOpt          .... VWN-5
 Gradients option       PostSCFGGA      .... off
 Hybrid DFT is turned on
   Fraction HF Exchange ScalHFX         ....  0.200000
   Scaling of DF-GGA-X  ScalDFX         ....  0.720000
   Scaling of DF-GGA-C  ScalDFC         ....  0.810000
   Scaling of DF-LDA-C  ScalLDAC        ....  1.000000
   Perturbative correction              ....  0.000000
   Density functional embedding theory  .... OFF
   NL short-range parameter             ....  4.800000
 RI-approximation to the Coulomb term is turned on
   Number of AuxJ basis functions       .... 1815
   RIJ-COSX (HFX calculated with COS-X)).... on


General Settings:
 Integral files         IntName         .... NmO_water
 Hartree-Fock type      HFTyp           .... RHF
 Total Charge           Charge          ....    0
 Multiplicity           Mult            ....    1
 Number of Electrons    NEL             ....  110
 Basis Dimension        Dim             ....  232
 Nuclear Repulsion      ENuc            ....   1010.2048603628 Eh

Convergence Acceleration:
 DIIS                   CNVDIIS         .... on
   Start iteration      DIISMaxIt       ....    12
   Startup error        DIISStart       ....  0.200000
   # of expansion vecs  DIISMaxEq       ....     5
   Bias factor          DIISBfac        ....   1.050
   Max. coefficient     DIISMaxC        ....  10.000
 Trust-Rad. Augm. Hess. CNVTRAH         .... auto
   Auto Start mean grad. ratio tolernc. ....  1.125000
   Auto Start start iteration           ....    20
   Auto Start num. interpolation iter.  ....    10
   Max. Number of Micro iterations      ....    16
   Max. Number of Macro iterations      .... Maxiter - #DIIS iter
   Number of Davidson start vectors     ....     2
   Converg. threshold I  (grad. norm)   ....   1.000e-05
   Converg. threshold II (energy diff.) ....   1.000e-08
   Grad. Scal. Fac. for Micro threshold ....   0.100
   Minimum threshold for Micro iter.    ....   0.010
   NR start threshold (gradient norm)   ....   0.001
   Initial trust radius                 ....   0.400
   Minimum AH scaling param. (alpha)    ....   1.000
   Maximum AH scaling param. (alpha)    .... 1000.000
   Orbital update algorithm             .... Taylor
   White noise on init. David. guess    .... on
   Maximum white noise                  ....   0.010
   Quad. conv. algorithm                .... NR
 SOSCF                  CNVSOSCF        .... on
   Start iteration      SOSCFMaxIt      ....   150
   Startup grad/error   SOSCFStart      ....  0.003300
 Level Shifting         CNVShift        .... on
   Level shift para.    LevelShift      ....    0.2500
   Turn off err/grad.   ShiftErr        ....    0.0010
 Zerner damping         CNVZerner       .... off
 Static damping         CNVDamp         .... on
   Fraction old density DampFac         ....    0.7000
   Max. Damping (<1)    DampMax         ....    0.9800
   Min. Damping (>=0)   DampMin         ....    0.0000
   Turn off err/grad.   DampErr         ....    0.1000
 Fernandez-Rico         CNVRico         .... off

SCF Procedure:
 Maximum # iterations   MaxIter         ....   125
 SCF integral mode      SCFMode         .... Direct
   Integral package                     .... SHARK and LIBINT hybrid scheme
 Reset frequency        DirectResetFreq ....    20
 Integral Threshold     Thresh          ....  2.500e-11 Eh
 Primitive CutOff       TCut            ....  2.500e-12 Eh

Convergence Tolerance:
 Convergence Check Mode ConvCheckMode   .... Total+1el-Energy
 Convergence forced     ConvForced      .... 0
 Energy Change          TolE            ....  1.000e-08 Eh
 1-El. energy change                    ....  1.000e-05 Eh
 Orbital Gradient       TolG            ....  1.000e-05
 Orbital Rotation angle TolX            ....  1.000e-05
 DIIS Error             TolErr          ....  5.000e-07


Diagonalization of the overlap matrix:
Smallest eigenvalue                        ... 3.166e-03
Time for diagonalization                   ...    0.010 sec
Threshold for overlap eigenvalues          ... 1.000e-08
Number of eigenvalues below threshold      ... 0
Time for construction of square roots      ...    0.014 sec
Total time needed                          ...    0.035 sec

Time for model grid setup =    0.284 sec

------------------------------
INITIAL GUESS: MODEL POTENTIAL
------------------------------
Loading Hartree-Fock densities                     ... done
Calculating cut-offs                               ... done
Initializing the effective Hamiltonian             ... done
Setting up the integral package (SHARK)            ... done
Starting the Coulomb interaction                   ... done (   0.4 sec)
Reading the grid                                   ... done
Mapping shells                                     ... done
Starting the XC term evaluation                    ... done (   0.2 sec)
  promolecular density results
     # of electrons  =    109.987285054
     EX              =    -89.381952823
     EC              =     -3.721844704
     EX+EC           =    -93.103797527
Transforming the Hamiltonian                       ... done (   0.0 sec)
Diagonalizing the Hamiltonian                      ... done (   0.0 sec)
Back transforming the eigenvectors                 ... done (   0.0 sec)
Now organizing SCF variables                       ... done
                      ------------------
                      INITIAL GUESS DONE (   0.8 sec)
                      ------------------
-------------------
DFT GRID GENERATION
-------------------

General Integration Accuracy     IntAcc      ... 4.388
Radial Grid Type                 RadialGrid  ... OptM3 with GC (2021)
Angular Grid (max. ang.)         AngularGrid ... 4 (Lebedev-302)
Angular grid pruning method      GridPruning ... 4 (adaptive)
Weight generation scheme         WeightScheme... Becke
Basis function cutoff            BFCut       ... 1.0000e-11
Integration weight cutoff        WCut        ... 1.0000e-14
Angular grids for H and He will be reduced by one unit
Partially contracted basis set               ... off
Rotationally invariant grid construction     ... off

Total number of grid points                  ...   140976
Total number of batches                      ...     2218
Average number of points per batch           ...       63
Average number of grid points per atom       ...     4406
Time for grid setup =    1.159 sec

--------------------
COSX GRID GENERATION
--------------------

GRIDX 1
-------
General Integration Accuracy     IntAcc      ... 3.816
Radial Grid Type                 RadialGrid  ... OptM3 with GC (2021)
Angular Grid (max. ang.)         AngularGrid ... 1 (Lebedev-50)
Angular grid pruning method      GridPruning ... 4 (adaptive)
Weight generation scheme         WeightScheme... Becke
Basis function cutoff            BFCut       ... 1.0000e-11
Integration weight cutoff        WCut        ... 1.0000e-14
Angular grids for H and He will be reduced by one unit
Partially contracted basis set               ... on
Rotationally invariant grid construction     ... off

Total number of grid points                  ...    17973
Total number of batches                      ...      301
Average number of points per batch           ...       59
Average number of grid points per atom       ...      562
UseSFitting                                  ... on

GRIDX 2
-------
General Integration Accuracy     IntAcc      ... 4.020
Radial Grid Type                 RadialGrid  ... OptM3 with GC (2021)
Angular Grid (max. ang.)         AngularGrid ... 2 (Lebedev-110)
Angular grid pruning method      GridPruning ... 4 (adaptive)
Weight generation scheme         WeightScheme... Becke
Basis function cutoff            BFCut       ... 1.0000e-11
Integration weight cutoff        WCut        ... 1.0000e-14
Angular grids for H and He will be reduced by one unit
Partially contracted basis set               ... on
Rotationally invariant grid construction     ... off

Total number of grid points                  ...    37921
Total number of batches                      ...      608
Average number of points per batch           ...       62
Average number of grid points per atom       ...     1185
UseSFitting                                  ... on

GRIDX 3
-------
General Integration Accuracy     IntAcc      ... 4.338
Radial Grid Type                 RadialGrid  ... OptM3 with GC (2021)
Angular Grid (max. ang.)         AngularGrid ... 3 (Lebedev-194)
Angular grid pruning method      GridPruning ... 4 (adaptive)
Weight generation scheme         WeightScheme... Becke
Basis function cutoff            BFCut       ... 1.0000e-11
Integration weight cutoff        WCut        ... 1.0000e-14
Angular grids for H and He will be reduced by one unit
Partially contracted basis set               ... on
Rotationally invariant grid construction     ... off

Total number of grid points                  ...    82566
Total number of batches                      ...     1308
Average number of points per batch           ...       63
Average number of grid points per atom       ...     2580
UseSFitting                                  ... on

Time for X-Grid setup             =    2.257 sec


--------------------
CPCM SOLVATION MODEL
--------------------
CPCM parameters:
  Epsilon                                         ...      80.4000
  Refrac                                          ...       1.3300
  Rsolv                                           ...       1.3000
  Surface type                                    ... GAUSSIAN VDW
  Epsilon function type                           ...         CPCM
Radii:
 Radius for C  used is    3.8550 Bohr (=   2.0400 Ang.)
 Radius for H  used is    2.4944 Bohr (=   1.3200 Ang.)
 Radius for O  used is    3.4469 Bohr (=   1.8240 Ang.)
 Radius for N  used is    3.5149 Bohr (=   1.8600 Ang.)
Calculating surface                               ...        done! (  0.0s)
GEPOL surface points                              ...         1671
GEPOL Volume                                      ...    1719.3262
GEPOL Surface-area                                ...     905.8766
Calculating surface distance matrix               ...        done! (  0.0s)
Performing Cholesky decomposition & store         ...        done! (  0.1s)
Overall time for CPCM initialization              ...                 0.1s
--------------
SCF ITERATIONS
--------------
ITER       Energy         Delta-E        Max-DP      RMS-DP      [F,P]     Damp
               ***  Starting incremental Fock matrix formation  ***
  0   -688.1693621214   0.000000000000 0.09614628  0.00213420  0.2742141 0.7000
  1   -688.3560011218  -0.186639000448 0.05505763  0.00140705  0.1110762 0.7000
                               ***Turning on DIIS***
  2   -688.4274705210  -0.071469399192 0.06237044  0.00216965  0.0373314 0.0000
  3   -688.5450395529  -0.117569031850 0.03750957  0.00096739  0.0530926 0.0000
  4   -688.5674081890  -0.022368636117 0.00795767  0.00030605  0.0102380 0.0000
  5   -688.5689626832  -0.001554494249 0.00316239  0.00008833  0.0046589 0.0000
                      *** Initiating the SOSCF procedure ***
                           *** Shutting down DIIS ***
                      *** Re-Reading the Fockian *** 
                      *** Removing any level shift *** 
ITER      Energy       Delta-E        Grad      Rot      Max-DP    RMS-DP
  6   -688.56905718  -0.0000944932  0.000224  0.000224  0.001358  0.000039
               *** Restarting incremental Fock matrix formation ***
  7   -688.56904969   0.0000074854  0.000230  0.000768  0.001653  0.000025
  8   -688.56904508   0.0000046136  0.000378  0.000554  0.001098  0.000016
  9   -688.56905240  -0.0000073252  0.000064  0.000173  0.000307  0.000006
 10   -688.56905214   0.0000002587  0.000126  0.000115  0.000214  0.000004
 11   -688.56905250  -0.0000003540  0.000004  0.000006  0.000018  0.000001
 12   -688.56905250  -0.0000000058  0.000003  0.000003  0.000009  0.000000
                  ***Gradient check signals convergence***
              ***Rediagonalizing the Fockian in SOSCF/NRSCF***

               *****************************************************
               *                     SUCCESS                       *
               *           SCF CONVERGED AFTER  13 CYCLES          *
               *****************************************************

Old exchange energy                            =    -18.216011926 Eh
New exchange energy                            =    -18.216018145 Eh
Exchange energy change after final integration =     -0.000006219 Eh
Total energy after final integration           =   -688.569058709 Eh
Final COS-X integration done in                =     9.181 sec

----------------
TOTAL SCF ENERGY
----------------

Total Energy       :         -688.56905871 Eh          -18736.91665 eV

Components:
Nuclear Repulsion  :         1010.20486036 Eh           27489.07177 eV
Electronic Energy  :        -1698.77391907 Eh          -46225.98842 eV
One Electron Energy:        -2943.37931786 Eh          -80093.42311 eV
Two Electron Energy:         1244.60539879 Eh           33867.43469 eV
Max COSX asymmetry :            0.00000251 Eh               0.00007 eV
CPCM Dielectric    :           -0.01975449 Eh              -0.53755 eV

Virial components:
Potential Energy   :        -1373.13363407 Eh          -37364.86578 eV
Kinetic Energy     :          684.56457536 Eh           18627.94912 eV
Virial Ratio       :            2.00584968


DFT components:
N(Alpha)           :       55.000097348265 electrons
N(Beta)            :       55.000097348265 electrons
N(Total)           :      110.000194696529 electrons
E(X)               :      -72.345061112442 Eh       
E(C)               :       -4.383625687460 Eh       
E(XC)              :      -76.728686799902 Eh       
DFET-embed. en.    :        0.000000000000 Eh       
CPCM Solvation Model Properties:
Surface-charge          :           -0.01973789
Charge-correction       :           -0.00019541 Eh              -0.00532 eV
Free-energy (cav+disp)  :  This term is not implemented in the current solvation scheme

---------------
SCF CONVERGENCE
---------------

  Last Energy change         ...    1.3359e-08  Tolerance :   1.0000e-08
  Last MAX-Density change    ...    3.1086e-15  Tolerance :   1.0000e-07
  Last RMS-Density change    ...    4.2824e-17  Tolerance :   5.0000e-09
  Last Orbital Gradient      ...    3.8439e-07  Tolerance :   1.0000e-05
  Last Orbital Rotation      ...    1.4581e-06  Tolerance :   1.0000e-05

             **** THE GBW FILE WAS UPDATED (NmO_water.gbw) ****
             **** DENSITY NmO_water.scfp WAS UPDATED ****
             **** ENERGY FILE WAS UPDATED (NmO_water.en.tmp) ****
             **** THE GBW FILE WAS UPDATED (NmO_water.gbw) ****
             **** DENSITY NmO_water.scfp WAS UPDATED ****
----------------
ORBITAL ENERGIES
----------------

  NO   OCC          E(Eh)            E(eV) 
   0   2.0000     -19.140810      -520.8479 
   1   2.0000     -19.112645      -520.0815 
   2   2.0000     -19.110085      -520.0119 
   3   2.0000     -14.363123      -390.8404 
   4   2.0000     -14.360234      -390.7618 
   5   2.0000     -10.286301      -279.9045 
   6   2.0000     -10.280809      -279.7550 
   7   2.0000     -10.218243      -278.0525 
   8   2.0000     -10.211422      -277.8669 
   9   2.0000     -10.208515      -277.7878 
  10   2.0000     -10.207913      -277.7714 
  11   2.0000     -10.198330      -277.5107 
  12   2.0000     -10.194850      -277.4160 
  13   2.0000     -10.173101      -276.8242 
  14   2.0000      -1.034565       -28.1519 
  15   2.0000      -1.026771       -27.9399 
  16   2.0000      -1.024659       -27.8824 
  17   2.0000      -0.935979       -25.4693 
  18   2.0000      -0.928323       -25.2610 
  19   2.0000      -0.765631       -20.8339 
  20   2.0000      -0.748763       -20.3749 
  21   2.0000      -0.718828       -19.5603 
  22   2.0000      -0.707286       -19.2462 
  23   2.0000      -0.682050       -18.5595 
  24   2.0000      -0.668772       -18.1982 
  25   2.0000      -0.614084       -16.7101 
  26   2.0000      -0.553239       -15.0544 
  27   2.0000      -0.539028       -14.6677 
  28   2.0000      -0.514439       -13.9986 
  29   2.0000      -0.495770       -13.4906 
  30   2.0000      -0.482541       -13.1306 
  31   2.0000      -0.471200       -12.8220 
  32   2.0000      -0.467124       -12.7111 
  33   2.0000      -0.462937       -12.5972 
  34   2.0000      -0.459532       -12.5045 
  35   2.0000      -0.443175       -12.0594 
  36   2.0000      -0.433029       -11.7833 
  37   2.0000      -0.413009       -11.2385 
  38   2.0000      -0.403955       -10.9922 
  39   2.0000      -0.401638       -10.9291 
  40   2.0000      -0.397192       -10.8082 
  41   2.0000      -0.393565       -10.7094 
  42   2.0000      -0.392399       -10.6777 
  43   2.0000      -0.384759       -10.4698 
  44   2.0000      -0.383488       -10.4352 
  45   2.0000      -0.372390       -10.1333 
  46   2.0000      -0.362721        -9.8701 
  47   2.0000      -0.354290        -9.6407 
  48   2.0000      -0.349364        -9.5067 
  49   2.0000      -0.312090        -8.4924 
  50   2.0000      -0.266522        -7.2524 
  51   2.0000      -0.255924        -6.9641 
  52   2.0000      -0.254565        -6.9271 
  53   2.0000      -0.238543        -6.4911 
  54   2.0000      -0.231411        -6.2970 
  55   0.0000       0.012943         0.3522 
  56   0.0000       0.025439         0.6922 
  57   0.0000       0.086433         2.3520 
  58   0.0000       0.101397         2.7591 
  59   0.0000       0.108952         2.9647 
  60   0.0000       0.115893         3.1536 
  61   0.0000       0.138968         3.7815 
  62   0.0000       0.144376         3.9287 
  63   0.0000       0.150094         4.0843 
  64   0.0000       0.159172         4.3313 
  65   0.0000       0.165011         4.4902 
  66   0.0000       0.165334         4.4990 
  67   0.0000       0.169226         4.6049 
  68   0.0000       0.173554         4.7226 
  69   0.0000       0.178068         4.8455 
  70   0.0000       0.181964         4.9515 
  71   0.0000       0.190372         5.1803 
  72   0.0000       0.196765         5.3542 
  73   0.0000       0.198739         5.4080 
  74   0.0000       0.207873         5.6565 
  75   0.0000       0.221040         6.0148 
  76   0.0000       0.226546         6.1646 
  77   0.0000       0.230969         6.2850 
  78   0.0000       0.238898         6.5007 
  79   0.0000       0.243434         6.6242 
  80   0.0000       0.252263         6.8644 
  81   0.0000       0.270761         7.3678 
  82   0.0000       0.279845         7.6150 
  83   0.0000       0.298861         8.1324 
  84   0.0000       0.332447         9.0463 
  85   0.0000       0.361941         9.8489 
  86   0.0000       0.378638        10.3033 
  87   0.0000       0.420458        11.4413 
  88   0.0000       0.475191        12.9306 
  89   0.0000       0.505302        13.7500 
  90   0.0000       0.511004        13.9051 
  91   0.0000       0.514085        13.9890 
  92   0.0000       0.524031        14.2596 
  93   0.0000       0.530218        14.4280 
  94   0.0000       0.542272        14.7560 
  95   0.0000       0.546559        14.8726 
  96   0.0000       0.566984        15.4284 
  97   0.0000       0.579031        15.7562 
  98   0.0000       0.594301        16.1717 
  99   0.0000       0.603223        16.4145 
 100   0.0000       0.612734        16.6733 
 101   0.0000       0.620003        16.8711 
 102   0.0000       0.633554        17.2399 
 103   0.0000       0.641434        17.4543 
 104   0.0000       0.656091        17.8531 
 105   0.0000       0.667422        18.1615 
 106   0.0000       0.677068        18.4240 
 107   0.0000       0.694151        18.8888 
 108   0.0000       0.709766        19.3137 
 109   0.0000       0.724791        19.7226 
 110   0.0000       0.748697        20.3731 
 111   0.0000       0.771767        21.0008 
 112   0.0000       0.781978        21.2787 
 113   0.0000       0.788802        21.4644 
 114   0.0000       0.802349        21.8330 
 115   0.0000       0.818329        22.2679 
 116   0.0000       0.828485        22.5442 
 117   0.0000       0.842004        22.9121 
 118   0.0000       0.847450        23.0603 
 119   0.0000       0.850842        23.1526 
 120   0.0000       0.865351        23.5474 
 121   0.0000       0.873665        23.7736 
 122   0.0000       0.876964        23.8634 
 123   0.0000       0.887739        24.1566 
 124   0.0000       0.896542        24.3962 
 125   0.0000       0.903120        24.5751 
 126   0.0000       0.911884        24.8136 
 127   0.0000       0.919164        25.0117 
 128   0.0000       0.926658        25.2157 
 129   0.0000       0.934171        25.4201 
 130   0.0000       0.943771        25.6813 
 131   0.0000       0.951860        25.9014 
 132   0.0000       0.972667        26.4676 
 133   0.0000       0.988238        26.8913 
 134   0.0000       1.000161        27.2158 
 135   0.0000       1.003113        27.2961 
 136   0.0000       1.019953        27.7543 
 137   0.0000       1.024863        27.8880 
 138   0.0000       1.039306        28.2810 
 139   0.0000       1.062607        28.9150 
 140   0.0000       1.066109        29.0103 
 141   0.0000       1.089744        29.6535 
 142   0.0000       1.106747        30.1161 
 143   0.0000       1.123681        30.5769 
 144   0.0000       1.132755        30.8238 
 145   0.0000       1.146705        31.2034 
 146   0.0000       1.181106        32.1395 
 147   0.0000       1.241344        33.7787 
 148   0.0000       1.271749        34.6061 
 149   0.0000       1.277515        34.7629 
 150   0.0000       1.305100        35.5136 
 151   0.0000       1.338614        36.4255 
 152   0.0000       1.354833        36.8669 
 153   0.0000       1.375085        37.4180 
 154   0.0000       1.405165        38.2365 
 155   0.0000       1.417040        38.5596 
 156   0.0000       1.427850        38.8538 
 157   0.0000       1.431119        38.9427 
 158   0.0000       1.443104        39.2689 
 159   0.0000       1.456185        39.6248 
 160   0.0000       1.482755        40.3478 
 161   0.0000       1.514018        41.1985 
 162   0.0000       1.550342        42.1870 
 163   0.0000       1.553596        42.2755 
 164   0.0000       1.621981        44.1364 
 165   0.0000       1.656855        45.0853 
 166   0.0000       1.676249        45.6131 
 167   0.0000       1.707645        46.4674 
 168   0.0000       1.744191        47.4619 
 169   0.0000       1.753773        47.7226 
 170   0.0000       1.769997        48.1641 
 171   0.0000       1.787940        48.6523 
 172   0.0000       1.807760        49.1917 
 173   0.0000       1.827359        49.7250 
 174   0.0000       1.848147        50.2906 
 175   0.0000       1.859729        50.6058 
 176   0.0000       1.871883        50.9365 
 177   0.0000       1.892392        51.4946 
 178   0.0000       1.896692        51.6116 
 179   0.0000       1.913974        52.0819 
 180   0.0000       1.934503        52.6405 
 181   0.0000       1.951557        53.1046 
 182   0.0000       1.954507        53.1848 
 183   0.0000       1.976887        53.7938 
 184   0.0000       1.981762        53.9265 
 185   0.0000       2.012284        54.7570 
 186   0.0000       2.022148        55.0255 
 187   0.0000       2.032368        55.3035 
 188   0.0000       2.049128        55.7596 
 189   0.0000       2.068649        56.2908 
 190   0.0000       2.076287        56.4986 
 191   0.0000       2.081003        56.6270 
 192   0.0000       2.092668        56.9444 
 193   0.0000       2.103389        57.2361 
 194   0.0000       2.125565        57.8396 
 195   0.0000       2.136303        58.1318 
 196   0.0000       2.151647        58.5493 
 197   0.0000       2.205224        60.0072 
 198   0.0000       2.212409        60.2027 
 199   0.0000       2.217841        60.3505 
 200   0.0000       2.229965        60.6804 
 201   0.0000       2.268098        61.7181 
 202   0.0000       2.284472        62.1636 
 203   0.0000       2.286805        62.2271 
 204   0.0000       2.309153        62.8353 
 205   0.0000       2.333723        63.5038 
 206   0.0000       2.347130        63.8687 
 207   0.0000       2.369653        64.4815 
 208   0.0000       2.395378        65.1815 
 209   0.0000       2.411034        65.6076 
 210   0.0000       2.434903        66.2571 
 211   0.0000       2.442362        66.4600 
 212   0.0000       2.494781        67.8864 
 213   0.0000       2.513052        68.3836 
 214   0.0000       2.546045        69.2814 
 215   0.0000       2.558236        69.6131 
 216   0.0000       2.592601        70.5483 
 217   0.0000       2.618842        71.2623 
 218   0.0000       2.632440        71.6323 
 219   0.0000       2.651566        72.1528 
 220   0.0000       2.689246        73.1781 
 221   0.0000       2.710299        73.7510 
 222   0.0000       2.724847        74.1469 
 223   0.0000       2.758810        75.0710 
 224   0.0000       2.776396        75.5496 
 225   0.0000       2.935075        79.8675 
 226   0.0000       2.941810        80.0507 
 227   0.0000       2.969086        80.7930 
 228   0.0000       3.007841        81.8475 
 229   0.0000       3.010739        81.9264 
 230   0.0000       3.163304        86.0779 
 231   0.0000       3.181771        86.5804 

                    ********************************
                    * MULLIKEN POPULATION ANALYSIS *
                    ********************************

-----------------------
MULLIKEN ATOMIC CHARGES
-----------------------
   0 C :   -0.561826
   1 H :    0.194857
   2 H :    0.201135
   3 H :    0.182291
   4 C :    0.531634
   5 O :   -0.533168
   6 N :   -0.375269
   7 C :   -0.247035
   8 H :    0.183045
   9 H :    0.205745
  10 C :   -0.190723
  11 H :    0.184351
  12 H :    0.183824
  13 C :   -0.042823
  14 H :    0.158085
  15 H :    0.160847
  16 C :    0.518712
  17 N :   -0.358705
  18 O :   -0.540981
  19 C :   -0.348451
  20 H :    0.172749
  21 H :    0.173799
  22 H :    0.196601
  23 C :   -0.331276
  24 H :    0.172237
  25 H :    0.184804
  26 H :    0.172953
  27 O :   -0.497280
  28 C :   -0.221004
  29 H :    0.149754
  30 H :    0.163988
  31 H :    0.157129
Sum of atomic charges:    0.0000000

--------------------------------
MULLIKEN REDUCED ORBITAL CHARGES
--------------------------------
  0 C s       :     3.323975  s :     3.323975
      pz      :     1.080237  p :     3.205955
      px      :     1.093204
      py      :     1.032515
      dz2     :     0.002148  d :     0.031896
      dxz     :     0.008151
      dyz     :     0.009861
      dx2y2   :     0.006200
      dxy     :     0.005536
  1 H s       :     0.805143  s :     0.805143
  2 H s       :     0.798865  s :     0.798865
  3 H s       :     0.817709  s :     0.817709
  4 C s       :     2.983717  s :     2.983717
      pz      :     0.798703  p :     2.376732
      px      :     0.768949
      py      :     0.809080
      dz2     :     0.009077  d :     0.107917
      dxz     :     0.017183
      dyz     :     0.018431
      dx2y2   :     0.037612
      dxy     :     0.025613
  5 O s       :     3.862916  s :     3.862916
      pz      :     1.563127  p :     4.645237
      px      :     1.641070
      py      :     1.441041
      dz2     :     0.002404  d :     0.025014
      dxz     :     0.002706
      dyz     :     0.005811
      dx2y2   :     0.006661
      dxy     :     0.007432
  6 N s       :     3.534186  s :     3.534186
      pz      :     1.466165  p :     3.804528
      px      :     1.183775
      py      :     1.154587
      dz2     :     0.004998  d :     0.036556
      dxz     :     0.006192
      dyz     :     0.005892
      dx2y2   :     0.009844
      dxy     :     0.009630
  7 C s       :     3.250291  s :     3.250291
      pz      :     1.010109  p :     2.944834
      px      :     0.992922
      py      :     0.941802
      dz2     :     0.014774  d :     0.051911
      dxz     :     0.006054
      dyz     :     0.009852
      dx2y2   :     0.007163
      dxy     :     0.014068
  8 H s       :     0.816955  s :     0.816955
  9 H s       :     0.794255  s :     0.794255
 10 C s       :     3.226004  s :     3.226004
      pz      :     1.037164  p :     2.912021
      px      :     0.972029
      py      :     0.902827
      dz2     :     0.010550  d :     0.052698
      dxz     :     0.013286
      dyz     :     0.005364
      dx2y2   :     0.007390
      dxy     :     0.016108
 11 H s       :     0.815649  s :     0.815649
 12 H s       :     0.816176  s :     0.816176
 13 C s       :     3.198784  s :     3.198784
      pz      :     1.006509  p :     2.779327
      px      :     0.891710
      py      :     0.881108
      dz2     :     0.011577  d :     0.064712
      dxz     :     0.016287
      dyz     :     0.007228
      dx2y2   :     0.011522
      dxy     :     0.018099
 14 H s       :     0.841915  s :     0.841915
 15 H s       :     0.839153  s :     0.839153
 16 C s       :     2.987001  s :     2.987001
      pz      :     0.777483  p :     2.386812
      px      :     0.814043
      py      :     0.795287
      dz2     :     0.028493  d :     0.107476
      dxz     :     0.022417
      dyz     :     0.016575
      dx2y2   :     0.023078
      dxy     :     0.016913
 17 N s       :     3.532602  s :     3.532602
      pz      :     1.200347  p :     3.788278
      px      :     1.110235
      py      :     1.477696
      dz2     :     0.008191  d :     0.037826
      dxz     :     0.010062
      dyz     :     0.005996
      dx2y2   :     0.007849
      dxy     :     0.005728
 18 O s       :     3.861716  s :     3.861716
      pz      :     1.616631  p :     4.654430
      px      :     1.502424
      py      :     1.535375
      dz2     :     0.004114  d :     0.024835
      dxz     :     0.007158
      dyz     :     0.002287
      dx2y2   :     0.004903
      dxy     :     0.006373
 19 C s       :     3.269462  s :     3.269462
      pz      :     1.002078  p :     3.030814
      px      :     0.937808
      py      :     1.090929
      dz2     :     0.008266  d :     0.048175
      dxz     :     0.012687
      dyz     :     0.009275
      dx2y2   :     0.012870
      dxy     :     0.005077
 20 H s       :     0.827251  s :     0.827251
 21 H s       :     0.826201  s :     0.826201
 22 H s       :     0.803399  s :     0.803399
 23 C s       :     3.259852  s :     3.259852
      pz      :     1.072675  p :     3.023553
      px      :     0.870726
      py      :     1.080152
      dz2     :     0.006249  d :     0.047871
      dxz     :     0.013309
      dyz     :     0.008294
      dx2y2   :     0.013412
      dxy     :     0.006607
 24 H s       :     0.827763  s :     0.827763
 25 H s       :     0.815196  s :     0.815196
 26 H s       :     0.827047  s :     0.827047
 27 O s       :     3.857039  s :     3.857039
      pz      :     1.777455  p :     4.613058
      px      :     1.289161
      py      :     1.546442
      dz2     :     0.003722  d :     0.027183
      dxz     :     0.004935
      dyz     :     0.003681
      dx2y2   :     0.005724
      dxy     :     0.009121
 28 C s       :     3.252336  s :     3.252336
      pz      :     1.032352  p :     2.909515
      px      :     0.798901
      py      :     1.078263
      dz2     :     0.010356  d :     0.059153
      dxz     :     0.013355
      dyz     :     0.010759
      dx2y2   :     0.008897
      dxy     :     0.015785
 29 H s       :     0.850246  s :     0.850246
 30 H s       :     0.836012  s :     0.836012
 31 H s       :     0.842871  s :     0.842871


                     *******************************
                     * LOEWDIN POPULATION ANALYSIS *
                     *******************************

----------------------
LOEWDIN ATOMIC CHARGES
----------------------
   0 C :   -0.393110
   1 H :    0.153839
   2 H :    0.160402
   3 H :    0.151230
   4 C :    0.119064
   5 O :   -0.335173
   6 N :   -0.069921
   7 C :   -0.177857
   8 H :    0.145786
   9 H :    0.159539
  10 C :   -0.176760
  11 H :    0.144326
  12 H :    0.144601
  13 C :   -0.113789
  14 H :    0.123587
  15 H :    0.127402
  16 C :    0.096001
  17 N :   -0.067986
  18 O :   -0.339733
  19 C :   -0.286545
  20 H :    0.133728
  21 H :    0.136751
  22 H :    0.149640
  23 C :   -0.281174
  24 H :    0.132451
  25 H :    0.147411
  26 H :    0.137227
  27 O :   -0.268653
  28 C :   -0.217378
  29 H :    0.115778
  30 H :    0.130804
  31 H :    0.118512

-------------------------------
LOEWDIN REDUCED ORBITAL CHARGES
-------------------------------
  0 C s       :     2.981395  s :     2.981395
      pz      :     1.126490  p :     3.348994
      px      :     1.133892
      py      :     1.088613
      dz2     :     0.003930  d :     0.062721
      dxz     :     0.015074
      dyz     :     0.019745
      dx2y2   :     0.012638
      dxy     :     0.011333
  1 H s       :     0.846161  s :     0.846161
  2 H s       :     0.839598  s :     0.839598
  3 H s       :     0.848770  s :     0.848770
  4 C s       :     2.850532  s :     2.850532
      pz      :     0.841703  p :     2.776018
      px      :     0.931583
      py      :     1.002732
      dz2     :     0.020508  d :     0.254386
      dxz     :     0.039131
      dyz     :     0.040143
      dx2y2   :     0.092480
      dxy     :     0.062124
  5 O s       :     3.564485  s :     3.564485
      pz      :     1.553925  p :     4.719286
      px      :     1.645934
      py      :     1.519427
      dz2     :     0.006279  d :     0.051402
      dxz     :     0.004151
      dyz     :     0.009061
      dx2y2   :     0.013492
      dxy     :     0.018420
  6 N s       :     3.094565  s :     3.094565
      pz      :     1.452855  p :     3.880058
      px      :     1.222943
      py      :     1.204261
      dz2     :     0.011309  d :     0.095298
      dxz     :     0.015575
      dyz     :     0.014531
      dx2y2   :     0.027695
      dxy     :     0.026187
  7 C s       :     2.931083  s :     2.931083
      pz      :     1.061788  p :     3.137070
      px      :     1.057459
      py      :     1.017823
      dz2     :     0.030306  d :     0.109704
      dxz     :     0.012629
      dyz     :     0.020472
      dx2y2   :     0.016092
      dxy     :     0.030204
  8 H s       :     0.854214  s :     0.854214
  9 H s       :     0.840461  s :     0.840461
 10 C s       :     2.930089  s :     2.930089
      pz      :     1.103198  p :     3.133766
      px      :     1.039192
      py      :     0.991376
      dz2     :     0.022058  d :     0.112905
      dxz     :     0.029568
      dyz     :     0.011112
      dx2y2   :     0.016445
      dxy     :     0.033722
 11 H s       :     0.855674  s :     0.855674
 12 H s       :     0.855399  s :     0.855399
 13 C s       :     2.937050  s :     2.937050
      pz      :     1.082474  p :     3.037387
      px      :     0.979182
      py      :     0.975731
      dz2     :     0.024251  d :     0.139352
      dxz     :     0.036567
      dyz     :     0.015210
      dx2y2   :     0.024759
      dxy     :     0.038564
 14 H s       :     0.876413  s :     0.876413
 15 H s       :     0.872598  s :     0.872598
 16 C s       :     2.854188  s :     2.854188
      pz      :     0.921347  p :     2.795182
      px      :     1.013882
      py      :     0.859953
      dz2     :     0.067602  d :     0.254629
      dxz     :     0.053062
      dyz     :     0.041393
      dx2y2   :     0.054323
      dxy     :     0.038248
 17 N s       :     3.090135  s :     3.090135
      pz      :     1.257579  p :     3.879960
      px      :     1.169885
      py      :     1.452495
      dz2     :     0.020740  d :     0.097891
      dxz     :     0.028270
      dyz     :     0.015925
      dx2y2   :     0.018377
      dxy     :     0.014579
 18 O s       :     3.565450  s :     3.565450
      pz      :     1.622172  p :     4.722807
      px      :     1.566842
      py      :     1.533793
      dz2     :     0.007667  d :     0.051475
[...]
     61      -0.000145   0.000983   0.017084   0.000326  -0.031370   0.094851
     62      -0.000161   0.001178   0.018383   0.000304  -0.033264   0.102410
     63      -0.000018   0.000074   0.000106  -0.000018  -0.001408   0.008052
     64       0.000557  -0.000698  -0.030253  -0.001391   0.069641  -0.195772
     65      -0.000201   0.000320   0.008342   0.000389  -0.021458   0.059686
     66       0.000006  -0.002802   0.121478   0.005019  -0.263745   0.772498
     67      -0.000008   0.000547  -0.020665  -0.000948   0.042217  -0.121999
     68      -0.000005  -0.001619   0.069942   0.002860  -0.151055   0.441332
     69       0.000011  -0.000181   0.000389   0.000029  -0.050592  -0.016822
     70      -0.000106  -0.000209  -0.000020   0.000027  -0.018598  -0.006123
     71      -0.000018  -0.000177   0.000038  -0.000011   0.066881   0.022869
     72       0.000078   0.000935  -0.000708  -0.000032  -0.035243  -0.011939
     73       0.000266   0.002300  -0.001081  -0.000100  -0.088612  -0.031108
     74       0.000415   0.002910  -0.001773  -0.000135  -0.094067  -0.033650
     75      -0.000163   0.000752  -0.002526  -0.000276   0.624550   0.215297
     76      -0.000050   0.000110  -0.000248  -0.000025   0.082192   0.027785
     77       0.000161  -0.000836   0.002204   0.000249  -0.641955  -0.220521
     78       0.000045   0.000077  -0.000101  -0.000007   0.008018   0.003706
     79       0.001001   0.000125   0.001239  -0.000208   0.235511   0.076338
     80      -0.000343  -0.000005  -0.000481   0.000069  -0.071750  -0.023336
     81       0.000271   0.000182   0.000024   0.000013   0.000011  -0.000010
     82      -0.000054   0.000246   0.000010  -0.000009   0.000002  -0.000002
     83      -0.000146   0.000162   0.000009  -0.000012   0.000005  -0.000002
     84       0.043672  -0.005285  -0.000083   0.000013  -0.000005   0.000010
     85       0.079724  -0.007938  -0.000085   0.000038   0.000006   0.000006
     86       0.007766  -0.002892  -0.000063   0.000058   0.000013  -0.000005
     87       0.087411  -0.006188   0.000049   0.000206   0.000051  -0.000021
     88      -0.119978   0.005632  -0.000106  -0.000170  -0.000132  -0.000016
     89       0.104087  -0.005598   0.000055   0.000077   0.000056   0.000006
     90      -0.556896   0.054714   0.000659   0.000076   0.000056  -0.000107
     91      -0.760644   0.075886   0.000897  -0.000027   0.000056  -0.000114
     92       0.030592  -0.003264  -0.000036  -0.000001  -0.000003   0.000005
     93      -0.044672   0.009656   0.000173  -0.000178  -0.000025   0.000022
     94      -0.061798   0.013829   0.000237  -0.000276  -0.000066   0.000038
     95      -0.227137   0.045124   0.000799  -0.000788  -0.000150   0.000076


-----------
IR SPECTRUM
-----------

 Mode   freq       eps      Int      T**2         TX        TY        TZ
       cm**-1   L/(mol*cm) km/mol    a.u.
----------------------------------------------------------------------------
  6:     25.97   0.000407    2.05  0.004886  ( 0.002043  0.008675 -0.069329)
  7:     51.85   0.001042    5.27  0.006274  ( 0.059131  0.049941  0.016839)
  8:     61.46   0.001279    6.46  0.006494  ( 0.023897 -0.064554 -0.041904)
  9:     74.04   0.000467    2.36  0.001967  ( 0.005879  0.025436  0.035852)
 10:     84.01   0.000254    1.28  0.000944  (-0.017323  0.005524  0.024761)
 11:     89.04   0.000437    2.21  0.001533  ( 0.027697 -0.027016 -0.005975)
 12:    103.02   0.003284   16.59  0.009947  (-0.050712  0.053450 -0.067218)
 13:    124.86   0.001068    5.40  0.002670  ( 0.030222 -0.028165  0.031033)
 14:    138.89   0.000809    4.09  0.001817  (-0.026119  0.033331  0.004898)
 15:    158.72   0.000039    0.20  0.000077  ( 0.007104 -0.003647 -0.003674)
 16:    169.01   0.000183    0.92  0.000337  ( 0.003396 -0.008720 -0.015796)
 17:    177.77   0.000583    2.94  0.001023  ( 0.000821 -0.012802 -0.029297)
 18:    227.88   0.000232    1.17  0.000318  ( 0.006285  0.015542  0.006065)
 19:    247.12   0.001784    9.01  0.002252  (-0.025099  0.040280  0.000021)
 20:    273.56   0.001708    8.63  0.001948  ( 0.005103  0.042527  0.010659)
 21:    322.31   0.000869    4.39  0.000841  ( 0.020783  0.000482  0.020225)
 22:    366.38   0.004063   20.53  0.003461  (-0.000839  0.025773 -0.052876)
 23:    368.99   0.004151   20.98  0.003511  (-0.036529  0.014119 -0.044463)
 24:    387.06   0.001945    9.83  0.001568  ( 0.026911 -0.011218  0.026791)
 25:    429.78   0.000144    0.73  0.000105  (-0.007366 -0.000595 -0.007086)
 26:    449.70   0.003475   17.56  0.002411  ( 0.014330  0.042122  0.020780)
 27:    467.70   0.002026   10.24  0.001352  (-0.033546  0.006942  0.013344)
 28:    497.88   0.003562   18.00  0.002233  (-0.010236  0.036696  0.027956)
 29:    581.18   0.003842   19.41  0.002063  ( 0.038133 -0.012901  0.021027)
 30:    599.51   0.003291   16.63  0.001713  (-0.036059  0.001355 -0.020268)
 31:    637.38   0.004418   22.33  0.002163  (-0.019547 -0.019160  0.037601)
 32:    703.85   0.000788    3.98  0.000349  ( 0.002469  0.014126 -0.011986)
 33:    763.70   0.003108   15.71  0.001270  (-0.017767  0.024331 -0.019033)
 34:    791.15   0.003294   16.65  0.001299  ( 0.018874 -0.026492 -0.015539)
 35:    828.60   0.005319   26.88  0.002003  (-0.012156 -0.036918  0.022195)
 36:    948.68   0.005461   27.60  0.001796  (-0.000617  0.039976  0.014065)
 37:    965.28   0.001441    7.28  0.000466  ( 0.008357 -0.013685 -0.014444)
 38:   1003.56   0.006583   33.27  0.002047  (-0.002367  0.024257 -0.038119)
 39:   1010.16   0.009168   46.33  0.002832  ( 0.048017  0.009913  0.020698)
 40:   1043.17   0.000581    2.93  0.000174  (-0.008750  0.009801  0.001036)
 41:   1060.76   0.002016   10.19  0.000593  ( 0.017377 -0.013256  0.010743)
 42:   1064.84   0.006323   31.95  0.001853  ( 0.019538 -0.009107 -0.037261)
 43:   1089.43   0.002578   13.03  0.000738  (-0.026911 -0.003645  0.000907)
 44:   1112.72   0.029877  150.98  0.008379  ( 0.078346  0.036406 -0.030256)
 45:   1135.03   0.000610    3.08  0.000168  (-0.011630  0.005298  0.002109)
 46:   1147.39   0.017266   87.25  0.004696  (-0.064707  0.021248 -0.007578)
 47:   1181.71   0.011743   59.34  0.003101  (-0.023219 -0.028685  0.041701)
 48:   1184.13   0.000348    1.76  0.000092  ( 0.003186  0.007155 -0.005512)
 49:   1195.27   0.021132  106.79  0.005517  ( 0.054295  0.018238 -0.047295)
 50:   1224.54   0.008042   40.64  0.002049  (-0.033869 -0.020456 -0.021998)
 51:   1240.50   0.003178   16.06  0.000799  (-0.027463  0.003698 -0.005622)
 52:   1279.70   0.023442  118.47  0.005717  ( 0.060020 -0.018835 -0.041946)
 53:   1286.82   0.018944   95.73  0.004594  ( 0.061550 -0.021040  0.019050)
 54:   1308.87   0.004975   25.14  0.001186  ( 0.017014 -0.025594 -0.015541)
 55:   1347.16   0.006056   30.60  0.001403  ( 0.036875 -0.006243 -0.002018)
 56:   1361.98   0.000995    5.03  0.000228  (-0.001489  0.003096  0.014701)
 57:   1381.18   0.004617   23.33  0.001043  ( 0.025578  0.019502  0.002951)
 58:   1411.36   0.003220   16.27  0.000712  (-0.003369 -0.021450 -0.015507)
 59:   1436.80   0.001434    7.25  0.000311  ( 0.016555 -0.005551  0.002567)
 60:   1441.35   0.014593   73.75  0.003160  (-0.007386  0.028912 -0.047635)
 61:   1457.27   0.018970   95.87  0.004062  (-0.040949  0.035045 -0.034020)
 62:   1472.24   0.052227  263.93  0.011070  ( 0.099813  0.005095 -0.032890)
 63:   1483.91   0.003748   18.94  0.000788  (-0.011837 -0.025351 -0.002337)
 64:   1488.95   0.000757    3.82  0.000159  ( 0.004744  0.003875  0.011004)
 65:   1495.59   0.001001    5.06  0.000209  (-0.000830  0.000693 -0.014411)
 66:   1501.50   0.001161    5.87  0.000241  ( 0.002095  0.005372 -0.014423)
 67:   1503.68   0.002267   11.46  0.000470  ( 0.006334 -0.007250 -0.019436)
 68:   1506.65   0.005025   25.40  0.001041  (-0.023666  0.021464  0.004480)
 69:   1509.32   0.001105    5.59  0.000229  ( 0.014911 -0.000781 -0.002367)
 70:   1516.25   0.003045   15.39  0.000627  (-0.014834  0.017993  0.009102)
 71:   1517.73   0.005604   28.32  0.001152  (-0.026745 -0.019971  0.006170)
 72:   1524.96   0.001413    7.14  0.000289  (-0.002051  0.010821  0.012958)
 73:   1529.00   0.006059   30.62  0.001237  ( 0.016720  0.030837 -0.002484)
 74:   1531.73   0.005639   28.50  0.001149  ( 0.006728 -0.005024 -0.032838)
 75:   1554.86   0.017335   87.60  0.003479  ( 0.032394 -0.023031  0.043581)
 76:   1704.64   0.184286  931.30  0.033737  (-0.131163 -0.109650  0.067156)
 77:   1710.27   0.051794  261.75  0.009451  (-0.018284  0.005893  0.095297)
 78:   3010.74   0.013214   66.78  0.001370  (-0.032704  0.015079  0.008525)
 79:   3035.86   0.005896   29.80  0.000606  ( 0.020795  0.001694 -0.013069)
 80:   3040.90   0.018948   95.75  0.001944  (-0.011984  0.005857 -0.042030)
 81:   3052.28   0.012424   62.79  0.001270  (-0.000517  0.022946 -0.027267)
 82:   3066.30   0.001017    5.14  0.000103  ( 0.000781  0.004613  0.009032)
 83:   3066.92   0.010462   52.87  0.001064  (-0.012048  0.004859 -0.029929)
 84:   3085.07   0.005878   29.71  0.000595  ( 0.007751 -0.004853 -0.022605)
 85:   3094.62   0.009990   50.48  0.001007  ( 0.004183  0.024295 -0.019991)
 86:   3097.02   0.010662   53.88  0.001074  ( 0.001156  0.032738  0.001081)
 87:   3103.86   0.004300   21.73  0.000432  (-0.006290 -0.018984  0.005692)
 88:   3104.72   0.009222   46.60  0.000927  ( 0.017828 -0.018221 -0.016646)
 89:   3132.88   0.001983   10.02  0.000198  ( 0.002719 -0.001000  0.013752)
 90:   3136.77   0.008862   44.79  0.000882  ( 0.017140  0.024181  0.001778)
 91:   3145.39   0.008017   40.52  0.000795  ( 0.018180 -0.019292 -0.009629)
 92:   3166.70   0.001678    8.48  0.000165  (-0.009496  0.007512 -0.004332)
 93:   3171.73   0.002597   13.13  0.000256  ( 0.014286  0.006436 -0.003168)
 94:   3192.55   0.001171    5.92  0.000114  (-0.009293  0.002812  0.004493)
 95:   3194.61   0.000374    1.89  0.000037  (-0.001260 -0.005905 -0.000273)

* The epsilon (eps) is given for a Dirac delta lineshape.
** The dipole moment derivative (T) already includes vibrational overlap.

The first frequency considered to be a vibration is 6
The total number of vibrations considered is 90


--------------------------
THERMOCHEMISTRY AT 298.15K
--------------------------

Temperature         ... 298.15 K
Pressure            ... 1.00 atm
Total Mass          ... 202.25 AMU

Throughout the following assumptions are being made:
  (1) The electronic state is orbitally nondegenerate
  (2) There are no thermally accessible electronically excited states
  (3) Hindered rotations indicated by low frequency modes are not
      treated as such but are treated as vibrations and this may
      cause some error
  (4) All equations used are the standard statistical mechanics
      equations for an ideal gas
  (5) All vibrations are strictly harmonic

freq.      25.97  E(vib)   ...       0.56 
freq.      51.85  E(vib)   ...       0.52 
freq.      61.46  E(vib)   ...       0.51 
freq.      74.04  E(vib)   ...       0.49 
freq.      84.01  E(vib)   ...       0.48 
freq.      89.04  E(vib)   ...       0.47 
freq.     103.02  E(vib)   ...       0.46 
freq.     124.86  E(vib)   ...       0.43 
freq.     138.89  E(vib)   ...       0.42 
freq.     158.72  E(vib)   ...       0.39 
freq.     169.01  E(vib)   ...       0.38 
freq.     177.77  E(vib)   ...       0.37 
freq.     227.88  E(vib)   ...       0.33 
freq.     247.12  E(vib)   ...       0.31 
freq.     273.56  E(vib)   ...       0.29 
freq.     322.31  E(vib)   ...       0.25 
freq.     366.38  E(vib)   ...       0.22 
freq.     368.99  E(vib)   ...       0.21 
freq.     387.06  E(vib)   ...       0.20 
freq.     429.78  E(vib)   ...       0.18 
freq.     449.70  E(vib)   ...       0.17 
freq.     467.70  E(vib)   ...       0.16 
freq.     497.88  E(vib)   ...       0.14 
freq.     581.18  E(vib)   ...       0.11 
freq.     599.51  E(vib)   ...       0.10 
freq.     637.38  E(vib)   ...       0.09 
freq.     703.85  E(vib)   ...       0.07 
freq.     763.70  E(vib)   ...       0.06 
freq.     791.15  E(vib)   ...       0.05 
freq.     828.60  E(vib)   ...       0.04 
freq.     948.68  E(vib)   ...       0.03 
freq.     965.28  E(vib)   ...       0.03 
freq.    1003.56  E(vib)   ...       0.02 
freq.    1010.16  E(vib)   ...       0.02 
freq.    1043.17  E(vib)   ...       0.02 
freq.    1060.76  E(vib)   ...       0.02 
freq.    1064.84  E(vib)   ...       0.02 
freq.    1089.43  E(vib)   ...       0.02 
freq.    1112.72  E(vib)   ...       0.01 
freq.    1135.03  E(vib)   ...       0.01 
freq.    1147.39  E(vib)   ...       0.01 
freq.    1181.71  E(vib)   ...       0.01 
freq.    1184.13  E(vib)   ...       0.01 
freq.    1195.27  E(vib)   ...       0.01 
freq.    1224.54  E(vib)   ...       0.01 
freq.    1240.50  E(vib)   ...       0.01 
freq.    1279.70  E(vib)   ...       0.01 
freq.    1286.82  E(vib)   ...       0.01 
freq.    1308.87  E(vib)   ...       0.01 
freq.    1347.16  E(vib)   ...       0.01 
freq.    1361.98  E(vib)   ...       0.01 
freq.    1381.18  E(vib)   ...       0.01 
freq.    1411.36  E(vib)   ...       0.00 
freq.    1436.80  E(vib)   ...       0.00 
freq.    1441.35  E(vib)   ...       0.00 
freq.    1457.27  E(vib)   ...       0.00 
freq.    1472.24  E(vib)   ...       0.00 
freq.    1483.91  E(vib)   ...       0.00 
freq.    1488.95  E(vib)   ...       0.00 
freq.    1495.59  E(vib)   ...       0.00 
freq.    1501.50  E(vib)   ...       0.00 
freq.    1503.68  E(vib)   ...       0.00 
freq.    1506.65  E(vib)   ...       0.00 
freq.    1509.32  E(vib)   ...       0.00 
freq.    1516.25  E(vib)   ...       0.00 
freq.    1517.73  E(vib)   ...       0.00 
freq.    1524.96  E(vib)   ...       0.00 
freq.    1529.00  E(vib)   ...       0.00 
freq.    1531.73  E(vib)   ...       0.00 
freq.    1554.86  E(vib)   ...       0.00 
freq.    1704.64  E(vib)   ...       0.00 
freq.    1710.27  E(vib)   ...       0.00 
freq.    3010.74  E(vib)   ...       0.00 
freq.    3035.86  E(vib)   ...       0.00 
freq.    3040.90  E(vib)   ...       0.00 
freq.    3052.28  E(vib)   ...       0.00 
freq.    3066.30  E(vib)   ...       0.00 
freq.    3066.92  E(vib)   ...       0.00 
freq.    3085.07  E(vib)   ...       0.00 
freq.    3094.62  E(vib)   ...       0.00 
freq.    3097.02  E(vib)   ...       0.00 
freq.    3103.86  E(vib)   ...       0.00 
freq.    3104.72  E(vib)   ...       0.00 
freq.    3132.88  E(vib)   ...       0.00 
freq.    3136.77  E(vib)   ...       0.00 
freq.    3145.39  E(vib)   ...       0.00 
freq.    3166.70  E(vib)   ...       0.00 
freq.    3171.73  E(vib)   ...       0.00 
freq.    3192.55  E(vib)   ...       0.00 
freq.    3194.61  E(vib)   ...       0.00 

------------
INNER ENERGY
------------

The inner energy is: U= E(el) + E(ZPE) + E(vib) + E(rot) + E(trans)
    E(el)   - is the total energy from the electronic structure calculation
              = E(kin-el) + E(nuc-el) + E(el-el) + E(nuc-nuc)
    E(ZPE)  - the the zero temperature vibrational energy from the frequency calculation
    E(vib)  - the the finite temperature correction to E(ZPE) due to population
              of excited vibrational states
    E(rot)  - is the rotational thermal energy
    E(trans)- is the translational thermal energy

Summary of contributions to the inner energy U:
Electronic energy                ...   -688.62325415 Eh
Zero point energy                ...      0.27787320 Eh     174.37 kcal/mol
Thermal vibrational correction   ...      0.01403690 Eh       8.81 kcal/mol
Thermal rotational correction    ...      0.00141627 Eh       0.89 kcal/mol
Thermal translational correction ...      0.00141627 Eh       0.89 kcal/mol
-----------------------------------------------------------------------
Total thermal energy                   -688.32851151 Eh


Summary of corrections to the electronic energy:
(perhaps to be used in another calculation)
Total thermal correction                  0.01686944 Eh      10.59 kcal/mol
Non-thermal (ZPE) correction              0.27787320 Eh     174.37 kcal/mol
-----------------------------------------------------------------------
Total correction                          0.29474264 Eh     184.95 kcal/mol


--------
ENTHALPY
--------

The enthalpy is H = U + kB*T
                kB is Boltzmann's constant
Total free energy                 ...   -688.32851151 Eh 
Thermal Enthalpy correction       ...      0.00094421 Eh       0.59 kcal/mol
-----------------------------------------------------------------------
Total Enthalpy                    ...   -688.32756730 Eh


Note: Only C1 symmetry has been detected, increase convergence thresholds 
      if your molecule has a higher symmetry. Symmetry factor of 1.0 is   
      used for the rotational entropy correction. 
 

Note: Rotational entropy computed according to Herzberg 
Infrared and Raman Spectra, Chapter V,1, Van Nostrand Reinhold, 1945 
Point Group:  C1, Symmetry Number:   1  
Rotational constants in cm-1:     0.023747     0.020090     0.013571 

Vibrational entropy computed according to the QRRHO of S. Grimme
Chem.Eur.J. 2012 18 9955


-------
ENTROPY
-------

The entropy contributions are T*S = T*(S(el)+S(vib)+S(rot)+S(trans))
     S(el)   - electronic entropy
     S(vib)  - vibrational entropy
     S(rot)  - rotational entropy
     S(trans)- translational entropy
The entropies will be listed as multiplied by the temperature to get
units of energy

Electronic entropy                ...      0.00000000 Eh      0.00 kcal/mol
Vibrational entropy               ...      0.02555382 Eh     16.04 kcal/mol
Rotational entropy                ...      0.01515119 Eh      9.51 kcal/mol
Translational entropy             ...      0.01986880 Eh     12.47 kcal/mol
-----------------------------------------------------------------------
Final entropy term                ...      0.06057381 Eh     38.01 kcal/mol

In case the symmetry of your molecule has not been determined correctly
or in case you have a reason to use a different symmetry number we print 
out the resulting rotational entropy values for sn=1,12 :
 --------------------------------------------------------
|  sn= 1 | S(rot)=       0.01515119 Eh      9.51 kcal/mol|
|  sn= 2 | S(rot)=       0.01449673 Eh      9.10 kcal/mol|
|  sn= 3 | S(rot)=       0.01411390 Eh      8.86 kcal/mol|
|  sn= 4 | S(rot)=       0.01384227 Eh      8.69 kcal/mol|
|  sn= 5 | S(rot)=       0.01363159 Eh      8.55 kcal/mol|
|  sn= 6 | S(rot)=       0.01345944 Eh      8.45 kcal/mol|
|  sn= 7 | S(rot)=       0.01331390 Eh      8.35 kcal/mol|
|  sn= 8 | S(rot)=       0.01318782 Eh      8.28 kcal/mol|
|  sn= 9 | S(rot)=       0.01307661 Eh      8.21 kcal/mol|
|  sn=10 | S(rot)=       0.01297713 Eh      8.14 kcal/mol|
|  sn=11 | S(rot)=       0.01288714 Eh      8.09 kcal/mol|
|  sn=12 | S(rot)=       0.01280499 Eh      8.04 kcal/mol|
 --------------------------------------------------------


-------------------
GIBBS FREE ENERGY
-------------------

The Gibbs free energy is G = H - T*S

Total enthalpy                    ...   -688.32756730 Eh 
Total entropy correction          ...     -0.06057381 Eh    -38.01 kcal/mol
-----------------------------------------------------------------------
Final Gibbs free energy         ...   -688.38814111 Eh

For completeness - the Gibbs free energy minus the electronic energy
G-E(el)                           ...      0.23511304 Eh    147.54 kcal/mol


Timings for individual modules:

Sum of individual times         ...     1301.642 sec (=  21.694 min)
GTO integral calculation        ...       13.612 sec (=   0.227 min)   1.0 %
SCF iterations                  ...      536.272 sec (=   8.938 min)  41.2 %
SCF Gradient evaluation         ...      158.542 sec (=   2.642 min)  12.2 %
Geometry relaxation             ...        1.298 sec (=   0.022 min)   0.1 %
Analytical frequency calculation...      591.918 sec (=   9.865 min)  45.5 %
                             ****ORCA TERMINATED NORMALLY****
TOTAL RUN TIME: 0 days 0 hours 21 minutes 45 seconds 563 msec
