
                                 *****************
                                 * O   R   C   A *
                                 *****************

                                            #,                                       
                                            ###                                      
                                            ####                                     
                                            #####                                    
                                            ######                                   
                                           ########,                                 
                                     ,,################,,,,,                         
                               ,,#################################,,                 
                          ,,##########################################,,             
                       ,#########################################, ''#####,          
                    ,#############################################,,   '####,        
                  ,##################################################,,,,####,       
                ,###########''''           ''''###############################       
              ,#####''   ,,,,##########,,,,          '''####'''          '####       
            ,##' ,,,,###########################,,,                        '##       
           ' ,,###''''                  '''############,,,                           
         ,,##''                                '''############,,,,        ,,,,,,###''
      ,#''                                            '''#######################'''  
     '                                                          ''''####''''         
             ,#######,   #######,   ,#######,      ##                                
            ,#'     '#,  ##    ##  ,#'     '#,    #''#        ######   ,####,        
            ##       ##  ##   ,#'  ##            #'  '#       #        #'  '#        
            ##       ##  #######   ##           ,######,      #####,   #    #        
            '#,     ,#'  ##    ##  '#,     ,#' ,#      #,         ##   #,  ,#        
             '#######'   ##     ##  '#######'  #'      '#     #####' # '####'        



                  #######################################################
                  #                        -***-                        #
                  #          Department of theory and spectroscopy      #
                  #    Directorship and core code : Frank Neese         #
                  #        Max Planck Institute fuer Kohlenforschung    #
                  #                Kaiser Wilhelm Platz 1               #
                  #                 D-45470 Muelheim/Ruhr               #
                  #                      Germany                        #
                  #                                                     #
                  #                  All rights reserved                #
                  #                        -***-                        #
                  #######################################################


                         Program Version 5.0.4 -  RELEASE  -


 With contributions from (in alphabetic order):
   Daniel Aravena         : Magnetic Suceptibility
   Michael Atanasov       : Ab Initio Ligand Field Theory (pilot matlab implementation)
   Alexander A. Auer      : GIAO ZORA, VPT2 properties, NMR spectrum
   Ute Becker             : Parallelization
   Giovanni Bistoni       : ED, misc. LED, open-shell LED, HFLD
   Martin Brehm           : Molecular dynamics
   Dmytro Bykov           : SCF Hessian
   Vijay G. Chilkuri      : MRCI spin determinant printing, contributions to CSF-ICE
   Dipayan Datta          : RHF DLPNO-CCSD density
   Achintya Kumar Dutta   : EOM-CC, STEOM-CC
   Dmitry Ganyushin       : Spin-Orbit,Spin-Spin,Magnetic field MRCI
   Miquel Garcia          : C-PCM and meta-GGA Hessian, CC/C-PCM, Gaussian charge scheme
   Yang Guo               : DLPNO-NEVPT2, F12-NEVPT2, CIM, IAO-localization
   Andreas Hansen         : Spin unrestricted coupled pair/coupled cluster methods
   Benjamin Helmich-Paris : MC-RPA, TRAH-SCF, COSX integrals
   Lee Huntington         : MR-EOM, pCC
   Robert Izsak           : Overlap fitted RIJCOSX, COSX-SCS-MP3, EOM
   Marcus Kettner         : VPT2
   Christian Kollmar      : KDIIS, OOCD, Brueckner-CCSD(T), CCSD density, CASPT2, CASPT2-K
   Simone Kossmann        : Meta GGA functionals, TD-DFT gradient, OOMP2, MP2 Hessian
   Martin Krupicka        : Initial AUTO-CI
   Lucas Lang             : DCDCAS
   Marvin Lechner         : AUTO-CI (C++ implementation), FIC-MRCC
   Dagmar Lenk            : GEPOL surface, SMD
   Dimitrios Liakos       : Extrapolation schemes; Compound Job, initial MDCI parallelization
   Dimitrios Manganas     : Further ROCIS development; embedding schemes
   Dimitrios Pantazis     : SARC Basis sets
   Anastasios Papadopoulos: AUTO-CI, single reference methods and gradients
   Taras Petrenko         : DFT Hessian,TD-DFT gradient, ASA, ECA, R-Raman, ABS, FL, XAS/XES, NRVS
   Peter Pinski           : DLPNO-MP2, DLPNO-MP2 Gradient
   Christoph Reimann      : Effective Core Potentials
   Marius Retegan         : Local ZFS, SOC
   Christoph Riplinger    : Optimizer, TS searches, QM/MM, DLPNO-CCSD(T), (RO)-DLPNO pert. Triples
   Tobias Risthaus        : Range-separated hybrids, TD-DFT gradient, RPA, STAB
   Michael Roemelt        : Original ROCIS implementation
   Masaaki Saitow         : Open-shell DLPNO-CCSD energy and density
   Barbara Sandhoefer     : DKH picture change effects
   Avijit Sen             : IP-ROCIS
   Kantharuban Sivalingam : CASSCF convergence, NEVPT2, FIC-MRCI
   Bernardo de Souza      : ESD, SOC TD-DFT
   Georgi Stoychev        : AutoAux, RI-MP2 NMR, DLPNO-MP2 response
   Willem Van den Heuvel  : Paramagnetic NMR
   Boris Wezisla          : Elementary symmetry handling
   Frank Wennmohs         : Technical directorship


 We gratefully acknowledge several colleagues who have allowed us to
 interface, adapt or use parts of their codes:
   Stefan Grimme, W. Hujo, H. Kruse, P. Pracht,  : VdW corrections, initial TS optimization,
                  C. Bannwarth, S. Ehlert          DFT functionals, gCP, sTDA/sTD-DF
   Ed Valeev, F. Pavosevic, A. Kumar             : LibInt (2-el integral package), F12 methods
   Garnet Chan, S. Sharma, J. Yang, R. Olivares  : DMRG
   Ulf Ekstrom                                   : XCFun DFT Library
   Mihaly Kallay                                 : mrcc  (arbitrary order and MRCC methods)
   Jiri Pittner, Ondrej Demel                    : Mk-CCSD
   Frank Weinhold                                : gennbo (NPA and NBO analysis)
   Christopher J. Cramer and Donald G. Truhlar   : smd solvation model
   Lars Goerigk                                  : TD-DFT with DH, B97 family of functionals
   V. Asgeirsson, H. Jonsson                     : NEB implementation
   FAccTs GmbH                                   : IRC, NEB, NEB-TS, DLPNO-Multilevel, CI-OPT
                                                   MM, QMMM, 2- and 3-layer-ONIOM, Crystal-QMMM,
                                                   LR-CPCM, SF, NACMEs, symmetry and pop. for TD-DFT,
                                                   nearIR, NL-DFT gradient (VV10), updates on ESD,
                                                   ML-optimized integration grids
   S Lehtola, MJT Oliveira, MAL Marques          : LibXC Library
   Liviu Ungur et al                             : ANISO software


 Your calculation uses the libint2 library for the computation of 2-el integrals
 For citations please refer to: http://libint.valeyev.net

 Your ORCA version has been built with support for libXC version: 5.1.0
 For citations please refer to: https://tddft.org/programs/libxc/

 This ORCA versions uses:
   CBLAS   interface :  Fast vector & matrix operations
   LAPACKE interface :  Fast linear algebra routines
   SCALAPACK package :  Parallel linear algebra routines
   Shared memory     :  Shared parallel matrices
   BLAS/LAPACK       :  OpenBLAS 0.3.15  USE64BITINT DYNAMIC_ARCH NO_AFFINITY SkylakeX SINGLE_THREADED
        Core in use  :  SkylakeX
   Copyright (c) 2011-2014, The OpenBLAS Project




***************************************
The coordinates will be read from file: /users/fjb15167/WWenergy/structures/NmO.xyz
***************************************


Your calculation utilizes the atom-pairwise dispersion correction
based on tight binding partial charges (D4)
Cite in your paper:
E.Caldeweyher, C.Bannwarth, S.Grimme, J.Chem.Phys., (2017), 147, 034112.
E.Caldeweyher, S.Ehlert, A.Hansen, H.Neugebauer, S.Grimme, J.Chem.Phys., (2018), in progress.
   

================================================================================

----- Orbital basis set information -----
Your calculation utilizes the basis: 6-31G(d)
   H-He, Li-Ne : W. J. Hehre, R. Ditchfield and J.A. Pople, J. Chem. Phys. 56, 2257 (1972).
                 Note: He and Ne are unpublished basis sets taken from the Gaussian program.
                 Note: Li and B from J. D. Dill and J. A. Pople, J. Chem. Phys. 62, 2921 (1975).
   Na - Ar     : M. M. Francl, W. J. Pietro, W. J. Hehre, J. S. Binkley, M. S. Gordon, 
                 D. J. DeFrees and J. A. Pople, J. Chem. Phys. 77, 3654 (1982).
   K - Zn      : V. A. Rassolov, J. A. Pople, M. A. Ratner, and T. L. Windus, J. Chem. Phys. 109, 1223 (1998).

----- AuxJ basis set information -----
Your calculation utilizes the AutoAux generation procedure.
  G. L. Stoychev, A. A. Auer, F. Neese, J. Chem. Theory Comput. 13, 554 (2017)

----- AuxC basis set information -----
Your calculation utilizes the AutoAux generation procedure.
  G. L. Stoychev, A. A. Auer, F. Neese, J. Chem. Theory Comput. 13, 554 (2017)

----- AuxJK basis set information -----
Your calculation utilizes the AutoAux generation procedure.
  G. L. Stoychev, A. A. Auer, F. Neese, J. Chem. Theory Comput. 13, 554 (2017)

================================================================================
                                        WARNINGS
                       Please study these warnings very carefully!
================================================================================


WARNING: Geometry Optimization
  ===> : Switching off AutoStart
         For restart on a previous wavefunction, please use MOREAD

INFO   : the flag for use of the SHARK integral package has been found!

================================================================================
                                       INPUT FILE
================================================================================
NAME = NmO_octanol.inp
|  1> ! OPT FREQ B3LYP 6-31G(d) D4 AUTOAUX
|  2> ! CPCM
|  3> 
|  4> %cpcm
|  5> epsilon 9.8629 
|  6> refrac  1.4295 
|  7> end
|  8> 
|  9> %PAL NPROCS 4 END
| 10> 
| 11> %maxcore 3375
| 12> 
| 13> *xyzfile 0 1 /users/fjb15167/WWenergy/structures/NmO.xyz
| 14> 
| 15>                          ****END OF INPUT****
================================================================================

                       *****************************
                       * Geometry Optimization Run *
                       *****************************

Geometry optimization settings:
Update method            Update   .... BFGS
Choice of coordinates    CoordSys .... Z-matrix Internals
Initial Hessian          InHess   .... Almoef's Model

Convergence Tolerances:
Energy Change            TolE     ....  5.0000e-06 Eh
Max. Gradient            TolMAXG  ....  3.0000e-04 Eh/bohr
RMS Gradient             TolRMSG  ....  1.0000e-04 Eh/bohr
Max. Displacement        TolMAXD  ....  4.0000e-03 bohr
RMS Displacement         TolRMSD  ....  2.0000e-03 bohr
Strict Convergence                ....  False
------------------------------------------------------------------------------
                        ORCA OPTIMIZATION COORDINATE SETUP
------------------------------------------------------------------------------

The optimization will be done in new redundant internal coordinates
Making redundant internal coordinates   ...  (new redundants) done
Evaluating the initial hessian          ...  (Almloef) done
Evaluating the coordinates              ...  done
Calculating the B-matrix                .... done
Calculating the G-matrix                .... done
Diagonalizing the G-matrix              .... done
Small eigenvalue found = 4.527e-03
Small eigenvalue found = 5.671e-03
Small eigenvalue found = 1.360e-02
Small eigenvalue found = 1.438e-02
Small eigenvalue found = 2.256e-02
The first mode is                       ....   55
The number of degrees of freedom        ....   90

    -----------------------------------------------------------------
                    Redundant Internal Coordinates


    -----------------------------------------------------------------
         Definition                    Initial Value    Approx d2E/dq
    -----------------------------------------------------------------
      1. B(H   1,C   0)                  1.0919         0.357607   
      2. B(H   2,C   0)                  1.0941         0.354670   
      3. B(H   3,C   0)                  1.0899         0.360227   
      4. B(C   4,C   0)                  1.5155         0.394042   
      5. B(O   5,C   4)                  1.2383         0.977099   
      6. B(N   6,C   4)                  1.3752         0.590973   
      7. B(C   7,N   6)                  1.4604         0.432111   
      8. B(H   8,C   7)                  1.0951         0.353394   
      9. B(H   9,C   7)                  1.0895         0.360718   
     10. B(C  10,N   6)                  1.4610         0.431166   
     11. B(H  11,C  10)                  1.0924         0.356992   
     12. B(H  12,C  10)                  1.0942         0.354546   
     13. B(C  13,C  10)                  1.5319         0.370940   
     14. B(H  14,C  13)                  1.0976         0.350241   
     15. B(H  15,C  13)                  1.0948         0.353815   
     16. B(C  16,C   7)                  1.5249         0.380598   
     17. B(N  17,C  16)                  1.3645         0.614539   
     18. B(O  18,C  16)                  1.2410         0.967442   
     19. B(C  19,N  17)                  1.4547         0.441241   
     20. B(H  20,C  19)                  1.0972         0.350736   
     21. B(H  21,C  19)                  1.0955         0.352939   
     22. B(H  22,C  19)                  1.0872         0.363781   
     23. B(C  23,N  17)                  1.4548         0.441050   
     24. B(H  24,C  23)                  1.0976         0.350243   
     25. B(H  25,C  23)                  1.0887         0.361843   
     26. B(H  26,C  23)                  1.0942         0.354530   
     27. B(O  27,C  13)                  1.4194         0.502355   
     28. B(C  28,O  27)                  1.4279         0.486932   
     29. B(H  29,C  28)                  1.0972         0.350636   
     30. B(H  30,C  28)                  1.0902         0.359777   
     31. B(H  31,C  28)                  1.0948         0.353820   
     32. A(H   1,C   0,C   4)          112.6659         0.326803   
     33. A(H   2,C   0,H   3)          108.8706         0.290162   
     34. A(H   3,C   0,C   4)          107.1278         0.327196   
     35. A(H   1,C   0,H   3)          109.3830         0.290538   
     36. A(H   1,C   0,H   2)          108.0603         0.289830   
     37. A(H   2,C   0,C   4)          110.6738         0.326359   
     38. A(C   0,C   4,O   5)          121.0515         0.431351   
     39. A(O   5,C   4,N   6)          121.8637         0.461155   
     40. A(C   0,C   4,N   6)          117.0792         0.394525   
     41. A(C   4,N   6,C  10)          124.6054         0.398249   
     42. A(C   7,N   6,C  10)          116.2123         0.377093   
     43. A(C   4,N   6,C   7)          118.9133         0.398402   
     44. A(H   8,C   7,H   9)          109.0590         0.290060   
     45. A(N   6,C   7,H   9)          107.9430         0.330293   
     46. A(H   9,C   7,C  16)          113.7043         0.325405   
     47. A(H   8,C   7,C  16)          105.4407         0.324310   
     48. A(N   6,C   7,C  16)          111.0404         0.371396   
     49. A(N   6,C   7,H   8)          109.5872         0.329176   
     50. A(H  12,C  10,C  13)          108.9641         0.323117   
     51. A(H  11,C  10,C  13)          109.3279         0.323482   
     52. A(N   6,C  10,C  13)          112.8715         0.369619   
     53. A(H  11,C  10,H  12)          107.3026         0.289736   
     54. A(N   6,C  10,H  12)          107.3749         0.329234   
     55. A(N   6,C  10,H  11)          110.8154         0.329608   
     56. A(H  14,C  13,H  15)          107.9047         0.288777   
     57. A(H  15,C  13,O  27)          106.9493         0.337572   
     58. A(C  10,C  13,H  15)          110.2955         0.323008   
     59. A(C  10,C  13,H  14)          110.3299         0.322471   
     60. A(H  14,C  13,O  27)          111.1781         0.337001   
     61. A(C  10,C  13,O  27)          110.1050         0.379494   
     62. A(N  17,C  16,O  18)          122.8291         0.463621   
     63. A(C   7,C  16,O  18)          119.2037         0.427909   
     64. A(C   7,C  16,N  17)          117.9473         0.394828   
     65. A(C  16,N  17,C  19)          125.2933         0.402633   
     66. A(C  19,N  17,C  23)          115.4340         0.379948   
     67. A(C  16,N  17,C  23)          118.3287         0.402603   
     68. A(H  21,C  19,H  22)          108.8564         0.290387   
     69. A(H  20,C  19,H  22)          108.4965         0.290102   
     70. A(N  17,C  19,H  22)          111.9843         0.331902   
     71. A(H  20,C  19,H  21)          108.1840         0.288729   
     72. A(N  17,C  19,H  21)          109.0593         0.330245   
     73. A(N  17,C  19,H  20)          110.1764         0.329903   
     74. A(H  25,C  23,H  26)          110.1438         0.290349   
     75. A(H  24,C  23,H  26)          108.5972         0.288869   
     76. A(N  17,C  23,H  26)          109.3469         0.330467   
     77. A(H  24,C  23,H  25)          109.3535         0.289795   
     78. A(N  17,C  23,H  25)          108.6003         0.331585   
     79. A(N  17,C  23,H  24)          110.7947         0.329803   
     80. A(C  13,O  27,C  28)          111.8633         0.395404   
     81. A(H  29,C  28,H  31)          108.3522         0.288829   
     82. A(O  27,C  28,H  31)          112.2181         0.335824   
     83. A(H  29,C  28,H  30)          109.4225         0.289586   
     84. A(O  27,C  28,H  30)          106.3513         0.336759   
     85. A(H  30,C  28,H  31)          109.8353         0.289996   
     86. A(O  27,C  28,H  29)          110.6312         0.335320   
     87. D(O   5,C   4,C   0,H   2)    110.3972         0.011539   
     88. D(O   5,C   4,C   0,H   1)   -128.4935         0.011539   
     89. D(N   6,C   4,C   0,H   1)     52.3518         0.011539   
     90. D(N   6,C   4,C   0,H   2)    -68.7575         0.011539   
     91. D(O   5,C   4,C   0,H   3)     -8.1592         0.011539   
     92. D(N   6,C   4,C   0,H   3)    172.6862         0.011539   
     93. D(C   7,N   6,C   4,C   0)    172.2048         0.028082   
     94. D(C  10,N   6,C   4,C   0)     -1.6011         0.028082   
     95. D(C   7,N   6,C   4,O   5)     -6.9425         0.028082   
     96. D(C  10,N   6,C   4,O   5)    179.2516         0.028082   
     97. D(C  16,C   7,N   6,C   4)    128.1244         0.015919   
     98. D(H   9,C   7,N   6,C   4)      2.8622         0.015919   
     99. D(H   8,C   7,N   6,C  10)     58.5256         0.015919   
    100. D(H   9,C   7,N   6,C  10)    177.1813         0.015919   
    101. D(H   8,C   7,N   6,C   4)   -115.7934         0.015919   
    102. D(C  16,C   7,N   6,C  10)    -57.5565         0.015919   
    103. D(C  13,C  10,N   6,C   7)     97.2024         0.015850   
    104. D(C  13,C  10,N   6,C   4)    -88.8406         0.015850   
    105. D(H  12,C  10,N   6,C   7)    -22.9008         0.015850   
    106. D(H  12,C  10,N   6,C   4)    151.0562         0.015850   
    107. D(H  11,C  10,N   6,C   7)   -139.7957         0.015850   
    108. D(H  11,C  10,N   6,C   4)     34.1613         0.015850   
    109. D(O  27,C  13,C  10,H  11)     64.3889         0.010996   
    110. D(O  27,C  13,C  10,N   6)   -171.7853         0.010996   
    111. D(H  15,C  13,C  10,H  12)   -170.3971         0.010996   
    112. D(H  15,C  13,C  10,H  11)    -53.4096         0.010996   
    113. D(H  15,C  13,C  10,N   6)     70.4161         0.010996   
    114. D(H  14,C  13,C  10,H  12)     70.4869         0.010996   
    115. D(H  14,C  13,C  10,H  11)   -172.5256         0.010996   
    116. D(O  27,C  13,C  10,H  12)    -52.5986         0.010996   
    117. D(H  14,C  13,C  10,N   6)    -48.6999         0.010996   
    118. D(O  18,C  16,C   7,H   9)   -137.6676         0.010807   
    119. D(O  18,C  16,C   7,H   8)    -18.2444         0.010807   
    120. D(O  18,C  16,C   7,N   6)    100.3685         0.010807   
    121. D(N  17,C  16,C   7,H   9)     43.9080         0.010807   
    122. D(N  17,C  16,C   7,H   8)    163.3312         0.010807   
    123. D(N  17,C  16,C   7,N   6)    -78.0559         0.010807   
    124. D(C  23,N  17,C  16,O  18)     -2.5804         0.030539   
    125. D(C  23,N  17,C  16,C   7)    175.7829         0.030539   
    126. D(C  19,N  17,C  16,O  18)   -170.9224         0.030539   
    127. D(C  19,N  17,C  16,C   7)      7.4409         0.030539   
    128. D(H  22,C  19,N  17,C  16)    -14.3880         0.016602   
    129. D(H  21,C  19,N  17,C  23)     56.4250         0.016602   
    130. D(H  21,C  19,N  17,C  16)   -134.9341         0.016602   
    131. D(H  20,C  19,N  17,C  23)    -62.1759         0.016602   
    132. D(H  22,C  19,N  17,C  23)    176.9711         0.016602   
    133. D(H  20,C  19,N  17,C  16)    106.4650         0.016602   
    134. D(H  26,C  23,N  17,C  19)    -53.4121         0.016588   
    135. D(H  26,C  23,N  17,C  16)    137.1109         0.016588   
    136. D(H  25,C  23,N  17,C  19)   -173.6285         0.016588   
    137. D(H  25,C  23,N  17,C  16)     16.8944         0.016588   
    138. D(H  24,C  23,N  17,C  19)     66.2504         0.016588   
    139. D(H  24,C  23,N  17,C  16)   -103.2266         0.016588   
    140. D(C  28,O  27,C  13,H  15)   -149.9241         0.019957   
    141. D(C  28,O  27,C  13,H  14)    -32.3595         0.019957   
    142. D(C  28,O  27,C  13,C  10)     90.2279         0.019957   
    143. D(H  31,C  28,O  27,C  13)    -51.8501         0.018717   
    144. D(H  30,C  28,O  27,C  13)   -171.9707         0.018717   
    145. D(H  29,C  28,O  27,C  13)     69.2945         0.018717   
    -----------------------------------------------------------------

Number of atoms                         .... 32
Number of degrees of freedom            .... 145

         *************************************************************
         *                GEOMETRY OPTIMIZATION CYCLE   1            *
         *************************************************************
---------------------------------
CARTESIAN COORDINATES (ANGSTROEM)
---------------------------------
  C      2.964000   -1.492000   -0.598000
  H      2.291000   -1.923000   -1.342000
  H      3.165000   -2.255000    0.160000
  H      3.903000   -1.215000   -1.077000
  C      2.402000   -0.238000    0.041000
  O      3.066000    0.806000    0.091000
  N      1.137000   -0.320000    0.574000
  C      0.623000    0.806000    1.349000
  H      0.460000    0.494000    2.386000
  H      1.372000    1.597000    1.329000
  C      0.296000   -1.514000    0.535000
  H      0.903000   -2.419000    0.611000
  H     -0.355000   -1.484000    1.414000
  C     -0.572000   -1.590000   -0.725000
  H     -1.089000   -0.636000   -0.890000
  H      0.050000   -1.792000   -1.603000
  C     -0.745000    1.244000    0.837000
  N     -0.791000    2.000000   -0.298000
  O     -1.764000    0.879000    1.444000
  C      0.346000    2.301000   -1.154000
  H      0.282000    1.724000   -2.085000
  H      0.329000    3.366000   -1.410000
  H      1.292000    2.071000   -0.670000
  C     -2.094000    2.344000   -0.846000
  H     -2.325000    1.723000   -1.721000
  H     -2.848000    2.180000   -0.078000
  H     -2.092000    3.394000   -1.154000
  O     -1.496000   -2.662000   -0.617000
  C     -2.726000   -2.246000   -0.023000
  H     -3.278000   -1.583000   -0.701000
  H     -3.306000   -3.153000    0.149000
  H     -2.571000   -1.719000    0.924000

----------------------------
CARTESIAN COORDINATES (A.U.)
----------------------------
  NO LB      ZA    FRAG     MASS         X           Y           Z
   0 C     6.0000    0    12.011    5.601148   -2.819471   -1.130056
   1 H     1.0000    0     1.008    4.329363   -3.633943   -2.536012
   2 H     1.0000    0     1.008    5.980983   -4.261332    0.302356
   3 H     1.0000    0     1.008    7.375601   -2.296017   -2.035235
   4 C     6.0000    0    12.011    4.539122   -0.449755    0.077479
   5 O     8.0000    0    15.999    5.793900    1.523119    0.171965
   6 N     7.0000    0    14.007    2.148619   -0.604712    1.084703
   7 C     6.0000    0    12.011    1.177299    1.523119    2.549241
   8 H     1.0000    0     1.008    0.869274    0.933525    4.508887
   9 H     1.0000    0     1.008    2.592704    3.017893    2.511446
  10 C     6.0000    0    12.011    0.559359   -2.861045    1.011003
  11 H     1.0000    0     1.008    1.706423   -4.571248    1.154623
  12 H     1.0000    0     1.008   -0.670853   -2.804354    2.672073
  13 C     6.0000    0    12.011   -1.080923   -3.004665   -1.370051
  14 H     1.0000    0     1.008   -2.057912   -1.201866   -1.681856
  15 H     1.0000    0     1.008    0.094486   -3.386389   -3.029231
  16 C     6.0000    0    12.011   -1.407846    2.350819    1.581701
  17 N     7.0000    0    14.007   -1.494773    3.779452   -0.563138
  18 O     8.0000    0    15.999   -3.333477    1.661069    2.728765
  19 C     6.0000    0    12.011    0.653845    4.348260   -2.180744
  20 H     1.0000    0     1.008    0.532903    3.257888   -3.940079
  21 H     1.0000    0     1.008    0.621720    6.360818   -2.664514
  22 H     1.0000    0     1.008    2.441526    3.913623   -1.266117
  23 C     6.0000    0    12.011   -3.957087    4.429518   -1.598708
  24 H     1.0000    0     1.008   -4.393613    3.255998   -3.252219
  25 H     1.0000    0     1.008   -5.381940    4.119603   -0.147399
  26 H     1.0000    0     1.008   -3.953307    6.413730   -2.180744
  27 O     8.0000    0    15.999   -2.827030   -5.030451   -1.165961
  28 C     6.0000    0    12.011   -5.151393   -4.244325   -0.043464
  29 H     1.0000    0     1.008   -6.194522   -2.991436   -1.324698
  30 H     1.0000    0     1.008   -6.247435   -5.958307    0.281569
  31 H     1.0000    0     1.008   -4.858486   -3.248439    1.746107

--------------------------------
INTERNAL COORDINATES (ANGSTROEM)
--------------------------------
 C      0   0   0     0.000000000000     0.00000000     0.00000000
 H      1   0   0     1.091891020203     0.00000000     0.00000000
 H      1   2   0     1.094136188964   108.06033933     0.00000000
 H      1   2   3     1.089904124224   109.38302775   118.38263129
 C      1   2   3     1.515480451870   112.66585070   237.41171557
 O      5   1   2     1.238277836352   121.05147825   231.50647135
 N      5   1   2     1.375150173617   117.07922951    52.35182735
 C      7   5   1     1.460375636609   118.91329749   172.20475346
 H      8   7   5     1.095117345311   109.58718881   244.20655400
 H      8   7   5     1.089532927451   107.94301113     2.86216165
 C      7   5   1     1.460971594522   124.60542203   358.39888437
 H     11   7   5     1.092359830825   110.81541741    34.16130768
 H     11   7   5     1.094231236988   107.37488235   151.05619885
 C     11   7   5     1.531926891206   112.87146320   271.15944250
 H     14  11   7     1.097556376684   110.32989358   311.30014833
 H     14  11   7     1.094793131144   110.29545739    70.41614562
 C      8   7   5     1.524930162335   111.04037930   128.12437857
 N     17   8   7     1.364506137766   117.94732610   281.94406808
 O     17   8   7     1.240981466421   119.20372754   100.36850594
 C     18  17   8     1.454684158159   125.29326925     7.44088539
 H     20  18  17     1.097171818814   110.17635446   106.46498853
 H     20  18  17     1.095467936546   109.05931868   225.06591695
 H     20  18  17     1.087231346126   111.98430846   345.61195062
 C     18  17   8     1.454802048390   118.32871956   175.78293193
 H     24  18  17     1.097555010011   110.79465449   256.77339205
 H     24  18  17     1.088685445847   108.60027815    16.89442970
 H     24  18  17     1.094243117410   109.34690455   137.11088787
 O     14  11   7     1.419374510128   110.10499261   188.21466087
 C     28  14  11     1.427862738501   111.86332270    90.22792261
 H     29  28  14     1.097249743677   110.63117756    69.29452829
 H     29  28  14     1.090244467998   106.35126391   188.02934043
 H     29  28  14     1.094789020771   112.21805650   308.14985096

---------------------------
INTERNAL COORDINATES (A.U.)
---------------------------
 C      0   0   0     0.000000000000     0.00000000     0.00000000
 H      1   0   0     2.063374996272     0.00000000     0.00000000
 H      1   2   0     2.067617750354   108.06033933     0.00000000
 H      1   2   3     2.059620307014   109.38302775   118.38263129
 C      1   2   3     2.863843015345   112.66585070   237.41171557
 O      5   1   2     2.340005988409   121.05147825   231.50647135
 N      5   1   2     2.598657221151   117.07922951    52.35182735
 C      7   5   1     2.759710005841   118.91329749   172.20475346
 H      8   7   5     2.069471867144   109.58718881   244.20655400
 H      8   7   5     2.058918846772   107.94301113     2.86216165
 C      7   5   1     2.760836203085   124.60542203   358.39888437
 H     11   7   5     2.064260919956   110.81541741    34.16130768
 H     11   7   5     2.067797365089   107.37488235   151.05619885
 C     11   7   5     2.894922281569   112.87146320   271.15944250
 H     14  11   7     2.074080968472   110.32989358   311.30014833
 H     14  11   7     2.068859191160   110.29545739    70.41614562
 C      8   7   5     2.881700380170   111.04037930   128.12437857
 N     17   8   7     2.578542908432   117.94732610   281.94406808
 O     17   8   7     2.345115108807   119.20372754   100.36850594
 C     18  17   8     2.748954670275   125.29326925     7.44088539
 H     20  18  17     2.073354259415   110.17635446   106.46498853
 H     20  18  17     2.070134388563   109.05931868   225.06591695
 H     20  18  17     2.054569488394   111.98430846   345.61195062
 C     18  17   8     2.749177450525   118.32871956   175.78293193
 H     24  18  17     2.074078385834   110.79465449   256.77339205
 H     24  18  17     2.057317338638   108.60027815    16.89442970
 H     24  18  17     2.067819815834   109.34690455   137.11088787
 O     14  11   7     2.682229105610   110.10499261   188.21466087
 C     28  14  11     2.698269532598   111.86332270    90.22792261
 H     29  28  14     2.073501516065   110.63117756    69.29452829
 H     29  28  14     2.060263463539   106.35126391   188.02934043
 H     29  28  14     2.068851423680   112.21805650   308.14985096

---------------------
BASIS SET INFORMATION
---------------------
There are 4 groups of distinct atoms

 Group   1 Type C   : 10s4p1d contracted to 3s2p1d pattern {631/31/1}
 Group   2 Type H   : 4s contracted to 2s pattern {31}
 Group   3 Type O   : 10s4p1d contracted to 3s2p1d pattern {631/31/1}
 Group   4 Type N   : 10s4p1d contracted to 3s2p1d pattern {631/31/1}

Atom   0C    basis set group =>   1
Atom   1H    basis set group =>   2
Atom   2H    basis set group =>   2
Atom   3H    basis set group =>   2
Atom   4C    basis set group =>   1
Atom   5O    basis set group =>   3
Atom   6N    basis set group =>   4
Atom   7C    basis set group =>   1
Atom   8H    basis set group =>   2
Atom   9H    basis set group =>   2
Atom  10C    basis set group =>   1
Atom  11H    basis set group =>   2
Atom  12H    basis set group =>   2
Atom  13C    basis set group =>   1
Atom  14H    basis set group =>   2
Atom  15H    basis set group =>   2
Atom  16C    basis set group =>   1
Atom  17N    basis set group =>   4
Atom  18O    basis set group =>   3
Atom  19C    basis set group =>   1
Atom  20H    basis set group =>   2
Atom  21H    basis set group =>   2
Atom  22H    basis set group =>   2
Atom  23C    basis set group =>   1
Atom  24H    basis set group =>   2
Atom  25H    basis set group =>   2
Atom  26H    basis set group =>   2
Atom  27O    basis set group =>   3
Atom  28C    basis set group =>   1
Atom  29H    basis set group =>   2
Atom  30H    basis set group =>   2
Atom  31H    basis set group =>   2
---------------------------------
AUXILIARY/J BASIS SET INFORMATION
---------------------------------
There are 4 groups of distinct atoms

 Group   1 Type C   : 13s11p10d2f contracted to 13s11p10d2f pattern {1111111111111/11111111111/1111111111/11}
 Group   2 Type H   : 9s2p contracted to 9s2p pattern {111111111/11}
 Group   3 Type O   : 14s11p10d2f contracted to 14s11p10d2f pattern {11111111111111/11111111111/1111111111/11}
 Group   4 Type N   : 14s11p10d2f contracted to 14s11p10d2f pattern {11111111111111/11111111111/1111111111/11}

Atom   0C    basis set group =>   1
Atom   1H    basis set group =>   2
Atom   2H    basis set group =>   2
Atom   3H    basis set group =>   2
Atom   4C    basis set group =>   1
Atom   5O    basis set group =>   3
Atom   6N    basis set group =>   4
Atom   7C    basis set group =>   1
Atom   8H    basis set group =>   2
Atom   9H    basis set group =>   2
Atom  10C    basis set group =>   1
Atom  11H    basis set group =>   2
Atom  12H    basis set group =>   2
Atom  13C    basis set group =>   1
Atom  14H    basis set group =>   2
Atom  15H    basis set group =>   2
Atom  16C    basis set group =>   1
Atom  17N    basis set group =>   4
Atom  18O    basis set group =>   3
Atom  19C    basis set group =>   1
Atom  20H    basis set group =>   2
Atom  21H    basis set group =>   2
Atom  22H    basis set group =>   2
Atom  23C    basis set group =>   1
Atom  24H    basis set group =>   2
Atom  25H    basis set group =>   2
Atom  26H    basis set group =>   2
Atom  27O    basis set group =>   3
Atom  28C    basis set group =>   1
Atom  29H    basis set group =>   2
Atom  30H    basis set group =>   2
Atom  31H    basis set group =>   2
---------------------------------
AUXILIARY/C BASIS SET INFORMATION
---------------------------------
There are 4 groups of distinct atoms

 Group   1 Type C   : 13s11p10d2f contracted to 13s11p10d2f pattern {1111111111111/11111111111/1111111111/11}
 Group   2 Type H   : 9s2p contracted to 9s2p pattern {111111111/11}
 Group   3 Type O   : 14s11p10d2f contracted to 14s11p10d2f pattern {11111111111111/11111111111/1111111111/11}
 Group   4 Type N   : 14s11p10d2f contracted to 14s11p10d2f pattern {11111111111111/11111111111/1111111111/11}

Atom   0C    basis set group =>   1
Atom   1H    basis set group =>   2
Atom   2H    basis set group =>   2
Atom   3H    basis set group =>   2
Atom   4C    basis set group =>   1
Atom   5O    basis set group =>   3
Atom   6N    basis set group =>   4
Atom   7C    basis set group =>   1
Atom   8H    basis set group =>   2
Atom   9H    basis set group =>   2
Atom  10C    basis set group =>   1
Atom  11H    basis set group =>   2
Atom  12H    basis set group =>   2
Atom  13C    basis set group =>   1
Atom  14H    basis set group =>   2
Atom  15H    basis set group =>   2
Atom  16C    basis set group =>   1
Atom  17N    basis set group =>   4
Atom  18O    basis set group =>   3
Atom  19C    basis set group =>   1
Atom  20H    basis set group =>   2
Atom  21H    basis set group =>   2
Atom  22H    basis set group =>   2
Atom  23C    basis set group =>   1
Atom  24H    basis set group =>   2
Atom  25H    basis set group =>   2
Atom  26H    basis set group =>   2
Atom  27O    basis set group =>   3
Atom  28C    basis set group =>   1
Atom  29H    basis set group =>   2
Atom  30H    basis set group =>   2
Atom  31H    basis set group =>   2
----------------------------------
AUXILIARY/JK BASIS SET INFORMATION
----------------------------------
There are 4 groups of distinct atoms

 Group   1 Type C   : 13s11p10d2f contracted to 13s11p10d2f pattern {1111111111111/11111111111/1111111111/11}
 Group   2 Type H   : 9s2p contracted to 9s2p pattern {111111111/11}
 Group   3 Type O   : 14s11p10d2f contracted to 14s11p10d2f pattern {11111111111111/11111111111/1111111111/11}
 Group   4 Type N   : 14s11p10d2f contracted to 14s11p10d2f pattern {11111111111111/11111111111/1111111111/11}

Atom   0C    basis set group =>   1
Atom   1H    basis set group =>   2
Atom   2H    basis set group =>   2
Atom   3H    basis set group =>   2
Atom   4C    basis set group =>   1
Atom   5O    basis set group =>   3
Atom   6N    basis set group =>   4
Atom   7C    basis set group =>   1
Atom   8H    basis set group =>   2
Atom   9H    basis set group =>   2
Atom  10C    basis set group =>   1
Atom  11H    basis set group =>   2
Atom  12H    basis set group =>   2
Atom  13C    basis set group =>   1
Atom  14H    basis set group =>   2
Atom  15H    basis set group =>   2
Atom  16C    basis set group =>   1
Atom  17N    basis set group =>   4
Atom  18O    basis set group =>   3
Atom  19C    basis set group =>   1
Atom  20H    basis set group =>   2
Atom  21H    basis set group =>   2
Atom  22H    basis set group =>   2
Atom  23C    basis set group =>   1
Atom  24H    basis set group =>   2
Atom  25H    basis set group =>   2
Atom  26H    basis set group =>   2
Atom  27O    basis set group =>   3
Atom  28C    basis set group =>   1
Atom  29H    basis set group =>   2
Atom  30H    basis set group =>   2
Atom  31H    basis set group =>   2


           ************************************************************
           *        Program running with 4 parallel MPI-processes     *
           *              working on a common directory               *
           ************************************************************
------------------------------------------------------------------------------
                           ORCA GTO INTEGRAL CALCULATION
                           -- RI-GTO INTEGRALS CHOSEN --
------------------------------------------------------------------------------
------------------------------------------------------------------------------
                   ___                                                        
                  /   \      - P O W E R E D   B Y -                         
                 /     \                                                     
                 |  |  |   _    _      __       _____    __    __             
                 |  |  |  | |  | |    /  \     |  _  \  |  |  /  |          
                  \  \/   | |  | |   /    \    | | | |  |  | /  /          
                 / \  \   | |__| |  /  /\  \   | |_| |  |  |/  /          
                |  |  |   |  __  | /  /__\  \  |    /   |      \           
                |  |  |   | |  | | |   __   |  |    \   |  |\   \          
                \     /   | |  | | |  |  |  |  | |\  \  |  | \   \       
                 \___/    |_|  |_| |__|  |__|  |_| \__\ |__|  \__/        
                                                                              
                      - O R C A' S   B I G   F R I E N D -                    
                                      &                                       
                       - I N T E G R A L  F E E D E R -                       
                                                                              
 v1 FN, 2020, v2 2021                                                         
------------------------------------------------------------------------------


Reading SHARK input file NmO_octanol.SHARKINP.tmp ... ok
----------------------
SHARK INTEGRAL PACKAGE
----------------------

Number of atoms                             ...     32
Number of basis functions                   ...    232
Number of shells                            ...    120
Maximum angular momentum                    ...      2
Integral batch strategy                     ... SHARK/LIBINT Hybrid
RI-J (if used) integral strategy            ... SPLIT-RIJ (Revised 2003 algorithm where possible)
Printlevel                                  ...      1
Contraction scheme used                     ... SEGMENTED contraction
Coulomb Range Separation                    ... NOT USED
Exchange Range Separation                   ... NOT USED
Finite Nucleus Model                        ... NOT USED
Auxiliary Coulomb fitting basis             ... AVAILABLE
   # of basis functions in Aux-J            ...   1815
   # of shells in Aux-J                     ...    707
   Maximum angular momentum in Aux-J        ...      3
Auxiliary J/K fitting basis                 ... AVAILABLE
   # of basis functions in Aux-JK           ...   1815
   # of shells in Aux-JK                    ...    707
   Maximum angular momentum in Aux-JK       ...      3
Auxiliary Correlation fitting basis         ... AVAILABLE
   # of basis functions in Aux-C            ...   1815
   # of shells in Aux-C                     ...    707
   Maximum angular momentum in Aux-C        ...      3
Auxiliary 'external' fitting basis          ... NOT available
Integral threshold                          ...     2.500000e-11
Primitive cut-off                           ...     2.500000e-12
Primitive pair pre-selection threshold      ...     2.500000e-12

Calculating pre-screening integrals         ... done (  0.0 sec) Dimension = 120
Organizing shell pair data                  ... done (  0.7 sec)
Shell pair information
Total number of shell pairs                 ...      7260
Shell pairs after pre-screening             ...      6356
Total number of primitive shell pairs       ...     40251
Primitive shell pairs kept                  ...     20697
          la=0 lb=0:   2603 shell pairs
          la=1 lb=0:   2003 shell pairs
          la=1 lb=1:    393 shell pairs
          la=2 lb=0:    902 shell pairs
          la=2 lb=1:    363 shell pairs
          la=2 lb=2:     92 shell pairs

Calculating one electron integrals          ... done (  0.0 sec)
Calculating RI/J V-Matrix + Cholesky decomp.... done (  0.2 sec)
Calculating RI/JK V-Matrix + Cholesky decomp... done (  0.2 sec)
Calculating RI/C V-Matrix + Cholesky decomp.... done (  0.2 sec)
Calculating Nuclear repulsion               ... done (  0.0 sec) ENN=   1010.204860362792 Eh

SHARK setup successfully completed in   2.0 seconds

Maximum memory used throughout the entire GTOINT-calculation: 30.0 MB


           ************************************************************
           *        Program running with 4 parallel MPI-processes     *
           *              working on a common directory               *
           ************************************************************
-------------------------------------------------------------------------------
                                 ORCA SCF
-------------------------------------------------------------------------------

------------
SCF SETTINGS
------------
Hamiltonian:
 Density Functional     Method          .... DFT(GTOs)
 Exchange Functional    Exchange        .... B88
   X-Alpha parameter    XAlpha          ....  0.666667
   Becke's b parameter  XBeta           ....  0.004200
 Correlation Functional Correlation     .... LYP
 LDA part of GGA corr.  LDAOpt          .... VWN-5
 Gradients option       PostSCFGGA      .... off
 Hybrid DFT is turned on
   Fraction HF Exchange ScalHFX         ....  0.200000
   Scaling of DF-GGA-X  ScalDFX         ....  0.720000
   Scaling of DF-GGA-C  ScalDFC         ....  0.810000
   Scaling of DF-LDA-C  ScalLDAC        ....  1.000000
   Perturbative correction              ....  0.000000
   Density functional embedding theory  .... OFF
   NL short-range parameter             ....  4.800000
 RI-approximation to the Coulomb term is turned on
   Number of AuxJ basis functions       .... 1815
   RIJ-COSX (HFX calculated with COS-X)).... on


General Settings:
 Integral files         IntName         .... NmO_octanol
 Hartree-Fock type      HFTyp           .... RHF
 Total Charge           Charge          ....    0
 Multiplicity           Mult            ....    1
 Number of Electrons    NEL             ....  110
 Basis Dimension        Dim             ....  232
 Nuclear Repulsion      ENuc            ....   1010.2048603628 Eh

Convergence Acceleration:
 DIIS                   CNVDIIS         .... on
   Start iteration      DIISMaxIt       ....    12
   Startup error        DIISStart       ....  0.200000
   # of expansion vecs  DIISMaxEq       ....     5
   Bias factor          DIISBfac        ....   1.050
   Max. coefficient     DIISMaxC        ....  10.000
 Trust-Rad. Augm. Hess. CNVTRAH         .... auto
   Auto Start mean grad. ratio tolernc. ....  1.125000
   Auto Start start iteration           ....    20
   Auto Start num. interpolation iter.  ....    10
   Max. Number of Micro iterations      ....    16
   Max. Number of Macro iterations      .... Maxiter - #DIIS iter
   Number of Davidson start vectors     ....     2
   Converg. threshold I  (grad. norm)   ....   1.000e-05
   Converg. threshold II (energy diff.) ....   1.000e-08
   Grad. Scal. Fac. for Micro threshold ....   0.100
   Minimum threshold for Micro iter.    ....   0.010
   NR start threshold (gradient norm)   ....   0.001
   Initial trust radius                 ....   0.400
   Minimum AH scaling param. (alpha)    ....   1.000
   Maximum AH scaling param. (alpha)    .... 1000.000
   Orbital update algorithm             .... Taylor
   White noise on init. David. guess    .... on
   Maximum white noise                  ....   0.010
   Quad. conv. algorithm                .... NR
 SOSCF                  CNVSOSCF        .... on
   Start iteration      SOSCFMaxIt      ....   150
   Startup grad/error   SOSCFStart      ....  0.003300
 Level Shifting         CNVShift        .... on
   Level shift para.    LevelShift      ....    0.2500
   Turn off err/grad.   ShiftErr        ....    0.0010
 Zerner damping         CNVZerner       .... off
 Static damping         CNVDamp         .... on
   Fraction old density DampFac         ....    0.7000
   Max. Damping (<1)    DampMax         ....    0.9800
   Min. Damping (>=0)   DampMin         ....    0.0000
   Turn off err/grad.   DampErr         ....    0.1000
 Fernandez-Rico         CNVRico         .... off

SCF Procedure:
 Maximum # iterations   MaxIter         ....   125
 SCF integral mode      SCFMode         .... Direct
   Integral package                     .... SHARK and LIBINT hybrid scheme
 Reset frequency        DirectResetFreq ....    20
 Integral Threshold     Thresh          ....  2.500e-11 Eh
 Primitive CutOff       TCut            ....  2.500e-12 Eh

Convergence Tolerance:
 Convergence Check Mode ConvCheckMode   .... Total+1el-Energy
 Convergence forced     ConvForced      .... 0
 Energy Change          TolE            ....  1.000e-08 Eh
 1-El. energy change                    ....  1.000e-05 Eh
 Orbital Gradient       TolG            ....  1.000e-05
 Orbital Rotation angle TolX            ....  1.000e-05
 DIIS Error             TolErr          ....  5.000e-07


Diagonalization of the overlap matrix:
Smallest eigenvalue                        ... 3.166e-03
Time for diagonalization                   ...    0.009 sec
Threshold for overlap eigenvalues          ... 1.000e-08
Number of eigenvalues below threshold      ... 0
Time for construction of square roots      ...    0.005 sec
Total time needed                          ...    0.015 sec

Time for model grid setup =    0.260 sec

------------------------------
INITIAL GUESS: MODEL POTENTIAL
------------------------------
Loading Hartree-Fock densities                     ... done
Calculating cut-offs                               ... done
Initializing the effective Hamiltonian             ... done
Setting up the integral package (SHARK)            ... done
Starting the Coulomb interaction                   ... done (   0.2 sec)
Reading the grid                                   ... done
Mapping shells                                     ... done
Starting the XC term evaluation                    ... done (   0.2 sec)
  promolecular density results
     # of electrons  =    109.987285054
     EX              =    -89.381952823
     EC              =     -3.721844704
     EX+EC           =    -93.103797527
Transforming the Hamiltonian                       ... done (   0.0 sec)
Diagonalizing the Hamiltonian                      ... done (   0.0 sec)
Back transforming the eigenvectors                 ... done (   0.0 sec)
Now organizing SCF variables                       ... done
                      ------------------
                      INITIAL GUESS DONE (   0.6 sec)
                      ------------------
-------------------
DFT GRID GENERATION
-------------------

General Integration Accuracy     IntAcc      ... 4.388
Radial Grid Type                 RadialGrid  ... OptM3 with GC (2021)
Angular Grid (max. ang.)         AngularGrid ... 4 (Lebedev-302)
Angular grid pruning method      GridPruning ... 4 (adaptive)
Weight generation scheme         WeightScheme... Becke
Basis function cutoff            BFCut       ... 1.0000e-11
Integration weight cutoff        WCut        ... 1.0000e-14
Angular grids for H and He will be reduced by one unit
Partially contracted basis set               ... off
Rotationally invariant grid construction     ... off

Total number of grid points                  ...   140976
Total number of batches                      ...     2218
Average number of points per batch           ...       63
Average number of grid points per atom       ...     4406
Time for grid setup =    1.176 sec

--------------------
COSX GRID GENERATION
--------------------

GRIDX 1
-------
General Integration Accuracy     IntAcc      ... 3.816
Radial Grid Type                 RadialGrid  ... OptM3 with GC (2021)
Angular Grid (max. ang.)         AngularGrid ... 1 (Lebedev-50)
Angular grid pruning method      GridPruning ... 4 (adaptive)
Weight generation scheme         WeightScheme... Becke
Basis function cutoff            BFCut       ... 1.0000e-11
Integration weight cutoff        WCut        ... 1.0000e-14
Angular grids for H and He will be reduced by one unit
Partially contracted basis set               ... on
Rotationally invariant grid construction     ... off

Total number of grid points                  ...    17973
Total number of batches                      ...      301
Average number of points per batch           ...       59
Average number of grid points per atom       ...      562
UseSFitting                                  ... on

GRIDX 2
-------
General Integration Accuracy     IntAcc      ... 4.020
Radial Grid Type                 RadialGrid  ... OptM3 with GC (2021)
Angular Grid (max. ang.)         AngularGrid ... 2 (Lebedev-110)
Angular grid pruning method      GridPruning ... 4 (adaptive)
Weight generation scheme         WeightScheme... Becke
Basis function cutoff            BFCut       ... 1.0000e-11
Integration weight cutoff        WCut        ... 1.0000e-14
Angular grids for H and He will be reduced by one unit
Partially contracted basis set               ... on
Rotationally invariant grid construction     ... off

Total number of grid points                  ...    37921
Total number of batches                      ...      608
Average number of points per batch           ...       62
Average number of grid points per atom       ...     1185
UseSFitting                                  ... on

GRIDX 3
-------
General Integration Accuracy     IntAcc      ... 4.338
Radial Grid Type                 RadialGrid  ... OptM3 with GC (2021)
Angular Grid (max. ang.)         AngularGrid ... 3 (Lebedev-194)
Angular grid pruning method      GridPruning ... 4 (adaptive)
Weight generation scheme         WeightScheme... Becke
Basis function cutoff            BFCut       ... 1.0000e-11
Integration weight cutoff        WCut        ... 1.0000e-14
Angular grids for H and He will be reduced by one unit
Partially contracted basis set               ... on
Rotationally invariant grid construction     ... off

Total number of grid points                  ...    82566
Total number of batches                      ...     1308
Average number of points per batch           ...       63
Average number of grid points per atom       ...     2580
UseSFitting                                  ... on

Time for X-Grid setup             =    2.007 sec


--------------------
CPCM SOLVATION MODEL
--------------------
CPCM parameters:
  Epsilon                                         ...       9.8629
  Refrac                                          ...       1.4295
  Rsolv                                           ...       1.3000
  Surface type                                    ... GAUSSIAN VDW
  Epsilon function type                           ...         CPCM
Radii:
 Radius for C  used is    3.8550 Bohr (=   2.0400 Ang.)
 Radius for H  used is    2.4944 Bohr (=   1.3200 Ang.)
 Radius for O  used is    3.4469 Bohr (=   1.8240 Ang.)
 Radius for N  used is    3.5149 Bohr (=   1.8600 Ang.)
Calculating surface                               ...        done! (  0.0s)
GEPOL surface points                              ...         1671
GEPOL Volume                                      ...    1719.3262
GEPOL Surface-area                                ...     905.8766
Calculating surface distance matrix               ...        done! (  0.0s)
Performing Cholesky decomposition & store         ...        done! (  0.1s)
Overall time for CPCM initialization              ...                 0.1s
--------------
SCF ITERATIONS
--------------
ITER       Energy         Delta-E        Max-DP      RMS-DP      [F,P]     Damp
               ***  Starting incremental Fock matrix formation  ***
  0   -688.1659976754   0.000000000000 0.09661291  0.00214914  0.2744543 0.7000
  1   -688.3535080936  -0.187510418206 0.05526840  0.00141649  0.1106222 0.7000
                               ***Turning on DIIS***
  2   -688.4251557463  -0.071647652721 0.06256058  0.00218071  0.0374534 0.0000
  3   -688.5432183823  -0.118062636053 0.03766011  0.00097513  0.0529100 0.0000
  4   -688.5656226027  -0.022404220399 0.00808399  0.00030893  0.0102522 0.0000
  5   -688.5672103592  -0.001587756455 0.00314075  0.00008870  0.0046243 0.0000
                      *** Initiating the SOSCF procedure ***
                           *** Shutting down DIIS ***
                      *** Re-Reading the Fockian *** 
                      *** Removing any level shift *** 
ITER      Energy       Delta-E        Grad      Rot      Max-DP    RMS-DP
  6   -688.56730482  -0.0000944654  0.000224  0.000224  0.001376  0.000039
               *** Restarting incremental Fock matrix formation ***
  7   -688.56729744   0.0000073849  0.000230  0.000767  0.001652  0.000025
  8   -688.56729282   0.0000046215  0.000381  0.000559  0.001100  0.000016
  9   -688.56730017  -0.0000073473  0.000064  0.000174  0.000313  0.000006
 10   -688.56729989   0.0000002711  0.000129  0.000117  0.000219  0.000004
 11   -688.56730026  -0.0000003670  0.000004  0.000006  0.000018  0.000001
 12   -688.56730027  -0.0000000047  0.000003  0.000003  0.000009  0.000000
                  ***Gradient check signals convergence***
              ***Rediagonalizing the Fockian in SOSCF/NRSCF***

               *****************************************************
               *                     SUCCESS                       *
               *           SCF CONVERGED AFTER  13 CYCLES          *
               *****************************************************

Old exchange energy                            =    -18.215659695 Eh
New exchange energy                            =    -18.215665884 Eh
Exchange energy change after final integration =     -0.000006189 Eh
Total energy after final integration           =   -688.567306443 Eh
Final COS-X integration done in                =     9.169 sec

----------------
TOTAL SCF ENERGY
----------------

Total Energy       :         -688.56730644 Eh          -18736.86897 eV

Components:
Nuclear Repulsion  :         1010.20486036 Eh           27489.07177 eV
Electronic Energy  :        -1698.77216681 Eh          -46225.94074 eV
One Electron Energy:        -2943.36376715 Eh          -80092.99995 eV
Two Electron Energy:         1244.59160034 Eh           33867.05921 eV
Max COSX asymmetry :            0.00000251 Eh               0.00007 eV
CPCM Dielectric    :           -0.01743316 Eh              -0.47438 eV

Virial components:
Potential Energy   :        -1373.13270995 Eh          -37364.84063 eV
Kinetic Energy     :          684.56540351 Eh           18627.97166 eV
Virial Ratio       :            2.00584590


DFT components:
N(Alpha)           :       55.000097299340 electrons
N(Beta)            :       55.000097299340 electrons
N(Total)           :      110.000194598679 electrons
E(X)               :      -72.344140354359 Eh       
E(C)               :       -4.383559657694 Eh       
E(XC)              :      -76.727700012053 Eh       
DFET-embed. en.    :        0.000000000000 Eh       
CPCM Solvation Model Properties:
Surface-charge          :           -0.01980221
Charge-correction       :           -0.00017588 Eh              -0.00479 eV
Free-energy (cav+disp)  :  This term is not implemented in the current solvation scheme

---------------
SCF CONVERGENCE
---------------

  Last Energy change         ...    1.2194e-08  Tolerance :   1.0000e-08
  Last MAX-Density change    ...    3.5527e-15  Tolerance :   1.0000e-07
  Last RMS-Density change    ...    5.1337e-17  Tolerance :   5.0000e-09
  Last Orbital Gradient      ...    3.9946e-07  Tolerance :   1.0000e-05
  Last Orbital Rotation      ...    1.5129e-06  Tolerance :   1.0000e-05

             **** THE GBW FILE WAS UPDATED (NmO_octanol.gbw) ****
             **** DENSITY NmO_octanol.scfp WAS UPDATED ****
             **** ENERGY FILE WAS UPDATED (NmO_octanol.en.tmp) ****
             **** THE GBW FILE WAS UPDATED (NmO_octanol.gbw) ****
             **** DENSITY NmO_octanol.scfp WAS UPDATED ****
----------------
ORBITAL ENERGIES
----------------

  NO   OCC          E(Eh)            E(eV) 
   0   2.0000     -19.140781      -520.8471 
   1   2.0000     -19.112246      -520.0707 
   2   2.0000     -19.109669      -520.0005 
   3   2.0000     -14.363376      -390.8473 
   4   2.0000     -14.360581      -390.7713 
   5   2.0000     -10.286273      -279.9037 
   6   2.0000     -10.280712      -279.7524 
   7   2.0000     -10.219138      -278.0769 
   8   2.0000     -10.211712      -277.8748 
   9   2.0000     -10.209375      -277.8112 
  10   2.0000     -10.208103      -277.7766 
  11   2.0000     -10.199491      -277.5423 
  12   2.0000     -10.195945      -277.4458 
  13   2.0000     -10.174262      -276.8557 
  14   2.0000      -1.034332       -28.1456 
  15   2.0000      -1.026443       -27.9309 
  16   2.0000      -1.024716       -27.8839 
  17   2.0000      -0.936194       -25.4751 
  18   2.0000      -0.928757       -25.2728 
  19   2.0000      -0.766194       -20.8492 
  20   2.0000      -0.749382       -20.3917 
  21   2.0000      -0.719690       -19.5838 
  22   2.0000      -0.708051       -19.2670 
  23   2.0000      -0.682417       -18.5695 
  24   2.0000      -0.669408       -18.2155 
  25   2.0000      -0.614665       -16.7259 
  26   2.0000      -0.553819       -15.0702 
  27   2.0000      -0.539630       -14.6841 
  28   2.0000      -0.514827       -14.0092 
  29   2.0000      -0.496187       -13.5019 
  30   2.0000      -0.483085       -13.1454 
  31   2.0000      -0.471559       -12.8318 
  32   2.0000      -0.467767       -12.7286 
  33   2.0000      -0.463345       -12.6083 
  34   2.0000      -0.459803       -12.5119 
  35   2.0000      -0.443578       -12.0704 
  36   2.0000      -0.433387       -11.7931 
  37   2.0000      -0.413719       -11.2579 
  38   2.0000      -0.404231       -10.9997 
  39   2.0000      -0.402031       -10.9398 
  40   2.0000      -0.397771       -10.8239 
  41   2.0000      -0.394403       -10.7322 
  42   2.0000      -0.393257       -10.7011 
  43   2.0000      -0.385239       -10.4829 
  44   2.0000      -0.384092       -10.4517 
  45   2.0000      -0.372925       -10.1478 
  46   2.0000      -0.362721        -9.8702 
  47   2.0000      -0.354858        -9.6562 
  48   2.0000      -0.349643        -9.5143 
  49   2.0000      -0.312226        -8.4961 
  50   2.0000      -0.266417        -7.2496 
  51   2.0000      -0.255631        -6.9561 
  52   2.0000      -0.254140        -6.9155 
  53   2.0000      -0.238730        -6.4962 
  54   2.0000      -0.231517        -6.2999 
  55   0.0000       0.012902         0.3511 
  56   0.0000       0.025317         0.6889 
  57   0.0000       0.085109         2.3159 
  58   0.0000       0.099812         2.7160 
  59   0.0000       0.108029         2.9396 
  60   0.0000       0.115301         3.1375 
  61   0.0000       0.138131         3.7587 
  62   0.0000       0.143386         3.9017 
  63   0.0000       0.149347         4.0639 
  64   0.0000       0.158167         4.3040 
  65   0.0000       0.164153         4.4668 
  66   0.0000       0.164211         4.4684 
  67   0.0000       0.168272         4.5789 
  68   0.0000       0.172847         4.7034 
  69   0.0000       0.177475         4.8293 
  70   0.0000       0.181237         4.9317 
  71   0.0000       0.189488         5.1562 
  72   0.0000       0.195541         5.3209 
  73   0.0000       0.197626         5.3777 
  74   0.0000       0.207106         5.6356 
  75   0.0000       0.220662         6.0045 
  76   0.0000       0.225768         6.1435 
  77   0.0000       0.230226         6.2648 
  78   0.0000       0.237882         6.4731 
  79   0.0000       0.242930         6.6105 
  80   0.0000       0.251614         6.8468 
  81   0.0000       0.269877         7.3437 
  82   0.0000       0.279260         7.5990 
  83   0.0000       0.298336         8.1181 
  84   0.0000       0.332345         9.0436 
  85   0.0000       0.361739         9.8434 
  86   0.0000       0.378366        10.2959 
  87   0.0000       0.420303        11.4370 
  88   0.0000       0.474435        12.9100 
  89   0.0000       0.504699        13.7335 
  90   0.0000       0.510254        13.8847 
  91   0.0000       0.513530        13.9739 
  92   0.0000       0.523263        14.2387 
  93   0.0000       0.529521        14.4090 
  94   0.0000       0.541848        14.7444 
  95   0.0000       0.546119        14.8606 
  96   0.0000       0.566443        15.4137 
  97   0.0000       0.578193        15.7334 
  98   0.0000       0.593891        16.1606 
  99   0.0000       0.602544        16.3961 
 100   0.0000       0.612167        16.6579 
 101   0.0000       0.619492        16.8572 
 102   0.0000       0.633134        17.2285 
 103   0.0000       0.641033        17.4434 
 104   0.0000       0.655397        17.8342 
 105   0.0000       0.667631        18.1672 
 106   0.0000       0.676864        18.4184 
 107   0.0000       0.693400        18.8684 
 108   0.0000       0.709163        19.2973 
 109   0.0000       0.724066        19.7028 
 110   0.0000       0.748231        20.3604 
 111   0.0000       0.771063        20.9817 
 112   0.0000       0.781499        21.2657 
 113   0.0000       0.788705        21.4617 
 114   0.0000       0.801600        21.8126 
 115   0.0000       0.818063        22.2606 
 116   0.0000       0.828067        22.5328 
 117   0.0000       0.841543        22.8995 
 118   0.0000       0.846935        23.0463 
 119   0.0000       0.850068        23.1315 
 120   0.0000       0.865137        23.5416 
 121   0.0000       0.872657        23.7462 
 122   0.0000       0.876361        23.8470 
 123   0.0000       0.887440        24.1485 
 124   0.0000       0.896026        24.3821 
 125   0.0000       0.902099        24.5474 
 126   0.0000       0.911527        24.8039 
 127   0.0000       0.918453        24.9924 
 128   0.0000       0.926177        25.2026 
 129   0.0000       0.933642        25.4057 
 130   0.0000       0.943283        25.6680 
 131   0.0000       0.951527        25.8924 
 132   0.0000       0.972542        26.4642 
 133   0.0000       0.987322        26.8664 
 134   0.0000       0.999630        27.2013 
 135   0.0000       1.002511        27.2797 
 136   0.0000       1.019117        27.7316 
 137   0.0000       1.024682        27.8830 
 138   0.0000       1.039386        28.2831 
 139   0.0000       1.062077        28.9006 
 140   0.0000       1.065615        28.9969 
 141   0.0000       1.090031        29.6612 
 142   0.0000       1.106674        30.1141 
 143   0.0000       1.123785        30.5797 
 144   0.0000       1.132686        30.8220 
 145   0.0000       1.147294        31.2195 
 146   0.0000       1.181072        32.1386 
 147   0.0000       1.241303        33.7776 
 148   0.0000       1.271618        34.6025 
 149   0.0000       1.277389        34.7595 
 150   0.0000       1.304906        35.5083 
 151   0.0000       1.338332        36.4179 
 152   0.0000       1.354330        36.8532 
 153   0.0000       1.374674        37.4068 
 154   0.0000       1.404689        38.2235 
 155   0.0000       1.416535        38.5459 
 156   0.0000       1.427667        38.8488 
 157   0.0000       1.430877        38.9361 
 158   0.0000       1.442606        39.2553 
 159   0.0000       1.455640        39.6100 
 160   0.0000       1.482403        40.3382 
 161   0.0000       1.513922        41.1959 
 162   0.0000       1.550079        42.1798 
 163   0.0000       1.553164        42.2637 
 164   0.0000       1.621648        44.1273 
 165   0.0000       1.656565        45.0774 
 166   0.0000       1.676147        45.6103 
 167   0.0000       1.707545        46.4647 
 168   0.0000       1.744109        47.4596 
 169   0.0000       1.753662        47.7196 
 170   0.0000       1.769655        48.1548 
 171   0.0000       1.787722        48.6464 
 172   0.0000       1.807703        49.1901 
 173   0.0000       1.827651        49.7329 
 174   0.0000       1.848090        50.2891 
 175   0.0000       1.859499        50.5995 
 176   0.0000       1.871566        50.9279 
 177   0.0000       1.892117        51.4871 
 178   0.0000       1.896397        51.6036 
 179   0.0000       1.913664        52.0734 
 180   0.0000       1.934198        52.6322 
 181   0.0000       1.951191        53.0946 
 182   0.0000       1.954154        53.1752 
 183   0.0000       1.976275        53.7772 
 184   0.0000       1.981197        53.9111 
 185   0.0000       2.012115        54.7524 
 186   0.0000       2.021914        55.0191 
 187   0.0000       2.032212        55.2993 
 188   0.0000       2.048777        55.7501 
 189   0.0000       2.068535        56.2877 
 190   0.0000       2.075937        56.4891 
 191   0.0000       2.080424        56.6112 
 192   0.0000       2.092138        56.9300 
 193   0.0000       2.102910        57.2231 
 194   0.0000       2.125170        57.8288 
 195   0.0000       2.135767        58.1172 
 196   0.0000       2.151383        58.5421 
 197   0.0000       2.204683        59.9925 
 198   0.0000       2.211968        60.1907 
 199   0.0000       2.217300        60.3358 
 200   0.0000       2.229096        60.6568 
 201   0.0000       2.267280        61.6958 
 202   0.0000       2.283827        62.1461 
 203   0.0000       2.286031        62.2061 
 204   0.0000       2.308709        62.8232 
 205   0.0000       2.333267        63.4914 
 206   0.0000       2.346565        63.8533 
 207   0.0000       2.369191        64.4690 
 208   0.0000       2.394795        65.1657 
 209   0.0000       2.410642        65.5969 
 210   0.0000       2.434526        66.2468 
 211   0.0000       2.441731        66.4429 
 212   0.0000       2.494319        67.8739 
 213   0.0000       2.512720        68.3746 
 214   0.0000       2.545737        69.2730 
 215   0.0000       2.557866        69.6031 
 216   0.0000       2.592275        70.5394 
 217   0.0000       2.618435        71.2512 
 218   0.0000       2.632444        71.6324 
 219   0.0000       2.651290        72.1453 
 220   0.0000       2.689069        73.1733 
 221   0.0000       2.710077        73.7449 
 222   0.0000       2.724602        74.1402 
 223   0.0000       2.758573        75.0646 
 224   0.0000       2.776149        75.5428 
 225   0.0000       2.935169        79.8700 
 226   0.0000       2.941900        80.0532 
 227   0.0000       2.968860        80.7868 
 228   0.0000       3.008422        81.8633 
 229   0.0000       3.011185        81.9385 
 230   0.0000       3.163281        86.0773 
 231   0.0000       3.181712        86.5788 

                    ********************************
                    * MULLIKEN POPULATION ANALYSIS *
                    ********************************

-----------------------
MULLIKEN ATOMIC CHARGES
-----------------------
   0 C :   -0.560856
   1 H :    0.192110
   2 H :    0.198791
   3 H :    0.183390
   4 C :    0.530955
   5 O :   -0.527853
   6 N :   -0.375895
   7 C :   -0.247189
   8 H :    0.182500
   9 H :    0.205881
  10 C :   -0.189771
  11 H :    0.182078
  12 H :    0.183881
  13 C :   -0.041161
  14 H :    0.156576
  15 H :    0.158378
  16 C :    0.518663
  17 N :   -0.359267
  18 O :   -0.536007
  19 C :   -0.348298
  20 H :    0.170185
  21 H :    0.172050
  22 H :    0.198822
  23 C :   -0.330474
  24 H :    0.169716
  25 H :    0.187098
  26 H :    0.170859
  27 O :   -0.494793
  28 C :   -0.220000
  29 H :    0.148227
  30 H :    0.163120
  31 H :    0.158285
Sum of atomic charges:    0.0000000

--------------------------------
MULLIKEN REDUCED ORBITAL CHARGES
--------------------------------
  0 C s       :     3.323369  s :     3.323369
      pz      :     1.079009  p :     3.205566
      px      :     1.093742
      py      :     1.032815
      dz2     :     0.002143  d :     0.031920
      dxz     :     0.008158
      dyz     :     0.009879
      dx2y2   :     0.006204
      dxy     :     0.005537
  1 H s       :     0.807890  s :     0.807890
  2 H s       :     0.801209  s :     0.801209
  3 H s       :     0.816610  s :     0.816610
  4 C s       :     2.983545  s :     2.983545
      pz      :     0.799638  p :     2.377554
      px      :     0.768897
      py      :     0.809019
      dz2     :     0.009060  d :     0.107946
      dxz     :     0.017187
      dyz     :     0.018440
      dx2y2   :     0.037665
      dxy     :     0.025594
  5 O s       :     3.864275  s :     3.864275
      pz      :     1.560064  p :     4.638446
      px      :     1.639040
      py      :     1.439342
      dz2     :     0.002413  d :     0.025133
      dxz     :     0.002730
      dyz     :     0.005836
      dx2y2   :     0.006693
      dxy     :     0.007460
  6 N s       :     3.534063  s :     3.534063
      pz      :     1.466864  p :     3.805290
      px      :     1.184064
      py      :     1.154362
      dz2     :     0.005000  d :     0.036542
      dxz     :     0.006187
      dyz     :     0.005885
      dx2y2   :     0.009833
      dxy     :     0.009636
  7 C s       :     3.250312  s :     3.250312
      pz      :     1.009890  p :     2.944960
      px      :     0.992867
      py      :     0.942203
      dz2     :     0.014776  d :     0.051917
      dxz     :     0.006054
      dyz     :     0.009853
      dx2y2   :     0.007159
      dxy     :     0.014076
  8 H s       :     0.817500  s :     0.817500
  9 H s       :     0.794119  s :     0.794119
 10 C s       :     3.225662  s :     3.225662
      pz      :     1.037857  p :     2.911391
      px      :     0.971857
      py      :     0.901678
      dz2     :     0.010554  d :     0.052717
      dxz     :     0.013288
      dyz     :     0.005369
      dx2y2   :     0.007393
      dxy     :     0.016112
 11 H s       :     0.817922  s :     0.817922
 12 H s       :     0.816119  s :     0.816119
 13 C s       :     3.197933  s :     3.197933
      pz      :     1.005535  p :     2.778458
      px      :     0.891602
      py      :     0.881321
      dz2     :     0.011569  d :     0.064770
      dxz     :     0.016316
      dyz     :     0.007242
      dx2y2   :     0.011557
      dxy     :     0.018085
 14 H s       :     0.843424  s :     0.843424
 15 H s       :     0.841622  s :     0.841622
 16 C s       :     2.986892  s :     2.986892
      pz      :     0.777221  p :     2.386938
      px      :     0.814117
      py      :     0.795600
      dz2     :     0.028524  d :     0.107507
      dxz     :     0.022391
      dyz     :     0.016593
      dx2y2   :     0.023097
      dxy     :     0.016902
 17 N s       :     3.532276  s :     3.532276
      pz      :     1.200672  p :     3.789198
      px      :     1.109288
      py      :     1.479238
      dz2     :     0.008172  d :     0.037792
      dxz     :     0.010073
      dyz     :     0.005984
      dx2y2   :     0.007844
      dxy     :     0.005719
 18 O s       :     3.863058  s :     3.863058
      pz      :     1.614267  p :     4.647998
      px      :     1.500971
      py      :     1.532759
      dz2     :     0.004137  d :     0.024951
      dxz     :     0.007190
      dyz     :     0.002302
      dx2y2   :     0.004918
      dxy     :     0.006403
 19 C s       :     3.269471  s :     3.269471
      pz      :     1.001633  p :     3.030620
      px      :     0.939699
      py      :     1.089289
      dz2     :     0.008285  d :     0.048207
      dxz     :     0.012671
      dyz     :     0.009293
      dx2y2   :     0.012871
      dxy     :     0.005087
 20 H s       :     0.829815  s :     0.829815
 21 H s       :     0.827950  s :     0.827950
 22 H s       :     0.801178  s :     0.801178
 23 C s       :     3.259403  s :     3.259403
      pz      :     1.072667  p :     3.023169
      px      :     0.872715
      py      :     1.077787
      dz2     :     0.006258  d :     0.047901
      dxz     :     0.013300
      dyz     :     0.008312
      dx2y2   :     0.013415
      dxy     :     0.006617
 24 H s       :     0.830284  s :     0.830284
 25 H s       :     0.812902  s :     0.812902
 26 H s       :     0.829141  s :     0.829141
 27 O s       :     3.857379  s :     3.857379
      pz      :     1.776949  p :     4.610199
      px      :     1.288316
      py      :     1.544934
      dz2     :     0.003731  d :     0.027215
      dxz     :     0.004929
      dyz     :     0.003694
      dx2y2   :     0.005723
      dxy     :     0.009139
 28 C s       :     3.252127  s :     3.252127
      pz      :     1.032436  p :     2.908700
      px      :     0.798989
      py      :     1.077276
      dz2     :     0.010362  d :     0.059173
      dxz     :     0.013363
      dyz     :     0.010763
      dx2y2   :     0.008895
      dxy     :     0.015791
 29 H s       :     0.851773  s :     0.851773
 30 H s       :     0.836880  s :     0.836880
 31 H s       :     0.841715  s :     0.841715


                     *******************************
                     * LOEWDIN POPULATION ANALYSIS *
                     *******************************

----------------------
LOEWDIN ATOMIC CHARGES
----------------------
   0 C :   -0.392795
   1 H :    0.152416
   2 H :    0.159155
   3 H :    0.151703
   4 C :    0.118375
   5 O :   -0.330859
   6 N :   -0.070855
   7 C :   -0.177891
   8 H :    0.145483
   9 H :    0.159595
  10 C :   -0.176648
  11 H :    0.143240
  12 H :    0.144677
  13 C :   -0.113434
  14 H :    0.122968
  15 H :    0.126210
  16 C :    0.095926
  17 N :   -0.069189
  18 O :   -0.335563
  19 C :   -0.286498
  20 H :    0.132343
  21 H :    0.135809
  22 H :    0.150541
  23 C :   -0.280989
  24 H :    0.131108
  25 H :    0.148513
  26 H :    0.136128
  27 O :   -0.267094
  28 C :   -0.216906
  29 H :    0.115072
  30 H :    0.130449
  31 H :    0.119008

-------------------------------
LOEWDIN REDUCED ORBITAL CHARGES
-------------------------------
  0 C s       :     2.981391  s :     2.981391
      pz      :     1.125879  p :     3.348616
      px      :     1.134070
      py      :     1.088667
      dz2     :     0.003927  d :     0.062788
      dxz     :     0.015100
      dyz     :     0.019786
      dx2y2   :     0.012645
      dxy     :     0.011330
  1 H s       :     0.847584  s :     0.847584
  2 H s       :     0.840845  s :     0.840845
  3 H s       :     0.848297  s :     0.848297
  4 C s       :     2.850367  s :     2.850367
      pz      :     0.842545  p :     2.776846
      px      :     0.931599
      py      :     1.002702
      dz2     :     0.020484  d :     0.254411
      dxz     :     0.039124
      dyz     :     0.040137
      dx2y2   :     0.092569
      dxy     :     0.062097
  5 O s       :     3.564925  s :     3.564925
      pz      :     1.551299  p :     4.714370
      px      :     1.644715
      py      :     1.518355
      dz2     :     0.006301  d :     0.051564
      dxz     :     0.004175
      dyz     :     0.009087
      dx2y2   :     0.013510
      dxy     :     0.018491
  6 N s       :     3.094596  s :     3.094596
      pz      :     1.453585  p :     3.880949
      px      :     1.223143
      py      :     1.204221
      dz2     :     0.011324  d :     0.095310
      dxz     :     0.015577
      dyz     :     0.014526
      dx2y2   :     0.027673
      dxy     :     0.026210
  7 C s       :     2.931094  s :     2.931094
      pz      :     1.061620  p :     3.137068
      px      :     1.057518
      py      :     1.017930
      dz2     :     0.030318  d :     0.109729
      dxz     :     0.012624
      dyz     :     0.020484
      dx2y2   :     0.016091
      dxy     :     0.030212
  8 H s       :     0.854517  s :     0.854517
  9 H s       :     0.840405  s :     0.840405
 10 C s       :     2.930078  s :     2.930078
      pz      :     1.103483  p :     3.133595
      px      :     1.039129
      py      :     0.990983
      dz2     :     0.022066  d :     0.112975
      dxz     :     0.029574
      dyz     :     0.011128
      dx2y2   :     0.016457
      dxy     :     0.033750
 11 H s       :     0.856760  s :     0.856760
 12 H s       :     0.855323  s :     0.855323
 13 C s       :     2.936968  s :     2.936968
      pz      :     1.081885  p :     3.037045
      px      :     0.979268
      py      :     0.975892
      dz2     :     0.024240  d :     0.139421
      dxz     :     0.036642
      dyz     :     0.015219
      dx2y2   :     0.024809
      dxy     :     0.038510
 14 H s       :     0.877032  s :     0.877032
 15 H s       :     0.873790  s :     0.873790
 16 C s       :     2.854126  s :     2.854126
      pz      :     0.921196  p :     2.795310
      px      :     1.013967
      py      :     0.860146
      dz2     :     0.067651  d :     0.254638
      dxz     :     0.053002
      dyz     :     0.041430
      dx2y2   :     0.054363
      dxy     :     0.038192
 17 N s       :     3.090074  s :     3.090074
      pz      :     1.258031  p :     3.881246
      px      :     1.169274
      py      :     1.453942
      dz2     :     0.020711  d :     0.097868
      dxz     :     0.028319
      dyz     :     0.015903
      dx2y2   :     0.018373
      dxy     :     0.014563
 18 O s       :     3.565881  s :     3.565881
      pz      :     1.620525  p :     4.718060
[...]
     61      -0.000139   0.001032   0.017668   0.000271  -0.035367   0.090082
     62      -0.000152   0.001307   0.019569   0.000246  -0.038740   0.100198
     63      -0.000023   0.000060   0.000142  -0.000022  -0.001639   0.007482
     64       0.000746  -0.000756  -0.032308  -0.001246   0.078618  -0.188737
     65      -0.000255   0.000335   0.008458   0.000325  -0.022854   0.054358
     66      -0.000010  -0.002855   0.130143   0.004445  -0.304627   0.757703
     67      -0.000004   0.000563  -0.023382  -0.000901   0.051717  -0.127239
     68      -0.000018  -0.001642   0.074197   0.002494  -0.173020   0.429327
     69       0.000015  -0.000184   0.000420   0.000024  -0.049657  -0.019516
     70      -0.000159  -0.000152   0.000015   0.000029  -0.018896  -0.007379
     71      -0.000047  -0.000151  -0.000007  -0.000005   0.065219   0.026238
     72       0.000163   0.000826  -0.000660  -0.000034  -0.033500  -0.013282
     73       0.000490   0.002047  -0.001013  -0.000106  -0.085381  -0.035021
     74       0.000758   0.002589  -0.001732  -0.000149  -0.091997  -0.038334
     75      -0.000319   0.000890  -0.002835  -0.000219   0.613302   0.248774
     76      -0.000113   0.000171  -0.000330  -0.000017   0.090788   0.036259
     77       0.000318  -0.000989   0.002537   0.000189  -0.628919  -0.254263
     78       0.000069   0.000048  -0.000102  -0.000006   0.006069   0.003475
     79       0.001442  -0.000342   0.000843  -0.000236   0.227202   0.087319
     80      -0.000482   0.000153  -0.000341   0.000076  -0.066830  -0.025775
     81       0.000287   0.000163   0.000025   0.000015   0.000014  -0.000010
     82      -0.000066   0.000252   0.000009  -0.000010   0.000001  -0.000002
     83      -0.000127   0.000176   0.000010  -0.000013   0.000005  -0.000003
     84       0.043651  -0.006654  -0.000088  -0.000002  -0.000008   0.000011
     85       0.079522  -0.010512  -0.000083   0.000033   0.000027   0.000012
     86       0.006526  -0.003111  -0.000073   0.000048   0.000008  -0.000008
     87       0.084295  -0.008531   0.000101   0.000238   0.000132  -0.000002
     88      -0.111854   0.008440  -0.000178  -0.000226  -0.000229  -0.000043
     89       0.104457  -0.008674   0.000119   0.000125   0.000159   0.000030
     90      -0.553246   0.071558   0.000658   0.000160  -0.000020  -0.000131
     91      -0.756500   0.099029   0.000894   0.000092  -0.000065  -0.000154
     92       0.050419  -0.006811  -0.000059  -0.000011   0.000003   0.000012
     93      -0.045289   0.011290   0.000179  -0.000151  -0.000030   0.000025
     94      -0.071656   0.018336   0.000293  -0.000266  -0.000078   0.000038
     95      -0.232619   0.054275   0.000866  -0.000694  -0.000190   0.000077


-----------
IR SPECTRUM
-----------

 Mode   freq       eps      Int      T**2         TX        TY        TZ
       cm**-1   L/(mol*cm) km/mol    a.u.
----------------------------------------------------------------------------
  6:     28.78   0.000391    1.98  0.004245  (-0.003894  0.001430 -0.065020)
  7:     54.57   0.000945    4.78  0.005406  ( 0.053143  0.049480  0.011565)
  8:     60.44   0.001073    5.42  0.005541  ( 0.026706 -0.058816 -0.036999)
  9:     76.58   0.000585    2.96  0.002383  ( 0.006520  0.026506  0.040473)
 10:     85.40   0.000221    1.12  0.000807  (-0.019920  0.003109  0.020021)
 11:     89.51   0.000451    2.28  0.001571  (-0.026295  0.028898  0.006657)
 12:    103.18   0.003068   15.50  0.009278  (-0.048736  0.052134 -0.064692)
 13:    125.07   0.000997    5.04  0.002487  ( 0.030289 -0.026211  0.029702)
 14:    139.25   0.000753    3.81  0.001688  (-0.025715  0.031719  0.004499)
 15:    156.64   0.000048    0.24  0.000096  (-0.008442  0.003871  0.003162)
 16:    169.31   0.000123    0.62  0.000228  ( 0.003429 -0.007318 -0.012735)
 17:    178.63   0.000648    3.27  0.001132  ( 0.001493 -0.016665 -0.029188)
 18:    227.79   0.000240    1.22  0.000329  ( 0.005489  0.016023  0.006524)
 19:    246.55   0.001552    7.84  0.001964  ( 0.024714 -0.036789  0.000184)
 20:    274.19   0.001717    8.68  0.001954  ( 0.002991  0.042899  0.010255)
 21:    322.25   0.000807    4.08  0.000782  ( 0.019545  0.001342  0.019954)
 22:    366.87   0.004132   20.88  0.003515  (-0.003189  0.025938 -0.053214)
 23:    368.73   0.003358   16.97  0.002842  (-0.034767  0.011140 -0.038846)
 24:    386.67   0.001973    9.97  0.001592  ( 0.027155 -0.011344  0.026942)
 25:    429.97   0.000098    0.49  0.000071  ( 0.005946  0.000126  0.005957)
 26:    449.90   0.003407   17.22  0.002363  ( 0.013701  0.041803  0.020684)
 27:    467.88   0.001857    9.38  0.001238  ( 0.032352 -0.006423 -0.012264)
 28:    497.00   0.003394   17.15  0.002131  (-0.010311  0.035623  0.027496)
 29:    581.42   0.003564   18.01  0.001913  ( 0.036610 -0.012530  0.020383)
 30:    598.94   0.003186   16.10  0.001660  ( 0.035554 -0.001704  0.019824)
 31:    637.29   0.004140   20.92  0.002027  (-0.019095 -0.018736  0.036214)
 32:    703.77   0.000705    3.56  0.000313  ( 0.002375  0.013736 -0.010880)
 33:    764.10   0.002890   14.60  0.001180  ( 0.017687 -0.023392  0.017896)
 34:    791.61   0.003072   15.53  0.001211  ( 0.018090 -0.025904 -0.014591)
 35:    828.68   0.004978   25.16  0.001875  (-0.010656 -0.036293  0.021071)
 36:    949.78   0.004946   24.99  0.001625  (-0.000862  0.038337  0.012433)
 37:    966.00   0.001518    7.67  0.000490  ( 0.007544 -0.015285 -0.014131)
 38:   1003.93   0.006003   30.34  0.001866  ( 0.000128 -0.024562  0.035535)
 39:   1010.24   0.008886   44.91  0.002745  (-0.046854 -0.007584 -0.022185)
 40:   1043.05   0.000648    3.28  0.000194  ( 0.009124 -0.010453 -0.001207)
 41:   1061.03   0.001824    9.22  0.000537  ( 0.016851 -0.012529  0.009780)
 42:   1064.91   0.005951   30.07  0.001744  (-0.018307  0.008508  0.036555)
 43:   1090.10   0.002306   11.65  0.000660  ( 0.025445  0.003539 -0.000484)
 44:   1113.46   0.027553  139.24  0.007722  ( 0.075343  0.035453 -0.028083)
 45:   1135.72   0.000558    2.82  0.000153  (-0.011112  0.005059  0.002048)
 46:   1147.45   0.016674   84.26  0.004535  (-0.063364  0.021413 -0.007821)
 47:   1181.48   0.009109   46.03  0.002406  (-0.019560 -0.025576  0.037001)
 48:   1184.60   0.001260    6.37  0.000332  ( 0.006995  0.012258 -0.011523)
 49:   1195.78   0.021084  106.55  0.005502  (-0.054542 -0.018501  0.046745)
 50:   1225.22   0.008055   40.71  0.002052  (-0.034780 -0.020264 -0.020769)
 51:   1241.00   0.003026   15.29  0.000761  (-0.026787  0.003410 -0.005624)
 52:   1280.29   0.021503  108.67  0.005241  ( 0.057194 -0.018314 -0.040430)
 53:   1287.37   0.018354   92.75  0.004449  ( 0.060869 -0.020559  0.017927)
 54:   1309.01   0.004893   24.73  0.001166  ( 0.017774 -0.025117 -0.014821)
 55:   1346.56   0.005748   29.05  0.001332  (-0.035927  0.006221  0.001628)
 56:   1361.76   0.000874    4.42  0.000200  ( 0.000129  0.003856  0.013619)
 57:   1381.27   0.004327   21.87  0.000978  ( 0.024662  0.019005  0.002860)
 58:   1411.94   0.002959   14.95  0.000654  ( 0.003010  0.020313  0.015240)
 59:   1436.57   0.001206    6.09  0.000262  ( 0.015517 -0.004595 -0.000218)
 60:   1442.14   0.013713   69.30  0.002967  (-0.008526  0.028779 -0.045458)
 61:   1457.65   0.019212   97.09  0.004113  ( 0.042205 -0.035326  0.032921)
 62:   1472.05   0.048769  246.46  0.010339  (-0.096165 -0.004808  0.032678)
 63:   1484.93   0.003673   18.56  0.000772  (-0.013411 -0.024282 -0.001538)
 64:   1490.12   0.000838    4.24  0.000176  (-0.006335 -0.003431 -0.011121)
 65:   1496.78   0.000906    4.58  0.000189  ( 0.000353 -0.000326  0.013733)
 66:   1502.96   0.001143    5.78  0.000237  ( 0.001542  0.004907 -0.014525)
 67:   1505.09   0.001969    9.95  0.000408  ( 0.005309 -0.006221 -0.018476)
 68:   1507.73   0.004909   24.81  0.001016  ( 0.022854 -0.021673 -0.004899)
 69:   1510.70   0.001023    5.17  0.000211  (-0.014398  0.000548  0.001929)
 70:   1517.99   0.003435   17.36  0.000706  (-0.020392  0.012622  0.011444)
 71:   1519.10   0.005331   26.94  0.001095  (-0.022492 -0.024079  0.003065)
 72:   1525.77   0.001304    6.59  0.000267  (-0.002716  0.008561  0.013638)
 73:   1529.96   0.005873   29.68  0.001198  ( 0.016763  0.029439 -0.007088)
 74:   1532.39   0.005046   25.50  0.001028  ( 0.004137 -0.008565 -0.030612)
 75:   1556.21   0.016298   82.36  0.003268  ( 0.030964 -0.022287  0.042576)
 76:   1709.74   0.171880  868.61  0.031372  (-0.126029 -0.106909  0.063709)
 77:   1714.44   0.047120  238.12  0.008577  (-0.018394  0.003726  0.090689)
 78:   3010.49   0.012682   64.09  0.001315  (-0.032499  0.014846  0.006164)
 79:   3033.73   0.005848   29.55  0.000602  ( 0.020045  0.002210 -0.013960)
 80:   3039.04   0.018322   92.59  0.001881  (-0.012445  0.005639 -0.041167)
 81:   3050.82   0.011543   58.33  0.001181  ( 0.000405  0.022181 -0.026239)
 82:   3065.84   0.000544    2.75  0.000055  (-0.000597  0.005671  0.004779)
 83:   3067.82   0.010239   51.74  0.001041  (-0.011029  0.004004 -0.030064)
 84:   3084.99   0.005441   27.50  0.000550  ( 0.007296 -0.004808 -0.021773)
 85:   3094.00   0.017514   88.51  0.001766  ( 0.002833  0.040583 -0.010558)
 86:   3094.39   0.002638   13.33  0.000266  (-0.002068  0.000249  0.016177)
 87:   3101.53   0.004380   22.13  0.000441  (-0.006128 -0.019265  0.005656)
 88:   3102.27   0.009160   46.29  0.000921  ( 0.017545 -0.018798 -0.016132)
 89:   3132.12   0.002022   10.22  0.000201  ( 0.003326 -0.000851  0.013772)
 90:   3137.23   0.008665   43.79  0.000862  ( 0.017922  0.023243  0.000688)
 91:   3144.37   0.007730   39.06  0.000767  ( 0.017187 -0.019678 -0.009194)
 92:   3166.93   0.001538    7.77  0.000152  (-0.009045  0.007301 -0.004055)
 93:   3172.42   0.002423   12.24  0.000238  ( 0.013816  0.006178 -0.003044)
 94:   3192.50   0.001079    5.45  0.000105  (-0.008948  0.003236  0.003862)
 95:   3194.39   0.000380    1.92  0.000037  (-0.000797 -0.006041  0.000092)

* The epsilon (eps) is given for a Dirac delta lineshape.
** The dipole moment derivative (T) already includes vibrational overlap.

The first frequency considered to be a vibration is 6
The total number of vibrations considered is 90


--------------------------
THERMOCHEMISTRY AT 298.15K
--------------------------

Temperature         ... 298.15 K
Pressure            ... 1.00 atm
Total Mass          ... 202.25 AMU

Throughout the following assumptions are being made:
  (1) The electronic state is orbitally nondegenerate
  (2) There are no thermally accessible electronically excited states
  (3) Hindered rotations indicated by low frequency modes are not
      treated as such but are treated as vibrations and this may
      cause some error
  (4) All equations used are the standard statistical mechanics
      equations for an ideal gas
  (5) All vibrations are strictly harmonic

freq.      28.78  E(vib)   ...       0.55 
freq.      54.57  E(vib)   ...       0.52 
freq.      60.44  E(vib)   ...       0.51 
freq.      76.58  E(vib)   ...       0.49 
freq.      85.40  E(vib)   ...       0.48 
freq.      89.51  E(vib)   ...       0.47 
freq.     103.18  E(vib)   ...       0.46 
freq.     125.07  E(vib)   ...       0.43 
freq.     139.25  E(vib)   ...       0.42 
freq.     156.64  E(vib)   ...       0.40 
freq.     169.31  E(vib)   ...       0.38 
freq.     178.63  E(vib)   ...       0.37 
freq.     227.79  E(vib)   ...       0.33 
freq.     246.55  E(vib)   ...       0.31 
freq.     274.19  E(vib)   ...       0.28 
freq.     322.25  E(vib)   ...       0.25 
freq.     366.87  E(vib)   ...       0.22 
freq.     368.73  E(vib)   ...       0.21 
freq.     386.67  E(vib)   ...       0.20 
freq.     429.97  E(vib)   ...       0.18 
freq.     449.90  E(vib)   ...       0.17 
freq.     467.88  E(vib)   ...       0.16 
freq.     497.00  E(vib)   ...       0.14 
freq.     581.42  E(vib)   ...       0.11 
freq.     598.94  E(vib)   ...       0.10 
freq.     637.29  E(vib)   ...       0.09 
freq.     703.77  E(vib)   ...       0.07 
freq.     764.10  E(vib)   ...       0.06 
freq.     791.61  E(vib)   ...       0.05 
freq.     828.68  E(vib)   ...       0.04 
freq.     949.78  E(vib)   ...       0.03 
freq.     966.00  E(vib)   ...       0.03 
freq.    1003.93  E(vib)   ...       0.02 
freq.    1010.24  E(vib)   ...       0.02 
freq.    1043.05  E(vib)   ...       0.02 
freq.    1061.03  E(vib)   ...       0.02 
freq.    1064.91  E(vib)   ...       0.02 
freq.    1090.10  E(vib)   ...       0.02 
freq.    1113.46  E(vib)   ...       0.01 
freq.    1135.72  E(vib)   ...       0.01 
freq.    1147.45  E(vib)   ...       0.01 
freq.    1181.48  E(vib)   ...       0.01 
freq.    1184.60  E(vib)   ...       0.01 
freq.    1195.78  E(vib)   ...       0.01 
freq.    1225.22  E(vib)   ...       0.01 
freq.    1241.00  E(vib)   ...       0.01 
freq.    1280.29  E(vib)   ...       0.01 
freq.    1287.37  E(vib)   ...       0.01 
freq.    1309.01  E(vib)   ...       0.01 
freq.    1346.56  E(vib)   ...       0.01 
freq.    1361.76  E(vib)   ...       0.01 
freq.    1381.27  E(vib)   ...       0.01 
freq.    1411.94  E(vib)   ...       0.00 
freq.    1436.57  E(vib)   ...       0.00 
freq.    1442.14  E(vib)   ...       0.00 
freq.    1457.65  E(vib)   ...       0.00 
freq.    1472.05  E(vib)   ...       0.00 
freq.    1484.93  E(vib)   ...       0.00 
freq.    1490.12  E(vib)   ...       0.00 
freq.    1496.78  E(vib)   ...       0.00 
freq.    1502.96  E(vib)   ...       0.00 
freq.    1505.09  E(vib)   ...       0.00 
freq.    1507.73  E(vib)   ...       0.00 
freq.    1510.70  E(vib)   ...       0.00 
freq.    1517.99  E(vib)   ...       0.00 
freq.    1519.10  E(vib)   ...       0.00 
freq.    1525.77  E(vib)   ...       0.00 
freq.    1529.96  E(vib)   ...       0.00 
freq.    1532.39  E(vib)   ...       0.00 
freq.    1556.21  E(vib)   ...       0.00 
freq.    1709.74  E(vib)   ...       0.00 
freq.    1714.44  E(vib)   ...       0.00 
freq.    3010.49  E(vib)   ...       0.00 
freq.    3033.73  E(vib)   ...       0.00 
freq.    3039.04  E(vib)   ...       0.00 
freq.    3050.82  E(vib)   ...       0.00 
freq.    3065.84  E(vib)   ...       0.00 
freq.    3067.82  E(vib)   ...       0.00 
freq.    3084.99  E(vib)   ...       0.00 
freq.    3094.00  E(vib)   ...       0.00 
freq.    3094.39  E(vib)   ...       0.00 
freq.    3101.53  E(vib)   ...       0.00 
freq.    3102.27  E(vib)   ...       0.00 
freq.    3132.12  E(vib)   ...       0.00 
freq.    3137.23  E(vib)   ...       0.00 
freq.    3144.37  E(vib)   ...       0.00 
freq.    3166.93  E(vib)   ...       0.00 
freq.    3172.42  E(vib)   ...       0.00 
freq.    3192.50  E(vib)   ...       0.00 
freq.    3194.39  E(vib)   ...       0.00 

------------
INNER ENERGY
------------

The inner energy is: U= E(el) + E(ZPE) + E(vib) + E(rot) + E(trans)
    E(el)   - is the total energy from the electronic structure calculation
              = E(kin-el) + E(nuc-el) + E(el-el) + E(nuc-nuc)
    E(ZPE)  - the the zero temperature vibrational energy from the frequency calculation
    E(vib)  - the the finite temperature correction to E(ZPE) due to population
              of excited vibrational states
    E(rot)  - is the rotational thermal energy
    E(trans)- is the translational thermal energy

Summary of contributions to the inner energy U:
Electronic energy                ...   -688.62138827 Eh
Zero point energy                ...      0.27793675 Eh     174.41 kcal/mol
Thermal vibrational correction   ...      0.01401801 Eh       8.80 kcal/mol
Thermal rotational correction    ...      0.00141627 Eh       0.89 kcal/mol
Thermal translational correction ...      0.00141627 Eh       0.89 kcal/mol
-----------------------------------------------------------------------
Total thermal energy                   -688.32660095 Eh


Summary of corrections to the electronic energy:
(perhaps to be used in another calculation)
Total thermal correction                  0.01685056 Eh      10.57 kcal/mol
Non-thermal (ZPE) correction              0.27793675 Eh     174.41 kcal/mol
-----------------------------------------------------------------------
Total correction                          0.29478731 Eh     184.98 kcal/mol


--------
ENTHALPY
--------

The enthalpy is H = U + kB*T
                kB is Boltzmann's constant
Total free energy                 ...   -688.32660095 Eh 
Thermal Enthalpy correction       ...      0.00094421 Eh       0.59 kcal/mol
-----------------------------------------------------------------------
Total Enthalpy                    ...   -688.32565674 Eh


Note: Only C1 symmetry has been detected, increase convergence thresholds 
      if your molecule has a higher symmetry. Symmetry factor of 1.0 is   
      used for the rotational entropy correction. 
 

Note: Rotational entropy computed according to Herzberg 
Infrared and Raman Spectra, Chapter V,1, Van Nostrand Reinhold, 1945 
Point Group:  C1, Symmetry Number:   1  
Rotational constants in cm-1:     0.023807     0.020098     0.013575 

Vibrational entropy computed according to the QRRHO of S. Grimme
Chem.Eur.J. 2012 18 9955


-------
ENTROPY
-------

The entropy contributions are T*S = T*(S(el)+S(vib)+S(rot)+S(trans))
     S(el)   - electronic entropy
     S(vib)  - vibrational entropy
     S(rot)  - rotational entropy
     S(trans)- translational entropy
The entropies will be listed as multiplied by the temperature to get
units of energy

Electronic entropy                ...      0.00000000 Eh      0.00 kcal/mol
Vibrational entropy               ...      0.02547912 Eh     15.99 kcal/mol
Rotational entropy                ...      0.01514966 Eh      9.51 kcal/mol
Translational entropy             ...      0.01986880 Eh     12.47 kcal/mol
-----------------------------------------------------------------------
Final entropy term                ...      0.06049758 Eh     37.96 kcal/mol

In case the symmetry of your molecule has not been determined correctly
or in case you have a reason to use a different symmetry number we print 
out the resulting rotational entropy values for sn=1,12 :
 --------------------------------------------------------
|  sn= 1 | S(rot)=       0.01514966 Eh      9.51 kcal/mol|
|  sn= 2 | S(rot)=       0.01449520 Eh      9.10 kcal/mol|
|  sn= 3 | S(rot)=       0.01411237 Eh      8.86 kcal/mol|
|  sn= 4 | S(rot)=       0.01384075 Eh      8.69 kcal/mol|
|  sn= 5 | S(rot)=       0.01363006 Eh      8.55 kcal/mol|
|  sn= 6 | S(rot)=       0.01345792 Eh      8.44 kcal/mol|
|  sn= 7 | S(rot)=       0.01331237 Eh      8.35 kcal/mol|
|  sn= 8 | S(rot)=       0.01318629 Eh      8.27 kcal/mol|
|  sn= 9 | S(rot)=       0.01307508 Eh      8.20 kcal/mol|
|  sn=10 | S(rot)=       0.01297560 Eh      8.14 kcal/mol|
|  sn=11 | S(rot)=       0.01288561 Eh      8.09 kcal/mol|
|  sn=12 | S(rot)=       0.01280346 Eh      8.03 kcal/mol|
 --------------------------------------------------------


-------------------
GIBBS FREE ENERGY
-------------------

The Gibbs free energy is G = H - T*S

Total enthalpy                    ...   -688.32565674 Eh 
Total entropy correction          ...     -0.06049758 Eh    -37.96 kcal/mol
-----------------------------------------------------------------------
Final Gibbs free energy         ...   -688.38615432 Eh

For completeness - the Gibbs free energy minus the electronic energy
G-E(el)                           ...      0.23523394 Eh    147.61 kcal/mol


Timings for individual modules:

Sum of individual times         ...     1315.037 sec (=  21.917 min)
GTO integral calculation        ...       13.604 sec (=   0.227 min)   1.0 %
SCF iterations                  ...      535.075 sec (=   8.918 min)  40.7 %
SCF Gradient evaluation         ...      158.461 sec (=   2.641 min)  12.0 %
Geometry relaxation             ...        0.942 sec (=   0.016 min)   0.1 %
Analytical frequency calculation...      606.956 sec (=  10.116 min)  46.2 %
                             ****ORCA TERMINATED NORMALLY****
TOTAL RUN TIME: 0 days 0 hours 21 minutes 58 seconds 949 msec
