
                                 *****************
                                 * O   R   C   A *
                                 *****************

                                            #,                                       
                                            ###                                      
                                            ####                                     
                                            #####                                    
                                            ######                                   
                                           ########,                                 
                                     ,,################,,,,,                         
                               ,,#################################,,                 
                          ,,##########################################,,             
                       ,#########################################, ''#####,          
                    ,#############################################,,   '####,        
                  ,##################################################,,,,####,       
                ,###########''''           ''''###############################       
              ,#####''   ,,,,##########,,,,          '''####'''          '####       
            ,##' ,,,,###########################,,,                        '##       
           ' ,,###''''                  '''############,,,                           
         ,,##''                                '''############,,,,        ,,,,,,###''
      ,#''                                            '''#######################'''  
     '                                                          ''''####''''         
             ,#######,   #######,   ,#######,      ##                                
            ,#'     '#,  ##    ##  ,#'     '#,    #''#        ######   ,####,        
            ##       ##  ##   ,#'  ##            #'  '#       #        #'  '#        
            ##       ##  #######   ##           ,######,      #####,   #    #        
            '#,     ,#'  ##    ##  '#,     ,#' ,#      #,         ##   #,  ,#        
             '#######'   ##     ##  '#######'  #'      '#     #####' # '####'        



                  #######################################################
                  #                        -***-                        #
                  #          Department of theory and spectroscopy      #
                  #    Directorship and core code : Frank Neese         #
                  #        Max Planck Institute fuer Kohlenforschung    #
                  #                Kaiser Wilhelm Platz 1               #
                  #                 D-45470 Muelheim/Ruhr               #
                  #                      Germany                        #
                  #                                                     #
                  #                  All rights reserved                #
                  #                        -***-                        #
                  #######################################################


                         Program Version 5.0.4 -  RELEASE  -


 With contributions from (in alphabetic order):
   Daniel Aravena         : Magnetic Suceptibility
   Michael Atanasov       : Ab Initio Ligand Field Theory (pilot matlab implementation)
   Alexander A. Auer      : GIAO ZORA, VPT2 properties, NMR spectrum
   Ute Becker             : Parallelization
   Giovanni Bistoni       : ED, misc. LED, open-shell LED, HFLD
   Martin Brehm           : Molecular dynamics
   Dmytro Bykov           : SCF Hessian
   Vijay G. Chilkuri      : MRCI spin determinant printing, contributions to CSF-ICE
   Dipayan Datta          : RHF DLPNO-CCSD density
   Achintya Kumar Dutta   : EOM-CC, STEOM-CC
   Dmitry Ganyushin       : Spin-Orbit,Spin-Spin,Magnetic field MRCI
   Miquel Garcia          : C-PCM and meta-GGA Hessian, CC/C-PCM, Gaussian charge scheme
   Yang Guo               : DLPNO-NEVPT2, F12-NEVPT2, CIM, IAO-localization
   Andreas Hansen         : Spin unrestricted coupled pair/coupled cluster methods
   Benjamin Helmich-Paris : MC-RPA, TRAH-SCF, COSX integrals
   Lee Huntington         : MR-EOM, pCC
   Robert Izsak           : Overlap fitted RIJCOSX, COSX-SCS-MP3, EOM
   Marcus Kettner         : VPT2
   Christian Kollmar      : KDIIS, OOCD, Brueckner-CCSD(T), CCSD density, CASPT2, CASPT2-K
   Simone Kossmann        : Meta GGA functionals, TD-DFT gradient, OOMP2, MP2 Hessian
   Martin Krupicka        : Initial AUTO-CI
   Lucas Lang             : DCDCAS
   Marvin Lechner         : AUTO-CI (C++ implementation), FIC-MRCC
   Dagmar Lenk            : GEPOL surface, SMD
   Dimitrios Liakos       : Extrapolation schemes; Compound Job, initial MDCI parallelization
   Dimitrios Manganas     : Further ROCIS development; embedding schemes
   Dimitrios Pantazis     : SARC Basis sets
   Anastasios Papadopoulos: AUTO-CI, single reference methods and gradients
   Taras Petrenko         : DFT Hessian,TD-DFT gradient, ASA, ECA, R-Raman, ABS, FL, XAS/XES, NRVS
   Peter Pinski           : DLPNO-MP2, DLPNO-MP2 Gradient
   Christoph Reimann      : Effective Core Potentials
   Marius Retegan         : Local ZFS, SOC
   Christoph Riplinger    : Optimizer, TS searches, QM/MM, DLPNO-CCSD(T), (RO)-DLPNO pert. Triples
   Tobias Risthaus        : Range-separated hybrids, TD-DFT gradient, RPA, STAB
   Michael Roemelt        : Original ROCIS implementation
   Masaaki Saitow         : Open-shell DLPNO-CCSD energy and density
   Barbara Sandhoefer     : DKH picture change effects
   Avijit Sen             : IP-ROCIS
   Kantharuban Sivalingam : CASSCF convergence, NEVPT2, FIC-MRCI
   Bernardo de Souza      : ESD, SOC TD-DFT
   Georgi Stoychev        : AutoAux, RI-MP2 NMR, DLPNO-MP2 response
   Willem Van den Heuvel  : Paramagnetic NMR
   Boris Wezisla          : Elementary symmetry handling
   Frank Wennmohs         : Technical directorship


 We gratefully acknowledge several colleagues who have allowed us to
 interface, adapt or use parts of their codes:
   Stefan Grimme, W. Hujo, H. Kruse, P. Pracht,  : VdW corrections, initial TS optimization,
                  C. Bannwarth, S. Ehlert          DFT functionals, gCP, sTDA/sTD-DF
   Ed Valeev, F. Pavosevic, A. Kumar             : LibInt (2-el integral package), F12 methods
   Garnet Chan, S. Sharma, J. Yang, R. Olivares  : DMRG
   Ulf Ekstrom                                   : XCFun DFT Library
   Mihaly Kallay                                 : mrcc  (arbitrary order and MRCC methods)
   Jiri Pittner, Ondrej Demel                    : Mk-CCSD
   Frank Weinhold                                : gennbo (NPA and NBO analysis)
   Christopher J. Cramer and Donald G. Truhlar   : smd solvation model
   Lars Goerigk                                  : TD-DFT with DH, B97 family of functionals
   V. Asgeirsson, H. Jonsson                     : NEB implementation
   FAccTs GmbH                                   : IRC, NEB, NEB-TS, DLPNO-Multilevel, CI-OPT
                                                   MM, QMMM, 2- and 3-layer-ONIOM, Crystal-QMMM,
                                                   LR-CPCM, SF, NACMEs, symmetry and pop. for TD-DFT,
                                                   nearIR, NL-DFT gradient (VV10), updates on ESD,
                                                   ML-optimized integration grids
   S Lehtola, MJT Oliveira, MAL Marques          : LibXC Library
   Liviu Ungur et al                             : ANISO software


 Your calculation uses the libint2 library for the computation of 2-el integrals
 For citations please refer to: http://libint.valeyev.net

 Your ORCA version has been built with support for libXC version: 5.1.0
 For citations please refer to: https://tddft.org/programs/libxc/

 This ORCA versions uses:
   CBLAS   interface :  Fast vector & matrix operations
   LAPACKE interface :  Fast linear algebra routines
   SCALAPACK package :  Parallel linear algebra routines
   Shared memory     :  Shared parallel matrices
   BLAS/LAPACK       :  OpenBLAS 0.3.15  USE64BITINT DYNAMIC_ARCH NO_AFFINITY SkylakeX SINGLE_THREADED
        Core in use  :  SkylakeX
   Copyright (c) 2011-2014, The OpenBLAS Project




***************************************
The coordinates will be read from file: /users/fjb15167/WWenergy/structures/Nn.xyz
***************************************


Your calculation utilizes the atom-pairwise dispersion correction
based on tight binding partial charges (D4)
Cite in your paper:
E.Caldeweyher, C.Bannwarth, S.Grimme, J.Chem.Phys., (2017), 147, 034112.
E.Caldeweyher, S.Ehlert, A.Hansen, H.Neugebauer, S.Grimme, J.Chem.Phys., (2018), in progress.
   

================================================================================

----- Orbital basis set information -----
Your calculation utilizes the basis: 6-31G(d)
   H-He, Li-Ne : W. J. Hehre, R. Ditchfield and J.A. Pople, J. Chem. Phys. 56, 2257 (1972).
                 Note: He and Ne are unpublished basis sets taken from the Gaussian program.
                 Note: Li and B from J. D. Dill and J. A. Pople, J. Chem. Phys. 62, 2921 (1975).
   Na - Ar     : M. M. Francl, W. J. Pietro, W. J. Hehre, J. S. Binkley, M. S. Gordon, 
                 D. J. DeFrees and J. A. Pople, J. Chem. Phys. 77, 3654 (1982).
   K - Zn      : V. A. Rassolov, J. A. Pople, M. A. Ratner, and T. L. Windus, J. Chem. Phys. 109, 1223 (1998).

----- AuxJ basis set information -----
Your calculation utilizes the AutoAux generation procedure.
  G. L. Stoychev, A. A. Auer, F. Neese, J. Chem. Theory Comput. 13, 554 (2017)

----- AuxC basis set information -----
Your calculation utilizes the AutoAux generation procedure.
  G. L. Stoychev, A. A. Auer, F. Neese, J. Chem. Theory Comput. 13, 554 (2017)

----- AuxJK basis set information -----
Your calculation utilizes the AutoAux generation procedure.
  G. L. Stoychev, A. A. Auer, F. Neese, J. Chem. Theory Comput. 13, 554 (2017)

================================================================================
                                        WARNINGS
                       Please study these warnings very carefully!
================================================================================


WARNING: Geometry Optimization
  ===> : Switching off AutoStart
         For restart on a previous wavefunction, please use MOREAD

INFO   : the flag for use of the SHARK integral package has been found!

================================================================================
                                       INPUT FILE
================================================================================
NAME = Nn_octanol.inp
|  1> ! OPT FREQ B3LYP 6-31G(d) D4 AUTOAUX
|  2> ! CPCM
|  3> 
|  4> %cpcm
|  5> epsilon 9.8629 
|  6> refrac  1.4295 
|  7> end
|  8> 
|  9> %PAL NPROCS 4 END
| 10> 
| 11> %maxcore 3375
| 12> 
| 13> *xyzfile 0 1 /users/fjb15167/WWenergy/structures/Nn.xyz
| 14> 
| 15>                          ****END OF INPUT****
================================================================================

                       *****************************
                       * Geometry Optimization Run *
                       *****************************

Geometry optimization settings:
Update method            Update   .... BFGS
Choice of coordinates    CoordSys .... Z-matrix Internals
Initial Hessian          InHess   .... Almoef's Model

Convergence Tolerances:
Energy Change            TolE     ....  5.0000e-06 Eh
Max. Gradient            TolMAXG  ....  3.0000e-04 Eh/bohr
RMS Gradient             TolRMSG  ....  1.0000e-04 Eh/bohr
Max. Displacement        TolMAXD  ....  4.0000e-03 bohr
RMS Displacement         TolRMSD  ....  2.0000e-03 bohr
Strict Convergence                ....  False
------------------------------------------------------------------------------
                        ORCA OPTIMIZATION COORDINATE SETUP
------------------------------------------------------------------------------

The optimization will be done in new redundant internal coordinates
Making redundant internal coordinates   ...  (new redundants) done
Evaluating the initial hessian          ...  (Almloef) done
Evaluating the coordinates              ...  done
Calculating the B-matrix                .... done
Calculating the G-matrix                .... done
Diagonalizing the G-matrix              .... done
Small eigenvalue found = 7.663e-03
Small eigenvalue found = 1.051e-02
Small eigenvalue found = 1.356e-02
Small eigenvalue found = 2.212e-02
The first mode is                       ....   49
The number of degrees of freedom        ....   81

    -----------------------------------------------------------------
                    Redundant Internal Coordinates


    -----------------------------------------------------------------
         Definition                    Initial Value    Approx d2E/dq
    -----------------------------------------------------------------
      1. B(O   4,C   0)                  1.2123         1.074944   
      2. B(C   5,H   3)                  1.0923         0.357111   
      3. B(C   5,C   0)                  1.5307         0.372668   
      4. B(C   5,H   1)                  1.0944         0.354303   
      5. B(C   5,H   2)                  1.0898         0.360410   
      6. B(N   6,C   0)                  1.3883         0.563001   
      7. B(C   7,N   6)                  1.4478         0.452500   
      8. B(H   8,C   7)                  1.0932         0.355951   
      9. B(H   9,C   7)                  1.1002         0.346830   
     10. B(C  10,N   6)                  1.4422         0.461939   
     11. B(H  11,C  10)                  1.0931         0.356042   
     12. B(H  12,C  10)                  1.0936         0.355369   
     13. B(C  13,C  10)                  1.5297         0.373954   
     14. B(O  14,C  13)                  1.2300         1.007163   
     15. B(N  15,C  13)                  1.3664         0.610277   
     16. B(H  16,N  15)                  1.0106         0.431683   
     17. B(H  17,N  15)                  1.0117         0.430036   
     18. B(C  18,C   7)                  1.5270         0.377698   
     19. B(O  19,C  18)                  1.2381         0.977740   
     20. B(N  20,C  18)                  1.3688         0.604927   
     21. B(C  21,N  20)                  1.4532         0.443691   
     22. B(H  22,C  21)                  1.0878         0.363068   
     23. B(H  23,C  21)                  1.0982         0.349458   
     24. B(H  24,C  21)                  1.0002         0.500754   
     25. B(C  25,N  20)                  1.4546         0.441397   
     26. B(H  26,C  25)                  1.0953         0.353191   
     27. B(H  27,C  25)                  1.0965         0.351548   
     28. B(H  28,C  25)                  1.0882         0.362523   
     29. A(O   4,C   0,C   5)          121.5897         0.434439   
     30. A(O   4,C   0,N   6)          123.0155         0.465131   
     31. A(C   5,C   0,N   6)          115.3779         0.387399   
     32. A(C   0,C   5,H   2)          106.5162         0.324235   
     33. A(C   0,C   5,H   1)          112.0941         0.323327   
     34. A(C   0,C   5,H   3)          110.9801         0.323746   
     35. A(H   2,C   5,H   3)          109.2257         0.290498   
     36. A(H   1,C   5,H   2)          109.0088         0.290139   
     37. A(H   1,C   5,H   3)          108.9446         0.289720   
     38. A(C   7,N   6,C  10)          116.4684         0.384693   
     39. A(C   0,N   6,C  10)          123.4762         0.399684   
     40. A(C   0,N   6,C   7)          116.1251         0.398235   
     41. A(H   9,C   7,C  18)          110.3413         0.322908   
     42. A(H   8,C   7,C  18)          111.1868         0.324286   
     43. A(N   6,C   7,C  18)          112.0357         0.373865   
     44. A(H   8,C   7,H   9)          107.3013         0.288607   
     45. A(N   6,C   7,H   9)          110.0568         0.330667   
     46. A(N   6,C   7,H   8)          105.7231         0.332091   
     47. A(H  12,C  10,C  13)          111.4143         0.323669   
     48. A(H  11,C  10,C  13)          108.6850         0.323770   
     49. A(N   6,C  10,C  13)          112.1168         0.374554   
     50. A(H  11,C  10,H  12)          106.1240         0.289721   
     51. A(N   6,C  10,H  12)          107.8558         0.333140   
     52. A(N   6,C  10,H  11)          110.4823         0.333244   
     53. A(O  14,C  13,N  15)          123.0460         0.466453   
     54. A(C  10,C  13,N  15)          114.2599         0.393132   
     55. A(C  10,C  13,O  14)          122.6191         0.429649   
     56. A(H  16,N  15,H  17)          117.7331         0.302842   
     57. A(C  13,N  15,H  17)          117.3144         0.357329   
     58. A(C  13,N  15,H  16)          121.1792         0.357561   
     59. A(C   7,C  18,O  19)          121.6173         0.428135   
     60. A(O  19,C  18,N  20)          122.3482         0.463182   
     61. A(C   7,C  18,N  20)          116.0321         0.393212   
     62. A(C  21,N  20,C  25)          115.5050         0.380365   
     63. A(C  18,N  20,C  25)          118.8280         0.401541   
     64. A(C  18,N  20,C  21)          124.8878         0.401908   
     65. A(H  23,C  21,H  24)          109.2174         0.305008   
     66. A(H  22,C  21,H  24)          109.2441         0.306884   
     67. A(N  20,C  21,H  24)          106.7002         0.350450   
     68. A(H  22,C  21,H  23)          108.9063         0.289846   
     69. A(N  20,C  21,H  23)          111.3673         0.330006   
     70. A(N  20,C  21,H  22)          111.3504         0.332099   
     71. A(H  27,C  25,H  28)          109.5816         0.290049   
     72. A(H  26,C  25,H  28)          109.8674         0.290262   
     73. A(N  20,C  25,H  28)          108.2735         0.331731   
     74. A(H  26,C  25,H  27)          108.7085         0.288866   
     75. A(N  20,C  25,H  27)          110.7236         0.330048   
     76. A(N  20,C  25,H  26)          109.6785         0.330303   
     77. D(H   2,C   5,C   0,N   6)   -177.4259         0.010390   
     78. D(H   3,C   5,C   0,O   4)   -117.6670         0.010390   
     79. D(H   1,C   5,C   0,N   6)    -58.2807         0.010390   
     80. D(H   3,C   5,C   0,N   6)     63.7871         0.010390   
     81. D(H   2,C   5,C   0,O   4)      1.1199         0.010390   
     82. D(H   1,C   5,C   0,O   4)    120.2651         0.010390   
     83. D(C   7,N   6,C   0,C   5)   -170.3348         0.025330   
     84. D(C   7,N   6,C   0,O   4)     11.1425         0.025330   
     85. D(C  10,N   6,C   0,C   5)    -13.4865         0.025330   
     86. D(C  10,N   6,C   0,O   4)    167.9907         0.025330   
     87. D(H   9,C   7,N   6,C  10)    -52.7827         0.017470   
     88. D(H   9,C   7,N   6,C   0)    105.7268         0.017470   
     89. D(H   8,C   7,N   6,C  10)   -168.3573         0.017470   
     90. D(C  18,C   7,N   6,C   0)   -131.1126         0.017470   
     91. D(C  18,C   7,N   6,C  10)     70.3780         0.017470   
     92. D(H   8,C   7,N   6,C   0)     -9.8479         0.017470   
     93. D(C  13,C  10,N   6,C   7)     77.1206         0.018218   
     94. D(C  13,C  10,N   6,C   0)    -79.6549         0.018218   
     95. D(H  12,C  10,N   6,C   7)    -45.9020         0.018218   
     96. D(H  11,C  10,N   6,C   7)   -161.4833         0.018218   
     97. D(H  11,C  10,N   6,C   0)     41.7411         0.018218   
     98. D(H  12,C  10,N   6,C   0)    157.3225         0.018218   
     99. D(N  15,C  13,C  10,H  12)    -46.7341         0.010457   
    100. D(N  15,C  13,C  10,H  11)     69.8520         0.010457   
    101. D(N  15,C  13,C  10,N   6)   -167.7250         0.010457   
    102. D(O  14,C  13,C  10,H  12)    136.3283         0.010457   
    103. D(O  14,C  13,C  10,H  11)   -107.0857         0.010457   
    104. D(O  14,C  13,C  10,N   6)     15.3373         0.010457   
    105. D(H  17,N  15,C  13,C  10)    175.0431         0.030085   
    106. D(H  16,N  15,C  13,O  14)   -165.6570         0.030085   
    107. D(H  16,N  15,C  13,C  10)     17.4201         0.030085   
    108. D(H  17,N  15,C  13,O  14)     -8.0340         0.030085   
    109. D(N  20,C  18,C   7,H   9)    -63.5868         0.010653   
    110. D(N  20,C  18,C   7,H   8)     55.3515         0.010653   
    111. D(N  20,C  18,C   7,N   6)    173.4132         0.010653   
    112. D(O  19,C  18,C   7,H   9)    115.8618         0.010653   
    113. D(O  19,C  18,C   7,H   8)   -125.1998         0.010653   
    114. D(O  19,C  18,C   7,N   6)     -7.1382         0.010653   
    115. D(C  25,N  20,C  18,O  19)     -4.5256         0.029521   
    116. D(C  25,N  20,C  18,C   7)    174.9186         0.029521   
    117. D(C  21,N  20,C  18,O  19)   -173.9385         0.029521   
    118. D(C  21,N  20,C  18,C   7)      5.5057         0.029521   
    119. D(H  24,C  21,N  20,C  25)     47.5549         0.016789   
    120. D(H  24,C  21,N  20,C  18)   -142.7182         0.016789   
    121. D(H  23,C  21,N  20,C  25)    -71.5488         0.016789   
    122. D(H  23,C  21,N  20,C  18)     98.1781         0.016789   
    123. D(H  22,C  21,N  20,C  25)    166.6813         0.016789   
    124. D(H  22,C  21,N  20,C  18)    -23.5918         0.016789   
    125. D(H  28,C  25,N  20,C  21)   -179.0934         0.016614   
    126. D(H  28,C  25,N  20,C  18)     10.5190         0.016614   
    127. D(H  27,C  25,N  20,C  21)     60.7547         0.016614   
    128. D(H  27,C  25,N  20,C  18)   -109.6329         0.016614   
    129. D(H  26,C  25,N  20,C  21)    -59.2135         0.016614   
    130. D(H  26,C  25,N  20,C  18)    130.3989         0.016614   
    -----------------------------------------------------------------

Number of atoms                         .... 29
Number of degrees of freedom            .... 130

         *************************************************************
         *                GEOMETRY OPTIMIZATION CYCLE   1            *
         *************************************************************
---------------------------------
CARTESIAN COORDINATES (ANGSTROEM)
---------------------------------
  C      1.539000   -1.736000   -0.689000
  H      2.847000   -0.883000   -2.226000
  H      3.392000   -2.397000   -1.469000
  H      3.528000   -0.861000   -0.582000
  O      1.169000   -2.873000   -0.489000
  C      2.917000   -1.434000   -1.283000
  N      0.746000   -0.626000   -0.431000
  C     -0.464000   -0.869000    0.326000
  H     -0.567000   -1.956000    0.379000
  H     -0.345000   -0.501000    1.356000
  C      1.248000    0.726000   -0.424000
  H      1.941000    0.881000   -1.255000
  H      0.404000    1.398000   -0.603000
  C      1.966000    1.067000    0.883000
  O      2.329000    0.207000    1.684000
  N      2.226000    2.398000    1.050000
  H      1.743000    3.098000    0.504000
  H      2.630000    2.685000    1.932000
  C     -1.687000   -0.230000   -0.328000
  O     -1.582000    0.518000   -1.309000
  N     -2.896000   -0.525000    0.242000
  C     -3.074000   -1.291000    1.464000
  H     -2.221000   -1.939000    1.653000
  H     -3.220000   -0.633000    2.331000
  H     -3.892000   -1.852000    1.335000
  C     -4.089000    0.138000   -0.261000
  H     -4.867000   -0.606000   -0.463000
  H     -4.472000    0.857000    0.473000
  H     -3.828000    0.659000   -1.180000

----------------------------
CARTESIAN COORDINATES (A.U.)
----------------------------
  NO LB      ZA    FRAG     MASS         X           Y           Z
   0 C     6.0000    0    12.011    2.908289   -3.280565   -1.302021
   1 H     1.0000    0     1.008    5.380050   -1.668628   -4.206530
   2 H     1.0000    0     1.008    6.409951   -4.529674   -2.776008
   3 H     1.0000    0     1.008    6.666954   -1.627054   -1.099821
   4 O     8.0000    0    15.999    2.209090   -5.429183   -0.924076
   5 C     6.0000    0    12.011    5.512331   -2.709867   -2.424519
   6 N     7.0000    0    14.007    1.409736   -1.182969   -0.814472
   7 C     6.0000    0    12.011   -0.876833   -1.642172    0.616051
   8 H     1.0000    0     1.008   -1.071475   -3.696304    0.716206
   9 H     1.0000    0     1.008   -0.651956   -0.946753    2.562469
  10 C     6.0000    0    12.011    2.358378    1.371941   -0.801244
  11 H     1.0000    0     1.008    3.667958    1.664849   -2.371606
  12 H     1.0000    0     1.008    0.763449    2.641837   -1.139505
  13 C     6.0000    0    12.011    3.715202    2.016338    1.668628
  14 O     8.0000    0    15.999    4.401172    0.391173    3.182299
  15 N     7.0000    0    14.007    4.206530    4.531563    1.984212
  16 H     1.0000    0     1.008    3.293793    5.854372    0.952422
  17 H     1.0000    0     1.008    4.969980    5.073915    3.650951
  18 C     6.0000    0    12.011   -3.187968   -0.434637   -0.619830
  19 O     8.0000    0    15.999   -2.989547    0.978878   -2.473652
  20 N     7.0000    0    14.007   -5.472647   -0.992106    0.457314
  21 C     6.0000    0    12.011   -5.809018   -2.439636    2.766559
  22 H     1.0000    0     1.008   -4.197082   -3.664179    3.123717
  23 H     1.0000    0     1.008   -6.084918   -1.196197    4.404952
  24 H     1.0000    0     1.008   -7.354814   -3.499773    2.522784
  25 C     6.0000    0    12.011   -7.727090    0.260782   -0.493219
  26 H     1.0000    0     1.008   -9.197297   -1.145174   -0.874943
  27 H     1.0000    0     1.008   -8.450855    1.619495    0.893840
  28 H     1.0000    0     1.008   -7.233872    1.245330   -2.229877

--------------------------------
INTERNAL COORDINATES (ANGSTROEM)
--------------------------------
 C      0   0   0     0.000000000000     0.00000000     0.00000000
 H      1   0   0     2.191082380925     0.00000000     0.00000000
 H      2   1   0     1.778277256223    63.44169869     0.00000000
 H      3   2   1     1.778921302363    60.03727515   284.29099560
 O      1   2   3     1.212299055514   131.53279516   315.64148885
 C      3   2   1     1.089766029935    35.58262432   320.14131740
 N      1   2   3     1.388349019519    99.21151510   163.87578430
 C      7   1   2     1.447825265700   116.12508070   166.16056025
 H      8   7   1     1.093154609376   105.72307242   350.15213503
 H      8   7   1     1.100220432459   110.05677160   105.72675573
 C      7   1   2     1.442205602541   123.47615402   323.00876847
 H     11   7   1     1.093085083605   110.48228296    41.74113992
 H     11   7   1     1.093600018288   107.85577341   157.32245638
 C     11   7   1     1.529723504428   112.11682273   280.34506291
 O     14  11   7     1.230028454955   122.61908802    15.33731836
 N     14  11   7     1.366400380562   114.25990308   192.27499396
 H     16  14  11     1.010645833119   121.17915605    17.42011464
 H     16  14  11     1.011686216176   117.31438253   175.04310862
 C      8   7   1     1.527012115211   112.03570473   228.88742849
 O     19   8   7     1.238099349810   121.61733221   352.86183226
 N     19   8   7     1.368797282288   116.03208183   173.41320692
 C     21  19   8     1.453177208740   124.88784100     5.50569300
 H     22  21  19     1.087765599750   111.35038585   336.40824213
 H     22  21  19     1.098166198715   111.36732800    98.17813655
 H     22  21  19     1.000242970483   106.70019675   217.28178617
 C     21  19   8     1.454588257893   118.82801109   174.91859116
 H     26  21  19     1.095273481830   109.67850647   130.39885655
 H     26  21  19     1.096542748825   110.72362551   250.36706018
 H     26  21  19     1.088174158855   108.27352339    10.51897660

---------------------------
INTERNAL COORDINATES (A.U.)
---------------------------
 C      0   0   0     0.000000000000     0.00000000     0.00000000
 H      1   0   0     4.140545636808     0.00000000     0.00000000
 H      2   1   0     3.360457004442    63.44169869     0.00000000
 H      3   2   1     3.361674075264    60.03727515   284.29099560
 O      1   2   3     2.290913207333   131.53279516   315.64148885
 C      3   2   1     2.059359346628    35.58262432   320.14131740
 N      1   2   3     2.623599425189    99.21151510   163.87578430
 C      7   1   2     2.735993241945   116.12508070   166.16056025
 H      8   7   1     2.065762833754   105.72307242   350.15213503
 H      8   7   1     2.079115304292   110.05677160   105.72675573
 C      7   1   2     2.725373617609   123.47615402   323.00876847
 H     11   7   1     2.065631449088   110.48228296    41.74113992
 H     11   7   1     2.066604534616   107.85577341   157.32245638
 C     11   7   1     2.890758483992   112.11682273   280.34506291
 O     14  11   7     2.324416916796   122.61908802    15.33731836
 N     14  11   7     2.582122508548   114.25990308   192.27499396
 H     16  14  11     1.909843842983   121.17915605    17.42011464
 H     16  14  11     1.911809882035   117.31438253   175.04310862
 C      8   7   1     2.885634700928   112.03570473   228.88742849
 O     19   8   7     2.339668697727   121.61733221   352.86183226
 N     19   8   7     2.586651996381   116.03208183   173.41320692
 C     21  19   8     2.746106948574   124.88784100     5.50569300
 H     22  21  19     2.055579081429   111.35038585   336.40824213
 H     22  21  19     2.075233365101   111.36732800    98.17813655
 H     22  21  19     1.890185281592   106.70019675   217.28178617
 C     21  19   8     2.748773445035   118.82801109   174.91859116
 H     26  21  19     2.069766922405   109.67850647   130.39885655
 H     26  21  19     2.072165489416   110.72362551   250.36706018
 H     26  21  19     2.056351146246   108.27352339    10.51897660

---------------------
BASIS SET INFORMATION
---------------------
There are 4 groups of distinct atoms

 Group   1 Type C   : 10s4p1d contracted to 3s2p1d pattern {631/31/1}
 Group   2 Type H   : 4s contracted to 2s pattern {31}
 Group   3 Type O   : 10s4p1d contracted to 3s2p1d pattern {631/31/1}
 Group   4 Type N   : 10s4p1d contracted to 3s2p1d pattern {631/31/1}

Atom   0C    basis set group =>   1
Atom   1H    basis set group =>   2
Atom   2H    basis set group =>   2
Atom   3H    basis set group =>   2
Atom   4O    basis set group =>   3
Atom   5C    basis set group =>   1
Atom   6N    basis set group =>   4
Atom   7C    basis set group =>   1
Atom   8H    basis set group =>   2
Atom   9H    basis set group =>   2
Atom  10C    basis set group =>   1
Atom  11H    basis set group =>   2
Atom  12H    basis set group =>   2
Atom  13C    basis set group =>   1
Atom  14O    basis set group =>   3
Atom  15N    basis set group =>   4
Atom  16H    basis set group =>   2
Atom  17H    basis set group =>   2
Atom  18C    basis set group =>   1
Atom  19O    basis set group =>   3
Atom  20N    basis set group =>   4
Atom  21C    basis set group =>   1
Atom  22H    basis set group =>   2
Atom  23H    basis set group =>   2
Atom  24H    basis set group =>   2
Atom  25C    basis set group =>   1
Atom  26H    basis set group =>   2
Atom  27H    basis set group =>   2
Atom  28H    basis set group =>   2
---------------------------------
AUXILIARY/J BASIS SET INFORMATION
---------------------------------
There are 4 groups of distinct atoms

 Group   1 Type C   : 13s11p10d2f contracted to 13s11p10d2f pattern {1111111111111/11111111111/1111111111/11}
 Group   2 Type H   : 9s2p contracted to 9s2p pattern {111111111/11}
 Group   3 Type O   : 14s11p10d2f contracted to 14s11p10d2f pattern {11111111111111/11111111111/1111111111/11}
 Group   4 Type N   : 14s11p10d2f contracted to 14s11p10d2f pattern {11111111111111/11111111111/1111111111/11}

Atom   0C    basis set group =>   1
Atom   1H    basis set group =>   2
Atom   2H    basis set group =>   2
Atom   3H    basis set group =>   2
Atom   4O    basis set group =>   3
Atom   5C    basis set group =>   1
Atom   6N    basis set group =>   4
Atom   7C    basis set group =>   1
Atom   8H    basis set group =>   2
Atom   9H    basis set group =>   2
Atom  10C    basis set group =>   1
Atom  11H    basis set group =>   2
Atom  12H    basis set group =>   2
Atom  13C    basis set group =>   1
Atom  14O    basis set group =>   3
Atom  15N    basis set group =>   4
Atom  16H    basis set group =>   2
Atom  17H    basis set group =>   2
Atom  18C    basis set group =>   1
Atom  19O    basis set group =>   3
Atom  20N    basis set group =>   4
Atom  21C    basis set group =>   1
Atom  22H    basis set group =>   2
Atom  23H    basis set group =>   2
Atom  24H    basis set group =>   2
Atom  25C    basis set group =>   1
Atom  26H    basis set group =>   2
Atom  27H    basis set group =>   2
Atom  28H    basis set group =>   2
---------------------------------
AUXILIARY/C BASIS SET INFORMATION
---------------------------------
There are 4 groups of distinct atoms

 Group   1 Type C   : 13s11p10d2f contracted to 13s11p10d2f pattern {1111111111111/11111111111/1111111111/11}
 Group   2 Type H   : 9s2p contracted to 9s2p pattern {111111111/11}
 Group   3 Type O   : 14s11p10d2f contracted to 14s11p10d2f pattern {11111111111111/11111111111/1111111111/11}
 Group   4 Type N   : 14s11p10d2f contracted to 14s11p10d2f pattern {11111111111111/11111111111/1111111111/11}

Atom   0C    basis set group =>   1
Atom   1H    basis set group =>   2
Atom   2H    basis set group =>   2
Atom   3H    basis set group =>   2
Atom   4O    basis set group =>   3
Atom   5C    basis set group =>   1
Atom   6N    basis set group =>   4
Atom   7C    basis set group =>   1
Atom   8H    basis set group =>   2
Atom   9H    basis set group =>   2
Atom  10C    basis set group =>   1
Atom  11H    basis set group =>   2
Atom  12H    basis set group =>   2
Atom  13C    basis set group =>   1
Atom  14O    basis set group =>   3
Atom  15N    basis set group =>   4
Atom  16H    basis set group =>   2
Atom  17H    basis set group =>   2
Atom  18C    basis set group =>   1
Atom  19O    basis set group =>   3
Atom  20N    basis set group =>   4
Atom  21C    basis set group =>   1
Atom  22H    basis set group =>   2
Atom  23H    basis set group =>   2
Atom  24H    basis set group =>   2
Atom  25C    basis set group =>   1
Atom  26H    basis set group =>   2
Atom  27H    basis set group =>   2
Atom  28H    basis set group =>   2
----------------------------------
AUXILIARY/JK BASIS SET INFORMATION
----------------------------------
There are 4 groups of distinct atoms

 Group   1 Type C   : 13s11p10d2f contracted to 13s11p10d2f pattern {1111111111111/11111111111/1111111111/11}
 Group   2 Type H   : 9s2p contracted to 9s2p pattern {111111111/11}
 Group   3 Type O   : 14s11p10d2f contracted to 14s11p10d2f pattern {11111111111111/11111111111/1111111111/11}
 Group   4 Type N   : 14s11p10d2f contracted to 14s11p10d2f pattern {11111111111111/11111111111/1111111111/11}

Atom   0C    basis set group =>   1
Atom   1H    basis set group =>   2
Atom   2H    basis set group =>   2
Atom   3H    basis set group =>   2
Atom   4O    basis set group =>   3
Atom   5C    basis set group =>   1
Atom   6N    basis set group =>   4
Atom   7C    basis set group =>   1
Atom   8H    basis set group =>   2
Atom   9H    basis set group =>   2
Atom  10C    basis set group =>   1
Atom  11H    basis set group =>   2
Atom  12H    basis set group =>   2
Atom  13C    basis set group =>   1
Atom  14O    basis set group =>   3
Atom  15N    basis set group =>   4
Atom  16H    basis set group =>   2
Atom  17H    basis set group =>   2
Atom  18C    basis set group =>   1
Atom  19O    basis set group =>   3
Atom  20N    basis set group =>   4
Atom  21C    basis set group =>   1
Atom  22H    basis set group =>   2
Atom  23H    basis set group =>   2
Atom  24H    basis set group =>   2
Atom  25C    basis set group =>   1
Atom  26H    basis set group =>   2
Atom  27H    basis set group =>   2
Atom  28H    basis set group =>   2


           ************************************************************
           *        Program running with 4 parallel MPI-processes     *
           *              working on a common directory               *
           ************************************************************
------------------------------------------------------------------------------
                           ORCA GTO INTEGRAL CALCULATION
                           -- RI-GTO INTEGRALS CHOSEN --
------------------------------------------------------------------------------
------------------------------------------------------------------------------
                   ___                                                        
                  /   \      - P O W E R E D   B Y -                         
                 /     \                                                     
                 |  |  |   _    _      __       _____    __    __             
                 |  |  |  | |  | |    /  \     |  _  \  |  |  /  |          
                  \  \/   | |  | |   /    \    | | | |  |  | /  /          
                 / \  \   | |__| |  /  /\  \   | |_| |  |  |/  /          
                |  |  |   |  __  | /  /__\  \  |    /   |      \           
                |  |  |   | |  | | |   __   |  |    \   |  |\   \          
                \     /   | |  | | |  |  |  |  | |\  \  |  | \   \       
                 \___/    |_|  |_| |__|  |__|  |_| \__\ |__|  \__/        
                                                                              
                      - O R C A' S   B I G   F R I E N D -                    
                                      &                                       
                       - I N T E G R A L  F E E D E R -                       
                                                                              
 v1 FN, 2020, v2 2021                                                         
------------------------------------------------------------------------------


Reading SHARK input file Nn_octanol.SHARKINP.tmp ... ok
----------------------
SHARK INTEGRAL PACKAGE
----------------------

Number of atoms                             ...     29
Number of basis functions                   ...    226
Number of shells                            ...    114
Maximum angular momentum                    ...      2
Integral batch strategy                     ... SHARK/LIBINT Hybrid
RI-J (if used) integral strategy            ... SPLIT-RIJ (Revised 2003 algorithm where possible)
Printlevel                                  ...      1
Contraction scheme used                     ... SEGMENTED contraction
Coulomb Range Separation                    ... NOT USED
Exchange Range Separation                   ... NOT USED
Finite Nucleus Model                        ... NOT USED
Auxiliary Coulomb fitting basis             ... AVAILABLE
   # of basis functions in Aux-J            ...   1771
   # of shells in Aux-J                     ...    675
   Maximum angular momentum in Aux-J        ...      3
Auxiliary J/K fitting basis                 ... AVAILABLE
   # of basis functions in Aux-JK           ...   1771
   # of shells in Aux-JK                    ...    675
   Maximum angular momentum in Aux-JK       ...      3
Auxiliary Correlation fitting basis         ... AVAILABLE
   # of basis functions in Aux-C            ...   1771
   # of shells in Aux-C                     ...    675
   Maximum angular momentum in Aux-C        ...      3
Auxiliary 'external' fitting basis          ... NOT available
Integral threshold                          ...     2.500000e-11
Primitive cut-off                           ...     2.500000e-12
Primitive pair pre-selection threshold      ...     2.500000e-12

Calculating pre-screening integrals         ... done (  0.0 sec) Dimension = 114
Organizing shell pair data                  ... done (  0.0 sec)
Shell pair information
Total number of shell pairs                 ...      6555
Shell pairs after pre-screening             ...      5474
Total number of primitive shell pairs       ...     36924
Primitive shell pairs kept                  ...     18115
          la=0 lb=0:   2093 shell pairs
          la=1 lb=0:   1788 shell pairs
          la=1 lb=1:    385 shell pairs
          la=2 lb=0:    779 shell pairs
          la=2 lb=1:    349 shell pairs
          la=2 lb=2:     80 shell pairs

Calculating one electron integrals          ... done (  0.0 sec)
Calculating RI/J V-Matrix + Cholesky decomp.... done (  0.5 sec)
Calculating RI/JK V-Matrix + Cholesky decomp... done (  0.2 sec)
Calculating RI/C V-Matrix + Cholesky decomp.... done (  0.2 sec)
Calculating Nuclear repulsion               ... done (  0.0 sec) ENN=    957.788331760970 Eh

SHARK setup successfully completed in   1.5 seconds

Maximum memory used throughout the entire GTOINT-calculation: 28.1 MB


           ************************************************************
           *        Program running with 4 parallel MPI-processes     *
           *              working on a common directory               *
           ************************************************************
-------------------------------------------------------------------------------
                                 ORCA SCF
-------------------------------------------------------------------------------

------------
SCF SETTINGS
------------
Hamiltonian:
 Density Functional     Method          .... DFT(GTOs)
 Exchange Functional    Exchange        .... B88
   X-Alpha parameter    XAlpha          ....  0.666667
   Becke's b parameter  XBeta           ....  0.004200
 Correlation Functional Correlation     .... LYP
 LDA part of GGA corr.  LDAOpt          .... VWN-5
 Gradients option       PostSCFGGA      .... off
 Hybrid DFT is turned on
   Fraction HF Exchange ScalHFX         ....  0.200000
   Scaling of DF-GGA-X  ScalDFX         ....  0.720000
   Scaling of DF-GGA-C  ScalDFC         ....  0.810000
   Scaling of DF-LDA-C  ScalLDAC        ....  1.000000
   Perturbative correction              ....  0.000000
   Density functional embedding theory  .... OFF
   NL short-range parameter             ....  4.800000
 RI-approximation to the Coulomb term is turned on
   Number of AuxJ basis functions       .... 1771
   RIJ-COSX (HFX calculated with COS-X)).... on


General Settings:
 Integral files         IntName         .... Nn_octanol
 Hartree-Fock type      HFTyp           .... RHF
 Total Charge           Charge          ....    0
 Multiplicity           Mult            ....    1
 Number of Electrons    NEL             ....  108
 Basis Dimension        Dim             ....  226
 Nuclear Repulsion      ENuc            ....    957.7883317610 Eh

Convergence Acceleration:
 DIIS                   CNVDIIS         .... on
   Start iteration      DIISMaxIt       ....    12
   Startup error        DIISStart       ....  0.200000
   # of expansion vecs  DIISMaxEq       ....     5
   Bias factor          DIISBfac        ....   1.050
   Max. coefficient     DIISMaxC        ....  10.000
 Trust-Rad. Augm. Hess. CNVTRAH         .... auto
   Auto Start mean grad. ratio tolernc. ....  1.125000
   Auto Start start iteration           ....    20
   Auto Start num. interpolation iter.  ....    10
   Max. Number of Micro iterations      ....    16
   Max. Number of Macro iterations      .... Maxiter - #DIIS iter
   Number of Davidson start vectors     ....     2
   Converg. threshold I  (grad. norm)   ....   1.000e-05
   Converg. threshold II (energy diff.) ....   1.000e-08
   Grad. Scal. Fac. for Micro threshold ....   0.100
   Minimum threshold for Micro iter.    ....   0.010
   NR start threshold (gradient norm)   ....   0.001
   Initial trust radius                 ....   0.400
   Minimum AH scaling param. (alpha)    ....   1.000
   Maximum AH scaling param. (alpha)    .... 1000.000
   Orbital update algorithm             .... Taylor
   White noise on init. David. guess    .... on
   Maximum white noise                  ....   0.010
   Quad. conv. algorithm                .... NR
 SOSCF                  CNVSOSCF        .... on
   Start iteration      SOSCFMaxIt      ....   150
   Startup grad/error   SOSCFStart      ....  0.003300
 Level Shifting         CNVShift        .... on
   Level shift para.    LevelShift      ....    0.2500
   Turn off err/grad.   ShiftErr        ....    0.0010
 Zerner damping         CNVZerner       .... off
 Static damping         CNVDamp         .... on
   Fraction old density DampFac         ....    0.7000
   Max. Damping (<1)    DampMax         ....    0.9800
   Min. Damping (>=0)   DampMin         ....    0.0000
   Turn off err/grad.   DampErr         ....    0.1000
 Fernandez-Rico         CNVRico         .... off

SCF Procedure:
 Maximum # iterations   MaxIter         ....   125
 SCF integral mode      SCFMode         .... Direct
   Integral package                     .... SHARK and LIBINT hybrid scheme
 Reset frequency        DirectResetFreq ....    20
 Integral Threshold     Thresh          ....  2.500e-11 Eh
 Primitive CutOff       TCut            ....  2.500e-12 Eh

Convergence Tolerance:
 Convergence Check Mode ConvCheckMode   .... Total+1el-Energy
 Convergence forced     ConvForced      .... 0
 Energy Change          TolE            ....  1.000e-08 Eh
 1-El. energy change                    ....  1.000e-05 Eh
 Orbital Gradient       TolG            ....  1.000e-05
 Orbital Rotation angle TolX            ....  1.000e-05
 DIIS Error             TolErr          ....  5.000e-07


Diagonalization of the overlap matrix:
Smallest eigenvalue                        ... 2.558e-03
Time for diagonalization                   ...    0.009 sec
Threshold for overlap eigenvalues          ... 1.000e-08
Number of eigenvalues below threshold      ... 0
Time for construction of square roots      ...    0.005 sec
Total time needed                          ...    0.015 sec

Time for model grid setup =    0.223 sec

------------------------------
INITIAL GUESS: MODEL POTENTIAL
------------------------------
Loading Hartree-Fock densities                     ... done
Calculating cut-offs                               ... done
Initializing the effective Hamiltonian             ... done
Setting up the integral package (SHARK)            ... done
Starting the Coulomb interaction                   ... done (   0.1 sec)
Reading the grid                                   ... done
Mapping shells                                     ... done
Starting the XC term evaluation                    ... done (   0.1 sec)
  promolecular density results
     # of electrons  =    107.990076536
     EX              =    -89.951838127
     EC              =     -3.689011291
     EX+EC           =    -93.640849418
Transforming the Hamiltonian                       ... done (   0.0 sec)
Diagonalizing the Hamiltonian                      ... done (   0.0 sec)
Back transforming the eigenvectors                 ... done (   0.0 sec)
Now organizing SCF variables                       ... done
                      ------------------
                      INITIAL GUESS DONE (   0.5 sec)
                      ------------------
-------------------
DFT GRID GENERATION
-------------------

General Integration Accuracy     IntAcc      ... 4.388
Radial Grid Type                 RadialGrid  ... OptM3 with GC (2021)
Angular Grid (max. ang.)         AngularGrid ... 4 (Lebedev-302)
Angular grid pruning method      GridPruning ... 4 (adaptive)
Weight generation scheme         WeightScheme... Becke
Basis function cutoff            BFCut       ... 1.0000e-11
Integration weight cutoff        WCut        ... 1.0000e-14
Angular grids for H and He will be reduced by one unit
Partially contracted basis set               ... off
Rotationally invariant grid construction     ... off

Total number of grid points                  ...   132075
Total number of batches                      ...     2076
Average number of points per batch           ...       63
Average number of grid points per atom       ...     4554
Time for grid setup =    1.020 sec

--------------------
COSX GRID GENERATION
--------------------

GRIDX 1
-------
General Integration Accuracy     IntAcc      ... 3.816
Radial Grid Type                 RadialGrid  ... OptM3 with GC (2021)
Angular Grid (max. ang.)         AngularGrid ... 1 (Lebedev-50)
Angular grid pruning method      GridPruning ... 4 (adaptive)
Weight generation scheme         WeightScheme... Becke
Basis function cutoff            BFCut       ... 1.0000e-11
Integration weight cutoff        WCut        ... 1.0000e-14
Angular grids for H and He will be reduced by one unit
Partially contracted basis set               ... on
Rotationally invariant grid construction     ... off

Total number of grid points                  ...    16837
Total number of batches                      ...      280
Average number of points per batch           ...       60
Average number of grid points per atom       ...      581
UseSFitting                                  ... on

GRIDX 2
-------
General Integration Accuracy     IntAcc      ... 4.020
Radial Grid Type                 RadialGrid  ... OptM3 with GC (2021)
Angular Grid (max. ang.)         AngularGrid ... 2 (Lebedev-110)
Angular grid pruning method      GridPruning ... 4 (adaptive)
Weight generation scheme         WeightScheme... Becke
Basis function cutoff            BFCut       ... 1.0000e-11
Integration weight cutoff        WCut        ... 1.0000e-14
Angular grids for H and He will be reduced by one unit
Partially contracted basis set               ... on
Rotationally invariant grid construction     ... off

Total number of grid points                  ...    36085
Total number of batches                      ...      577
Average number of points per batch           ...       62
Average number of grid points per atom       ...     1244
UseSFitting                                  ... on

GRIDX 3
-------
General Integration Accuracy     IntAcc      ... 4.338
Radial Grid Type                 RadialGrid  ... OptM3 with GC (2021)
Angular Grid (max. ang.)         AngularGrid ... 3 (Lebedev-194)
Angular grid pruning method      GridPruning ... 4 (adaptive)
Weight generation scheme         WeightScheme... Becke
Basis function cutoff            BFCut       ... 1.0000e-11
Integration weight cutoff        WCut        ... 1.0000e-14
Angular grids for H and He will be reduced by one unit
Partially contracted basis set               ... on
Rotationally invariant grid construction     ... off

Total number of grid points                  ...    78827
Total number of batches                      ...     1245
Average number of points per batch           ...       63
Average number of grid points per atom       ...     2718
UseSFitting                                  ... on

Time for X-Grid setup             =    1.038 sec


--------------------
CPCM SOLVATION MODEL
--------------------
CPCM parameters:
  Epsilon                                         ...       9.8629
  Refrac                                          ...       1.4295
  Rsolv                                           ...       1.3000
  Surface type                                    ... GAUSSIAN VDW
  Epsilon function type                           ...         CPCM
Radii:
 Radius for C  used is    3.8550 Bohr (=   2.0400 Ang.)
 Radius for H  used is    2.4944 Bohr (=   1.3200 Ang.)
 Radius for O  used is    3.4469 Bohr (=   1.8240 Ang.)
 Radius for N  used is    3.5149 Bohr (=   1.8600 Ang.)
Calculating surface                               ...        done! (  0.0s)
GEPOL surface points                              ...         1561
GEPOL Volume                                      ...    1645.3778
GEPOL Surface-area                                ...     898.9950
Calculating surface distance matrix               ...        done! (  0.0s)
Performing Cholesky decomposition & store         ...        done! (  0.1s)
Overall time for CPCM initialization              ...                 0.1s
--------------
SCF ITERATIONS
--------------
ITER       Energy         Delta-E        Max-DP      RMS-DP      [F,P]     Damp
               ***  Starting incremental Fock matrix formation  ***
  0   -702.9707674648   0.000000000000 0.09514116  0.00242397  0.2707107 0.7000
  1   -703.1974728143  -0.226705349498 0.05513889  0.00155432  0.1114492 0.7000
                               ***Turning on DIIS***
  2   -703.2800250596  -0.082552245283 0.06794890  0.00224930  0.0397759 0.0000
  3   -703.4181883866  -0.138163326960 0.03579226  0.00105923  0.0553663 0.0000
  4   -703.4443724794  -0.026184092824 0.00951369  0.00032860  0.0129984 0.0000
  5   -703.4463749691  -0.002002489708 0.00287442  0.00009958  0.0040310 0.0000
                      *** Initiating the SOSCF procedure ***
                           *** Shutting down DIIS ***
                      *** Re-Reading the Fockian *** 
                      *** Removing any level shift *** 
ITER      Energy       Delta-E        Grad      Rot      Max-DP    RMS-DP
  6   -703.44645337  -0.0000784014  0.000217  0.000217  0.000877  0.000030
               *** Restarting incremental Fock matrix formation ***
  7   -703.44647832  -0.0000249526  0.000069  0.000262  0.000453  0.000018
  8   -703.44647888  -0.0000005551  0.000086  0.000135  0.000253  0.000008
  9   -703.44647938  -0.0000005027  0.000038  0.000079  0.000140  0.000005
 10   -703.44647940  -0.0000000233  0.000037  0.000059  0.000078  0.000002
 11   -703.44647946  -0.0000000538  0.000012  0.000029  0.000036  0.000001
 12   -703.44647946   0.0000000011  0.000008  0.000010  0.000017  0.000000
                  ***Gradient check signals convergence***
              ***Rediagonalizing the Fockian in SOSCF/NRSCF***

               *****************************************************
               *                     SUCCESS                       *
               *           SCF CONVERGED AFTER  13 CYCLES          *
               *****************************************************

Old exchange energy                            =    -18.297594321 Eh
New exchange energy                            =    -18.297605899 Eh
Exchange energy change after final integration =     -0.000011578 Eh
Total energy after final integration           =   -703.446491039 Eh
Final COS-X integration done in                =     7.896 sec

----------------
TOTAL SCF ENERGY
----------------

Total Energy       :         -703.44649104 Eh          -19141.75217 eV

Components:
Nuclear Repulsion  :          957.78833176 Eh           26062.74551 eV
Electronic Energy  :        -1661.23482280 Eh          -45204.49768 eV
One Electron Energy:        -2860.82346454 Eh          -77846.96413 eV
Two Electron Energy:         1199.58864174 Eh           32642.46645 eV
Max COSX asymmetry :            0.00000421 Eh               0.00011 eV
CPCM Dielectric    :           -0.02939629 Eh              -0.79991 eV

Virial components:
Potential Energy   :        -1402.87884185 Eh          -38174.27403 eV
Kinetic Energy     :          699.43235081 Eh           19032.52186 eV
Virial Ratio       :            2.00573914


DFT components:
N(Alpha)           :       53.999964195088 electrons
N(Beta)            :       53.999964195088 electrons
N(Total)           :      107.999928390175 electrons
E(X)               :      -72.708951072239 Eh       
E(C)               :       -4.347482554209 Eh       
E(XC)              :      -77.056433626447 Eh       
DFET-embed. en.    :        0.000000000000 Eh       
CPCM Solvation Model Properties:
Surface-charge          :           -0.01750532
Charge-correction       :           -0.00011508 Eh              -0.00313 eV
Free-energy (cav+disp)  :  This term is not implemented in the current solvation scheme

---------------
SCF CONVERGENCE
---------------

  Last Energy change         ...   -3.5498e-09  Tolerance :   1.0000e-08
  Last MAX-Density change    ...    3.1086e-15  Tolerance :   1.0000e-07
  Last RMS-Density change    ...    4.5964e-17  Tolerance :   5.0000e-09
  Last Orbital Gradient      ...    1.8074e-06  Tolerance :   1.0000e-05
  Last Orbital Rotation      ...    5.5552e-06  Tolerance :   1.0000e-05

             **** THE GBW FILE WAS UPDATED (Nn_octanol.gbw) ****
             **** DENSITY Nn_octanol.scfp WAS UPDATED ****
             **** ENERGY FILE WAS UPDATED (Nn_octanol.en.tmp) ****
             **** THE GBW FILE WAS UPDATED (Nn_octanol.gbw) ****
             **** DENSITY Nn_octanol.scfp WAS UPDATED ****
----------------
ORBITAL ENERGIES
----------------

  NO   OCC          E(Eh)            E(eV) 
   0   2.0000     -19.116554      -520.1879 
   1   2.0000     -19.112595      -520.0802 
   2   2.0000     -19.108002      -519.9552 
   3   2.0000     -14.356053      -390.6481 
   4   2.0000     -14.353217      -390.5709 
   5   2.0000     -14.343236      -390.2993 
   6   2.0000     -10.287481      -279.9366 
   7   2.0000     -10.282069      -279.7893 
   8   2.0000     -10.280538      -279.7477 
   9   2.0000     -10.213523      -277.9241 
  10   2.0000     -10.209282      -277.8087 
  11   2.0000     -10.194920      -277.4179 
  12   2.0000     -10.194260      -277.3999 
  13   2.0000     -10.169181      -276.7175 
  14   2.0000      -1.042857       -28.3776 
  15   2.0000      -1.032071       -28.0841 
  16   2.0000      -1.027516       -27.9601 
  17   2.0000      -0.933466       -25.4009 
  18   2.0000      -0.928683       -25.2708 
  19   2.0000      -0.899121       -24.4663 
  20   2.0000      -0.760683       -20.6992 
  21   2.0000      -0.732223       -19.9248 
  22   2.0000      -0.721426       -19.6310 
  23   2.0000      -0.706882       -19.2352 
  24   2.0000      -0.663800       -18.0629 
  25   2.0000      -0.596979       -16.2446 
  26   2.0000      -0.554259       -15.0822 
  27   2.0000      -0.540910       -14.7189 
  28   2.0000      -0.516211       -14.0468 
  29   2.0000      -0.505671       -13.7600 
  30   2.0000      -0.497717       -13.5436 
  31   2.0000      -0.478203       -13.0126 
  32   2.0000      -0.473442       -12.8830 
  33   2.0000      -0.465926       -12.6785 
  34   2.0000      -0.456425       -12.4200 
  35   2.0000      -0.437321       -11.9001 
  36   2.0000      -0.429194       -11.6790 
  37   2.0000      -0.416690       -11.3387 
  38   2.0000      -0.408734       -11.1222 
  39   2.0000      -0.403518       -10.9803 
  40   2.0000      -0.400096       -10.8872 
  41   2.0000      -0.395868       -10.7721 
  42   2.0000      -0.391348       -10.6491 
  43   2.0000      -0.383151       -10.4261 
  44   2.0000      -0.376408       -10.2426 
  45   2.0000      -0.361529        -9.8377 
  46   2.0000      -0.356985        -9.7141 
  47   2.0000      -0.347207        -9.4480 
  48   2.0000      -0.271544        -7.3891 
  49   2.0000      -0.264445        -7.1959 
  50   2.0000      -0.258627        -7.0376 
  51   2.0000      -0.251530        -6.8445 
  52   2.0000      -0.238753        -6.4968 
  53   2.0000      -0.232519        -6.3272 
  54   0.0000       0.021917         0.5964 
  55   0.0000       0.027408         0.7458 
  56   0.0000       0.030438         0.8283 
  57   0.0000       0.092382         2.5138 
  58   0.0000       0.104320         2.8387 
  59   0.0000       0.114372         3.1122 
  60   0.0000       0.131453         3.5770 
  61   0.0000       0.136821         3.7231 
  62   0.0000       0.149109         4.0575 
  63   0.0000       0.155083         4.2200 
  64   0.0000       0.165424         4.5014 
  65   0.0000       0.167155         4.5485 
  66   0.0000       0.171772         4.6741 
  67   0.0000       0.178595         4.8598 
  68   0.0000       0.180075         4.9001 
  69   0.0000       0.190580         5.1859 
  70   0.0000       0.200170         5.4469 
  71   0.0000       0.210478         5.7274 
  72   0.0000       0.212543         5.7836 
  73   0.0000       0.214118         5.8264 
  74   0.0000       0.228382         6.2146 
  75   0.0000       0.250690         6.8216 
  76   0.0000       0.260078         7.0771 
  77   0.0000       0.274960         7.4820 
  78   0.0000       0.286423         7.7940 
  79   0.0000       0.340679         9.2704 
  80   0.0000       0.342334         9.3154 
  81   0.0000       0.355012         9.6604 
  82   0.0000       0.372259        10.1297 
  83   0.0000       0.384300        10.4573 
  84   0.0000       0.410975        11.1832 
  85   0.0000       0.495218        13.4756 
  86   0.0000       0.506304        13.7772 
  87   0.0000       0.517523        14.0825 
  88   0.0000       0.520935        14.1754 
  89   0.0000       0.529451        14.4071 
  90   0.0000       0.540939        14.7197 
  91   0.0000       0.551883        15.0175 
  92   0.0000       0.564819        15.3695 
  93   0.0000       0.569542        15.4980 
  94   0.0000       0.598861        16.2958 
  95   0.0000       0.609998        16.5989 
  96   0.0000       0.630367        17.1532 
  97   0.0000       0.634648        17.2697 
  98   0.0000       0.641726        17.4623 
  99   0.0000       0.660713        17.9789 
 100   0.0000       0.674688        18.3592 
 101   0.0000       0.680679        18.5222 
 102   0.0000       0.692699        18.8493 
 103   0.0000       0.708852        19.2888 
 104   0.0000       0.721028        19.6202 
 105   0.0000       0.729755        19.8576 
 106   0.0000       0.735763        20.0211 
 107   0.0000       0.742722        20.2105 
 108   0.0000       0.765090        20.8192 
 109   0.0000       0.780607        21.2414 
 110   0.0000       0.803106        21.8536 
 111   0.0000       0.819151        22.2902 
 112   0.0000       0.823078        22.3971 
 113   0.0000       0.833487        22.6803 
 114   0.0000       0.846586        23.0368 
 115   0.0000       0.859841        23.3975 
 116   0.0000       0.868444        23.6316 
 117   0.0000       0.871617        23.7179 
 118   0.0000       0.885094        24.0846 
 119   0.0000       0.890937        24.2436 
 120   0.0000       0.893239        24.3063 
 121   0.0000       0.905634        24.6436 
 122   0.0000       0.905938        24.6518 
 123   0.0000       0.921845        25.0847 
 124   0.0000       0.928406        25.2632 
 125   0.0000       0.936354        25.4795 
 126   0.0000       0.950015        25.8512 
 127   0.0000       0.957553        26.0563 
 128   0.0000       0.973418        26.4881 
 129   0.0000       0.985514        26.8172 
 130   0.0000       0.990907        26.9640 
 131   0.0000       1.001794        27.2602 
 132   0.0000       1.008431        27.4408 
 133   0.0000       1.014918        27.6173 
 134   0.0000       1.053062        28.6553 
 135   0.0000       1.066574        29.0230 
 136   0.0000       1.094363        29.7791 
 137   0.0000       1.118333        30.4314 
 138   0.0000       1.129143        30.7255 
 139   0.0000       1.131809        30.7981 
 140   0.0000       1.161843        31.6154 
 141   0.0000       1.187628        32.3170 
 142   0.0000       1.212373        32.9903 
 143   0.0000       1.267728        34.4966 
 144   0.0000       1.296653        35.2837 
 145   0.0000       1.322681        35.9920 
 146   0.0000       1.332585        36.2615 
 147   0.0000       1.345429        36.6110 
 148   0.0000       1.363303        37.0974 
 149   0.0000       1.397371        38.0244 
 150   0.0000       1.397927        38.0395 
 151   0.0000       1.414362        38.4867 
 152   0.0000       1.444032        39.2941 
 153   0.0000       1.461245        39.7625 
 154   0.0000       1.477649        40.2089 
 155   0.0000       1.542757        41.9805 
 156   0.0000       1.563811        42.5535 
 157   0.0000       1.580931        43.0193 
 158   0.0000       1.646395        44.8007 
 159   0.0000       1.676182        45.6112 
 160   0.0000       1.689629        45.9771 
 161   0.0000       1.720614        46.8203 
 162   0.0000       1.733011        47.1576 
 163   0.0000       1.735864        47.2353 
 164   0.0000       1.769060        48.1386 
 165   0.0000       1.780264        48.4434 
 166   0.0000       1.794544        48.8320 
 167   0.0000       1.805396        49.1273 
 168   0.0000       1.809176        49.2302 
 169   0.0000       1.828725        49.7621 
 170   0.0000       1.837250        49.9941 
 171   0.0000       1.859657        50.6038 
 172   0.0000       1.882532        51.2263 
 173   0.0000       1.906027        51.8656 
 174   0.0000       1.917710        52.1835 
 175   0.0000       1.932649        52.5900 
 176   0.0000       1.947159        52.9849 
 177   0.0000       1.956895        53.2498 
 178   0.0000       1.965679        53.4889 
 179   0.0000       1.972371        53.6710 
 180   0.0000       1.998944        54.3940 
 181   0.0000       2.018867        54.9362 
 182   0.0000       2.024994        55.1029 
 183   0.0000       2.050526        55.7976 
 184   0.0000       2.059149        56.0323 
 185   0.0000       2.074059        56.4380 
 186   0.0000       2.087621        56.8071 
 187   0.0000       2.101984        57.1979 
 188   0.0000       2.111859        57.4666 
 189   0.0000       2.125875        57.8480 
 190   0.0000       2.149702        58.4964 
 191   0.0000       2.184541        59.4444 
 192   0.0000       2.226875        60.5963 
 193   0.0000       2.234419        60.8016 
 194   0.0000       2.262761        61.5729 
 195   0.0000       2.274367        61.8887 
 196   0.0000       2.295731        62.4700 
 197   0.0000       2.303343        62.6771 
 198   0.0000       2.327331        63.3299 
 199   0.0000       2.341724        63.7216 
 200   0.0000       2.379458        64.7484 
 201   0.0000       2.412076        65.6359 
 202   0.0000       2.426565        66.0302 
 203   0.0000       2.447302        66.5945 
 204   0.0000       2.459973        66.9393 
 205   0.0000       2.486069        67.6494 
 206   0.0000       2.512156        68.3592 
 207   0.0000       2.543344        69.2079 
 208   0.0000       2.584132        70.3178 
 209   0.0000       2.597135        70.6716 
 210   0.0000       2.623971        71.4019 
 211   0.0000       2.633616        71.6643 
 212   0.0000       2.657835        72.3234 
 213   0.0000       2.677335        72.8540 
 214   0.0000       2.690624        73.2156 
 215   0.0000       2.721322        74.0509 
 216   0.0000       2.764605        75.2287 
 217   0.0000       2.848968        77.5243 
 218   0.0000       2.923949        79.5647 
 219   0.0000       2.970058        80.8194 
 220   0.0000       2.998338        81.5889 
 221   0.0000       3.012592        81.9768 
 222   0.0000       3.038560        82.6834 
 223   0.0000       3.083750        83.9131 
 224   0.0000       3.180259        86.5392 
 225   0.0000       3.205215        87.2183 

                    ********************************
                    * MULLIKEN POPULATION ANALYSIS *
                    ********************************

-----------------------
MULLIKEN ATOMIC CHARGES
-----------------------
   0 C :    0.525896
   1 H :    0.191227
   2 H :    0.177114
   3 H :    0.190388
   4 O :   -0.499685
   5 C :   -0.565689
   6 N :   -0.357854
   7 C :   -0.282217
   8 H :    0.213037
   9 H :    0.193653
  10 C :   -0.278184
  11 H :    0.211734
  12 H :    0.206751
  13 C :    0.539518
  14 O :   -0.516135
  15 N :   -0.740043
  16 H :    0.376339
  17 H :    0.367295
  18 C :    0.544298
  19 O :   -0.531324
  20 N :   -0.384176
  21 C :   -0.324614
  22 H :    0.190195
  23 H :    0.169622
  24 H :    0.189763
  25 C :   -0.332380
  26 H :    0.170165
  27 H :    0.167622
  28 H :    0.187686
Sum of atomic charges:   -0.0000000

--------------------------------
MULLIKEN REDUCED ORBITAL CHARGES
--------------------------------
  0 C s       :     2.980210  s :     2.980210
      pz      :     0.788951  p :     2.383199
      px      :     0.827628
      py      :     0.766620
      dz2     :     0.007995  d :     0.110695
      dxz     :     0.008149
      dyz     :     0.026860
      dx2y2   :     0.030406
      dxy     :     0.037285
  1 H s       :     0.808773  s :     0.808773
  2 H s       :     0.822886  s :     0.822886
  3 H s       :     0.809612  s :     0.809612
  4 O s       :     3.839940  s :     3.839940
      pz      :     1.511592  p :     4.633077
      px      :     1.695805
      py      :     1.425679
      dz2     :     0.002773  d :     0.026668
      dxz     :     0.000997
      dyz     :     0.008492
      dx2y2   :     0.007350
      dxy     :     0.007056
  5 C s       :     3.325940  s :     3.325940
      pz      :     1.080961  p :     3.208120
      px      :     1.010861
      py      :     1.116298
      dz2     :     0.005184  d :     0.031629
      dxz     :     0.006065
      dyz     :     0.007584
      dx2y2   :     0.005987
      dxy     :     0.006809
  6 N s       :     3.529146  s :     3.529146
      pz      :     1.521864  p :     3.791490
      px      :     1.193462
      py      :     1.076164
      dz2     :     0.004672  d :     0.037218
      dxz     :     0.006022
      dyz     :     0.005883
      dx2y2   :     0.009142
      dxy     :     0.011499
  7 C s       :     3.235426  s :     3.235426
      pz      :     1.011644  p :     2.994550
      px      :     0.856717
      py      :     1.126189
      dz2     :     0.013936  d :     0.052241
      dxz     :     0.012628
      dyz     :     0.004557
      dx2y2   :     0.014265
      dxy     :     0.006855
  8 H s       :     0.786963  s :     0.786963
  9 H s       :     0.806347  s :     0.806347
 10 C s       :     3.238196  s :     3.238196
      pz      :     1.029828  p :     2.987334
      px      :     1.081674
      py      :     0.875832
      dz2     :     0.009192  d :     0.052654
      dxz     :     0.011183
      dyz     :     0.009306
      dx2y2   :     0.009473
      dxy     :     0.013500
 11 H s       :     0.788266  s :     0.788266
 12 H s       :     0.793249  s :     0.793249
 13 C s       :     2.990834  s :     2.990834
      pz      :     0.837314  p :     2.360704
      px      :     0.792173
      py      :     0.731217
      dz2     :     0.025740  d :     0.108944
      dxz     :     0.012946
      dyz     :     0.024591
      dx2y2   :     0.023195
      dxy     :     0.022472
 14 O s       :     3.857556  s :     3.857556
      pz      :     1.542816  p :     4.632938
      px      :     1.508963
      py      :     1.581158
      dz2     :     0.005654  d :     0.025642
      dxz     :     0.003834
      dyz     :     0.007090
      dx2y2   :     0.003924
      dxy     :     0.005139
 15 N s       :     3.599986  s :     3.599986
      pz      :     1.377589  p :     4.115254
      px      :     1.581516
      py      :     1.156149
      dz2     :     0.004784  d :     0.024804
      dxz     :     0.003581
      dyz     :     0.007059
      dx2y2   :     0.003155
      dxy     :     0.006225
 16 H s       :     0.623661  s :     0.623661
 17 H s       :     0.632705  s :     0.632705
 18 C s       :     2.977063  s :     2.977063
      pz      :     0.776354  p :     2.371010
      px      :     0.804843
      py      :     0.789814
      dz2     :     0.023008  d :     0.107629
      dxz     :     0.031720
      dyz     :     0.014583
      dx2y2   :     0.015685
      dxy     :     0.022633
 19 O s       :     3.863537  s :     3.863537
      pz      :     1.413646  p :     4.642629
      px      :     1.786138
      py      :     1.442844
      dz2     :     0.008347  d :     0.025158
      dxz     :     0.003999
      dyz     :     0.007212
      dx2y2   :     0.003244
      dxy     :     0.002357
 20 N s       :     3.538869  s :     3.538869
      pz      :     1.264558  p :     3.807839
      px      :     1.103952
      py      :     1.439329
      dz2     :     0.007727  d :     0.037468
      dxz     :     0.008867
      dyz     :     0.005514
      dx2y2   :     0.006669
      dxy     :     0.008691
 21 C s       :     3.238754  s :     3.238754
      pz      :     0.890184  p :     3.036440
      px      :     1.122299
      py      :     1.023957
      dz2     :     0.015241  d :     0.049419
      dxz     :     0.003792
      dyz     :     0.014616
      dx2y2   :     0.003271
      dxy     :     0.012499
 22 H s       :     0.809805  s :     0.809805
 23 H s       :     0.830378  s :     0.830378
 24 H s       :     0.810237  s :     0.810237
 25 C s       :     3.259622  s :     3.259622
      pz      :     1.089508  p :     3.024737
      px      :     0.894526
      py      :     1.040703
      dz2     :     0.006893  d :     0.048021
      dxz     :     0.008898
      dyz     :     0.010193
      dx2y2   :     0.006060
      dxy     :     0.015977
 26 H s       :     0.829835  s :     0.829835
 27 H s       :     0.832378  s :     0.832378
 28 H s       :     0.812314  s :     0.812314


                     *******************************
                     * LOEWDIN POPULATION ANALYSIS *
                     *******************************

----------------------
LOEWDIN ATOMIC CHARGES
----------------------
   0 C :    0.117746
   1 H :    0.153172
   2 H :    0.147723
   3 H :    0.153887
   4 O :   -0.297341
   5 C :   -0.399084
   6 N :   -0.067930
   7 C :   -0.197391
   8 H :    0.166837
   9 H :    0.148907
  10 C :   -0.200011
  11 H :    0.165330
  12 H :    0.161074
  13 C :    0.100440
  14 O :   -0.317505
  15 N :   -0.361045
  16 H :    0.275341
  17 H :    0.271537
  18 C :    0.108001
  19 O :   -0.331440
  20 N :   -0.077944
  21 C :   -0.280994
  22 H :    0.149395
  23 H :    0.133108
  24 H :    0.144417
  25 C :   -0.280543
  26 H :    0.134223
  27 H :    0.130926
  28 H :    0.149168

-------------------------------
LOEWDIN REDUCED ORBITAL CHARGES
-------------------------------
  0 C s       :     2.848935  s :     2.848935
      pz      :     0.823161  p :     2.770847
      px      :     0.965124
      py      :     0.982562
      dz2     :     0.018407  d :     0.262472
      dxz     :     0.016585
      dyz     :     0.059221
      dx2y2   :     0.075899
      dxy     :     0.092359
  1 H s       :     0.846828  s :     0.846828
  2 H s       :     0.852277  s :     0.852277
  3 H s       :     0.846113  s :     0.846113
  4 O s       :     3.545866  s :     3.545866
      pz      :     1.499729  p :     4.696498
      px      :     1.697916
      py      :     1.498853
      dz2     :     0.006521  d :     0.054978
      dxz     :     0.001850
      dyz     :     0.013515
      dx2y2   :     0.017683
      dxy     :     0.015408
  5 C s       :     2.986693  s :     2.986693
      pz      :     1.127712  p :     3.350716
      px      :     1.073924
      py      :     1.149079
      dz2     :     0.009745  d :     0.061676
      dxz     :     0.012628
      dyz     :     0.013463
      dx2y2   :     0.012368
      dxy     :     0.013473
  6 N s       :     3.089397  s :     3.089397
      pz      :     1.502439  p :     3.881560
      px      :     1.228951
      py      :     1.150171
      dz2     :     0.010861  d :     0.096973
      dxz     :     0.013190
      dyz     :     0.014173
      dx2y2   :     0.026030
      dxy     :     0.032719
  7 C s       :     2.925116  s :     2.925116
      pz      :     1.066151  p :     3.161320
      px      :     0.955571
      py      :     1.139597
      dz2     :     0.028242  d :     0.110956
      dxz     :     0.029056
      dyz     :     0.008598
      dx2y2   :     0.030503
      dxy     :     0.014557
  8 H s       :     0.833163  s :     0.833163
  9 H s       :     0.851093  s :     0.851093
 10 C s       :     2.926690  s :     2.926690
      pz      :     1.086763  p :     3.160314
      px      :     1.110261
      py      :     0.963291
      dz2     :     0.020222  d :     0.113007
      dxz     :     0.023956
      dyz     :     0.020694
      dx2y2   :     0.020246
      dxy     :     0.027888
 11 H s       :     0.834670  s :     0.834670
 12 H s       :     0.838926  s :     0.838926
 13 C s       :     2.858553  s :     2.858553
      pz      :     0.971572  p :     2.781529
      px      :     0.839536
      py      :     0.970421
      dz2     :     0.062159  d :     0.259478
      dxz     :     0.030106
      dyz     :     0.058288
      dx2y2   :     0.059715
      dxy     :     0.049210
 14 O s       :     3.561180  s :     3.561180
      pz      :     1.575691  p :     4.703935
      px      :     1.508985
      py      :     1.619259
      dz2     :     0.010011  d :     0.052390
      dxz     :     0.007446
      dyz     :     0.017723
      dx2y2   :     0.008277
      dxy     :     0.008932
 15 N s       :     3.186611  s :     3.186611
      pz      :     1.360453  p :     4.118569
      px      :     1.559337
      py      :     1.198778
      dz2     :     0.010310  d :     0.055866
      dxz     :     0.005155
      dyz     :     0.016994
      dx2y2   :     0.009961
      dxy     :     0.013446
 16 H s       :     0.724659  s :     0.724659
 17 H s       :     0.728463  s :     0.728463
 18 C s       :     2.851178  s :     2.851178
      pz      :     0.927864  p :     2.785311
      px      :     0.971537
      py      :     0.885910
      dz2     :     0.049961  d :     0.255511
      dxz     :     0.079560
      dyz     :     0.036098
      dx2y2   :     0.036257
      dxy     :     0.053635
 19 O s       :     3.563558  s :     3.563558
      pz      :     1.465439  p :     4.716030
      px      :     1.775058
      py      :     1.475532
      dz2     :     0.014455  d :     0.051852
      dxz     :     0.008030
      dyz     :     0.018575
      dx2y2   :     0.006083
      dxy     :     0.004710
 20 N s       :     3.090165  s :     3.090165
      pz      :     1.293661  p :     3.890826
      px      :     1.171569
      py      :     1.425595
      dz2     :     0.019715  d :     0.096952
      dxz     :     0.024642
      dyz     :     0.012591
      dx2y2   :     0.018998
      dxy     :     0.021005
 21 C s       :     2.946205  s :     2.946205
      pz      :     0.990768  p :     3.236122
      px      :     1.158104
      py      :     1.087249
      dz2     :     0.031828  d :     0.098667
      dxz     :     0.007381
      dyz     :     0.030093
      dx2y2   :     0.006000
      dxy     :     0.023365
 22 H s       :     0.850605  s :     0.850605
 23 H s       :     0.866892  s :     0.866892
 24 H s       :     0.855583  s :     0.855583
 25 C s       :     2.962344  s :     2.962344
      pz      :     1.133063  p :     3.222693
      px      :     0.988171
      py      :     1.101458
      dz2     :     0.013008  d :     0.095507
      dxz     :     0.018258
      dyz     :     0.019111
      dx2y2   :     0.012535
      dxy     :     0.032595
 26 H s       :     0.865777  s :     0.865777
 27 H s       :     0.869074  s :     0.869074
 28 H s       :     0.850832  s :     0.850832


                      *****************************
                      * MAYER POPULATION ANALYSIS *
                      *****************************

  NA   - Mulliken gross atomic population
  ZA   - Total nuclear charge
  QA   - Mulliken gross atomic charge
  VA   - Mayer's total valence
  BVA  - Mayer's bonded valence
  FA   - Mayer's free valence

  ATOM       NA         ZA         QA         VA         BVA        FA
  0 C      5.4741     6.0000     0.5259     3.9912     3.9912     0.0000
  1 H      0.8088     1.0000     0.1912     0.9248     0.9248     0.0000
  2 H      0.8229     1.0000     0.1771     0.9399     0.9399    -0.0000
  3 H      0.8096     1.0000     0.1904     0.9339     0.9339    -0.0000
  4 O      8.4997     8.0000    -0.4997     2.0660     2.0660     0.0000
  5 C      6.5657     6.0000    -0.5657     3.7919     3.7919    -0.0000
  6 N      7.3579     7.0000    -0.3579     3.1237     3.1237    -0.0000
  7 C      6.2822     6.0000    -0.2822     3.7439     3.7439    -0.0000
[...]
      2      -0.000006   0.000056  -0.000004
      3      -0.000009   0.000016  -0.000000
      4       0.000008  -0.000052  -0.000005
      5      -0.000018   0.000086  -0.000002
      6      -0.000143   0.000057  -0.000008
      7       0.000273  -0.000288   0.000004
      8       0.000109  -0.000134  -0.000003
      9       0.000022  -0.000370  -0.000021
     10       0.000016   0.000035  -0.000015
     11       0.000030   0.000101   0.000000
     12      -0.000001  -0.000013  -0.000005
     13       0.000017  -0.000055   0.000011
     14       0.000006  -0.000005   0.000002
     15       0.000004   0.000016  -0.000004
     16      -0.000023   0.000014   0.000002
     17      -0.000008  -0.000003  -0.000000
     18      -0.000012  -0.000007  -0.000083
     19       0.000007  -0.000001  -0.000004
     20       0.000043  -0.000003  -0.000000
     21      -0.000077   0.000028  -0.000005
     22       0.000205   0.000004  -0.000002
     23      -0.000381  -0.000009  -0.000001
     24      -0.000809  -0.000119   0.000030
     25      -0.005807  -0.000193   0.000046
     26       0.001499   0.000071  -0.000005
     27      -0.000422   0.000094   0.000014
     28       0.002325   0.000002  -0.000001
     29       0.004096  -0.000108   0.000036
     30       0.000034  -0.000361  -0.000040
     31       0.000005   0.000403  -0.000268
     32      -0.000026  -0.000514  -0.000432
     33      -0.000301  -0.001602  -0.000670
     34      -0.000103  -0.001083  -0.000464
     35       0.000391   0.002108   0.000899
     36      -0.000185   0.003123  -0.001279
     37       0.000082  -0.004440   0.001066
     38      -0.000068  -0.000258  -0.000598
     39       0.000005  -0.000253   0.000666
     40       0.000004  -0.001450   0.000034
     41      -0.000000  -0.000713   0.000901
     42      -0.000001   0.000447  -0.000266
     43      -0.000002  -0.001009   0.000556
     44      -0.000001   0.000391  -0.000302
     45      -0.000001   0.010210   0.053745
     46      -0.000001   0.051274  -0.025064
     47      -0.000004   0.014336   0.063434
     48       0.000013   0.310276  -0.338407
     49      -0.000014  -0.476326   0.529703
     50       0.000012   0.355716  -0.389963
     51      -0.000005  -0.453254  -0.408869
     52      -0.000008  -0.202034  -0.188249
     53      -0.000014  -0.548699  -0.492611
     54      -0.000112   0.000041  -0.000005
     55       0.000494  -0.000001   0.000004
     56      -0.001089  -0.000002  -0.000004
     57       0.000800  -0.000019   0.000003
     58      -0.000202  -0.000006   0.000000
     59       0.000358  -0.000005   0.000004
     60       0.000082  -0.000019   0.000002
     61       0.000031   0.000001  -0.000002
     62      -0.000158   0.000001   0.000001
     63      -0.014262   0.000007  -0.000001
     64       0.006635   0.000001  -0.000000
     65      -0.003454  -0.000004  -0.000001
     66       0.142312  -0.000026   0.000007
     67      -0.082920   0.000035  -0.000008
     68       0.059564  -0.000027   0.000005
     69       0.003794  -0.000013   0.000002
     70      -0.021948   0.000032  -0.000004
     71      -0.017227   0.000040  -0.000004
     72       0.026888  -0.000056   0.000001
     73       0.024185  -0.000033  -0.000003
     74       0.001736   0.000005  -0.000001
     75       0.035373   0.000006  -0.000000
     76       0.025802  -0.000004   0.000002
     77      -0.077079   0.000005  -0.000000
     78      -0.131406  -0.000048   0.000001
     79      -0.158602  -0.000025  -0.000007
     80      -0.019633  -0.000006   0.000001
     81      -0.059761  -0.000043   0.000011
     82       0.131190   0.000044  -0.000008
     83       0.075933   0.000019  -0.000005
     84      -0.243407   0.000024  -0.000002
     85      -0.280406   0.000003   0.000003
     86       0.867070  -0.000027   0.000009


-----------
IR SPECTRUM
-----------

 Mode   freq       eps      Int      T**2         TX        TY        TZ
       cm**-1   L/(mol*cm) km/mol    a.u.
----------------------------------------------------------------------------
  6:      9.69   0.000521    2.63  0.016783  ( 0.010024 -0.080965 -0.100634)
  7:     29.22   0.001472    7.44  0.015719  ( 0.043765 -0.084558 -0.081568)
  8:     38.65   0.003020   15.26  0.024381  (-0.146684 -0.040981  0.034428)
  9:     54.26   0.001563    7.90  0.008988  (-0.077403  0.041900  0.035237)
 10:     63.49   0.001022    5.16  0.005022  ( 0.054394  0.022887  0.039241)
 11:     71.43   0.000307    1.55  0.001342  ( 0.017150 -0.030221 -0.011587)
 12:     95.90   0.002101   10.62  0.006838  (-0.033696 -0.000747 -0.075510)
 13:    105.61   0.000367    1.85  0.001084  (-0.020552 -0.017513  0.018837)
 14:    136.48   0.000949    4.80  0.002171  (-0.038047 -0.025734 -0.007815)
 15:    193.17   0.005211   26.33  0.008418  ( 0.043529 -0.034653 -0.072953)
 16:    201.11   0.033092  167.23  0.051349  ( 0.172980 -0.002416 -0.146361)
 17:    202.17   0.028884  145.97  0.044585  (-0.170680 -0.005796  0.124174)
 18:    228.95   0.001465    7.40  0.001996  ( 0.012493  0.041608  0.010433)
 19:    247.14   0.000209    1.05  0.000263  ( 0.006477 -0.007302 -0.012968)
 20:    305.47   0.002823   14.27  0.002884  (-0.045383  0.028119  0.005810)
 21:    356.00   0.001231    6.22  0.001079  ( 0.025902 -0.013544 -0.014999)
 22:    393.56   0.003082   15.58  0.002444  (-0.045363 -0.008196 -0.017862)
 23:    409.18   0.001112    5.62  0.000848  (-0.019824  0.013555  0.016472)
 24:    422.28   0.001427    7.21  0.001055  (-0.030331  0.009485  0.006704)
 25:    444.58   0.000637    3.22  0.000447  (-0.013581 -0.000922 -0.016184)
 26:    493.51   0.000231    1.17  0.000146  (-0.009374  0.001344 -0.007510)
 27:    534.58   0.007565   38.23  0.004416  ( 0.058749  0.003388 -0.030869)
 28:    559.49   0.005267   26.62  0.002938  (-0.026163 -0.045770 -0.012586)
 29:    587.69   0.003457   17.47  0.001836  ( 0.006610 -0.018242 -0.038203)
 30:    592.89   0.002977   15.04  0.001567  ( 0.004273  0.033528  0.020604)
 31:    622.72   0.001212    6.12  0.000607  ( 0.024332 -0.003089  0.002371)
 32:    644.60   0.002003   10.12  0.000970  ( 0.001320 -0.008220  0.030004)
 33:    703.77   0.001544    7.80  0.000685  (-0.021002  0.007536 -0.013664)
 34:    806.15   0.002510   12.68  0.000972  (-0.007291  0.008315 -0.029142)
 35:    826.92   0.000988    5.00  0.000373  (-0.005394  0.005606  0.017678)
 36:    853.26   0.001566    7.91  0.000573  ( 0.009657 -0.013073  0.017568)
 37:    965.76   0.000307    1.55  0.000099  (-0.001539  0.006826  0.007092)
 38:    980.12   0.002202   11.13  0.000701  (-0.005372 -0.025634  0.003887)
 39:    996.48   0.012374   62.53  0.003875  (-0.045258  0.022125  0.036569)
 40:   1015.73   0.008582   43.37  0.002637  ( 0.002256 -0.049563 -0.013230)
 41:   1061.61   0.002568   12.98  0.000755  ( 0.014763  0.005050  0.022615)
 42:   1088.09   0.001824    9.22  0.000523  ( 0.000318  0.005509 -0.022196)
 43:   1106.58   0.001916    9.68  0.000540  ( 0.022621 -0.000400 -0.005328)
 44:   1123.91   0.001103    5.57  0.000306  ( 0.016332 -0.005629 -0.002793)
 45:   1134.23   0.000446    2.25  0.000123  ( 0.002491  0.002706 -0.010444)
 46:   1166.73   0.044372  224.24  0.011868  (-0.103314 -0.003994  0.034325)
 47:   1183.20   0.001054    5.33  0.000278  ( 0.014086 -0.008871  0.000955)
 48:   1239.71   0.002450   12.38  0.000617  (-0.021426 -0.008010  0.009665)
 49:   1273.04   0.047029  237.67  0.011528  ( 0.058694 -0.078909 -0.043088)
 50:   1288.77   0.011077   55.98  0.002682  (-0.040640 -0.015483 -0.028122)
 51:   1324.14   0.017013   85.98  0.004010  (-0.004638 -0.055888 -0.029402)
 52:   1351.23   0.017421   88.04  0.004023  (-0.055690 -0.030279  0.002270)
 53:   1383.65   0.007238   36.58  0.001632  (-0.029858  0.004816  0.026790)
 54:   1406.26   0.003648   18.44  0.000810  (-0.025448 -0.006944  0.010670)
 55:   1425.12   0.012421   62.77  0.002720  ( 0.028742  0.028742  0.032674)
 56:   1443.37   0.011383   57.53  0.002461  ( 0.039084  0.005072 -0.030130)
 57:   1454.54   0.018711   94.56  0.004014  ( 0.057046 -0.027569  0.000398)
 58:   1468.30   0.013372   67.58  0.002842  (-0.012240 -0.051877 -0.000984)
 59:   1483.65   0.014723   74.40  0.003097  (-0.032701  0.005573  0.044680)
 60:   1489.75   0.023625  119.39  0.004949  ( 0.032673 -0.041661 -0.046321)
 61:   1493.65   0.005120   25.87  0.001070  ( 0.018035 -0.025431  0.009881)
 62:   1504.58   0.004296   21.71  0.000891  ( 0.018349 -0.014651  0.018431)
 63:   1505.31   0.001998   10.10  0.000414  ( 0.012238  0.005579  0.015275)
 64:   1513.50   0.003659   18.49  0.000755  (-0.016575 -0.018521 -0.011694)
 65:   1519.08   0.010802   54.59  0.002219  (-0.031465  0.025414  0.024148)
 66:   1521.17   0.005090   25.72  0.001044  (-0.016838  0.027540  0.001473)
 67:   1556.24   0.015915   80.43  0.003191  ( 0.055689 -0.006841 -0.006575)
 68:   1639.39   0.031192  157.63  0.005938  ( 0.021497  0.067955  0.029283)
 69:   1721.60   0.125977  636.63  0.022835  ( 0.067779  0.110999 -0.076943)
 70:   1730.77   0.074202  374.99  0.013379  (-0.025396  0.072148  0.086767)
 71:   1765.08   0.108338  547.50  0.019154  ( 0.042954 -0.127968  0.030545)
 72:   3036.12   0.007240   36.59  0.000744  (-0.005137  0.003247 -0.026594)
 73:   3041.92   0.019717   99.64  0.002023  ( 0.039071 -0.011104 -0.019311)
 74:   3063.35   0.000678    3.43  0.000069  ( 0.004690  0.003817 -0.005700)
 75:   3069.23   0.005396   27.27  0.000549  (-0.013938  0.004925  0.018170)
 76:   3092.76   0.015009   75.85  0.001514  (-0.014210 -0.034798 -0.010078)
 77:   3095.51   0.004388   22.17  0.000442  ( 0.000225 -0.021028  0.000325)
 78:   3096.71   0.001127    5.70  0.000114  ( 0.007133  0.007849 -0.001056)
 79:   3131.47   0.001236    6.24  0.000123  ( 0.007252 -0.003852  0.007463)
 80:   3139.48   0.001278    6.46  0.000127  (-0.010337  0.003624  0.002663)
 81:   3145.01   0.001963    9.92  0.000195  (-0.013610  0.002307  0.002062)
 82:   3172.47   0.002735   13.82  0.000269  (-0.004159  0.014758  0.005826)
 83:   3189.34   0.002359   11.92  0.000231  (-0.013434  0.006415 -0.003030)
 84:   3192.25   0.001156    5.84  0.000113  (-0.004388  0.004483 -0.008584)
 85:   3575.31   0.017191   86.88  0.001500  (-0.005606 -0.037300 -0.008818)
 86:   3696.18   0.015591   78.79  0.001316  (-0.022316  0.011082 -0.026372)

* The epsilon (eps) is given for a Dirac delta lineshape.
** The dipole moment derivative (T) already includes vibrational overlap.

The first frequency considered to be a vibration is 6
The total number of vibrations considered is 81


--------------------------
THERMOCHEMISTRY AT 298.15K
--------------------------

Temperature         ... 298.15 K
Pressure            ... 1.00 atm
Total Mass          ... 201.23 AMU

Throughout the following assumptions are being made:
  (1) The electronic state is orbitally nondegenerate
  (2) There are no thermally accessible electronically excited states
  (3) Hindered rotations indicated by low frequency modes are not
      treated as such but are treated as vibrations and this may
      cause some error
  (4) All equations used are the standard statistical mechanics
      equations for an ideal gas
  (5) All vibrations are strictly harmonic

freq.       9.69  E(vib)   ...       0.58 
freq.      29.22  E(vib)   ...       0.55 
freq.      38.65  E(vib)   ...       0.54 
freq.      54.26  E(vib)   ...       0.52 
freq.      63.49  E(vib)   ...       0.51 
freq.      71.43  E(vib)   ...       0.50 
freq.      95.90  E(vib)   ...       0.47 
freq.     105.61  E(vib)   ...       0.45 
freq.     136.48  E(vib)   ...       0.42 
freq.     193.17  E(vib)   ...       0.36 
freq.     201.11  E(vib)   ...       0.35 
freq.     202.17  E(vib)   ...       0.35 
freq.     228.95  E(vib)   ...       0.32 
freq.     247.14  E(vib)   ...       0.31 
freq.     305.47  E(vib)   ...       0.26 
freq.     356.00  E(vib)   ...       0.22 
freq.     393.56  E(vib)   ...       0.20 
freq.     409.18  E(vib)   ...       0.19 
freq.     422.28  E(vib)   ...       0.18 
freq.     444.58  E(vib)   ...       0.17 
freq.     493.51  E(vib)   ...       0.14 
freq.     534.58  E(vib)   ...       0.13 
freq.     559.49  E(vib)   ...       0.12 
freq.     587.69  E(vib)   ...       0.10 
freq.     592.89  E(vib)   ...       0.10 
freq.     622.72  E(vib)   ...       0.09 
freq.     644.60  E(vib)   ...       0.09 
freq.     703.77  E(vib)   ...       0.07 
freq.     806.15  E(vib)   ...       0.05 
freq.     826.92  E(vib)   ...       0.04 
freq.     853.26  E(vib)   ...       0.04 
freq.     965.76  E(vib)   ...       0.03 
freq.     980.12  E(vib)   ...       0.02 
freq.     996.48  E(vib)   ...       0.02 
freq.    1015.73  E(vib)   ...       0.02 
freq.    1061.61  E(vib)   ...       0.02 
freq.    1088.09  E(vib)   ...       0.02 
freq.    1106.58  E(vib)   ...       0.02 
freq.    1123.91  E(vib)   ...       0.01 
freq.    1134.23  E(vib)   ...       0.01 
freq.    1166.73  E(vib)   ...       0.01 
freq.    1183.20  E(vib)   ...       0.01 
freq.    1239.71  E(vib)   ...       0.01 
freq.    1273.04  E(vib)   ...       0.01 
freq.    1288.77  E(vib)   ...       0.01 
freq.    1324.14  E(vib)   ...       0.01 
freq.    1351.23  E(vib)   ...       0.01 
freq.    1383.65  E(vib)   ...       0.00 
freq.    1406.26  E(vib)   ...       0.00 
freq.    1425.12  E(vib)   ...       0.00 
freq.    1443.37  E(vib)   ...       0.00 
freq.    1454.54  E(vib)   ...       0.00 
freq.    1468.30  E(vib)   ...       0.00 
freq.    1483.65  E(vib)   ...       0.00 
freq.    1489.75  E(vib)   ...       0.00 
freq.    1493.65  E(vib)   ...       0.00 
freq.    1504.58  E(vib)   ...       0.00 
freq.    1505.31  E(vib)   ...       0.00 
freq.    1513.50  E(vib)   ...       0.00 
freq.    1519.08  E(vib)   ...       0.00 
freq.    1521.17  E(vib)   ...       0.00 
freq.    1556.24  E(vib)   ...       0.00 
freq.    1639.39  E(vib)   ...       0.00 
freq.    1721.60  E(vib)   ...       0.00 
freq.    1730.77  E(vib)   ...       0.00 
freq.    1765.08  E(vib)   ...       0.00 
freq.    3036.12  E(vib)   ...       0.00 
freq.    3041.92  E(vib)   ...       0.00 
freq.    3063.35  E(vib)   ...       0.00 
freq.    3069.23  E(vib)   ...       0.00 
freq.    3092.76  E(vib)   ...       0.00 
freq.    3095.51  E(vib)   ...       0.00 
freq.    3096.71  E(vib)   ...       0.00 
freq.    3131.47  E(vib)   ...       0.00 
freq.    3139.48  E(vib)   ...       0.00 
freq.    3145.01  E(vib)   ...       0.00 
freq.    3172.47  E(vib)   ...       0.00 
freq.    3189.34  E(vib)   ...       0.00 
freq.    3192.25  E(vib)   ...       0.00 
freq.    3575.31  E(vib)   ...       0.00 
freq.    3696.18  E(vib)   ...       0.00 

------------
INNER ENERGY
------------

The inner energy is: U= E(el) + E(ZPE) + E(vib) + E(rot) + E(trans)
    E(el)   - is the total energy from the electronic structure calculation
              = E(kin-el) + E(nuc-el) + E(el-el) + E(nuc-nuc)
    E(ZPE)  - the the zero temperature vibrational energy from the frequency calculation
    E(vib)  - the the finite temperature correction to E(ZPE) due to population
              of excited vibrational states
    E(rot)  - is the rotational thermal energy
    E(trans)- is the translational thermal energy

Summary of contributions to the inner energy U:
Electronic energy                ...   -703.50248598 Eh
Zero point energy                ...      0.24215881 Eh     151.96 kcal/mol
Thermal vibrational correction   ...      0.01386843 Eh       8.70 kcal/mol
Thermal rotational correction    ...      0.00141627 Eh       0.89 kcal/mol
Thermal translational correction ...      0.00141627 Eh       0.89 kcal/mol
-----------------------------------------------------------------------
Total thermal energy                   -703.24362620 Eh


Summary of corrections to the electronic energy:
(perhaps to be used in another calculation)
Total thermal correction                  0.01670097 Eh      10.48 kcal/mol
Non-thermal (ZPE) correction              0.24215881 Eh     151.96 kcal/mol
-----------------------------------------------------------------------
Total correction                          0.25885978 Eh     162.44 kcal/mol


--------
ENTHALPY
--------

The enthalpy is H = U + kB*T
                kB is Boltzmann's constant
Total free energy                 ...   -703.24362620 Eh 
Thermal Enthalpy correction       ...      0.00094421 Eh       0.59 kcal/mol
-----------------------------------------------------------------------
Total Enthalpy                    ...   -703.24268199 Eh


Note: Only C1 symmetry has been detected, increase convergence thresholds 
      if your molecule has a higher symmetry. Symmetry factor of 1.0 is   
      used for the rotational entropy correction. 
 

Note: Rotational entropy computed according to Herzberg 
Infrared and Raman Spectra, Chapter V,1, Van Nostrand Reinhold, 1945 
Point Group:  C1, Symmetry Number:   1  
Rotational constants in cm-1:     0.031093     0.013927     0.011602 

Vibrational entropy computed according to the QRRHO of S. Grimme
Chem.Eur.J. 2012 18 9955


-------
ENTROPY
-------

The entropy contributions are T*S = T*(S(el)+S(vib)+S(rot)+S(trans))
     S(el)   - electronic entropy
     S(vib)  - vibrational entropy
     S(rot)  - rotational entropy
     S(trans)- translational entropy
The entropies will be listed as multiplied by the temperature to get
units of energy

Electronic entropy                ...      0.00000000 Eh      0.00 kcal/mol
Vibrational entropy               ...      0.02581033 Eh     16.20 kcal/mol
Rotational entropy                ...      0.01527094 Eh      9.58 kcal/mol
Translational entropy             ...      0.01986158 Eh     12.46 kcal/mol
-----------------------------------------------------------------------
Final entropy term                ...      0.06094285 Eh     38.24 kcal/mol

In case the symmetry of your molecule has not been determined correctly
or in case you have a reason to use a different symmetry number we print 
out the resulting rotational entropy values for sn=1,12 :
 --------------------------------------------------------
|  sn= 1 | S(rot)=       0.01527094 Eh      9.58 kcal/mol|
|  sn= 2 | S(rot)=       0.01461649 Eh      9.17 kcal/mol|
|  sn= 3 | S(rot)=       0.01423365 Eh      8.93 kcal/mol|
|  sn= 4 | S(rot)=       0.01396203 Eh      8.76 kcal/mol|
|  sn= 5 | S(rot)=       0.01375134 Eh      8.63 kcal/mol|
|  sn= 6 | S(rot)=       0.01357920 Eh      8.52 kcal/mol|
|  sn= 7 | S(rot)=       0.01343365 Eh      8.43 kcal/mol|
|  sn= 8 | S(rot)=       0.01330757 Eh      8.35 kcal/mol|
|  sn= 9 | S(rot)=       0.01319637 Eh      8.28 kcal/mol|
|  sn=10 | S(rot)=       0.01309689 Eh      8.22 kcal/mol|
|  sn=11 | S(rot)=       0.01300690 Eh      8.16 kcal/mol|
|  sn=12 | S(rot)=       0.01292474 Eh      8.11 kcal/mol|
 --------------------------------------------------------


-------------------
GIBBS FREE ENERGY
-------------------

The Gibbs free energy is G = H - T*S

Total enthalpy                    ...   -703.24268199 Eh 
Total entropy correction          ...     -0.06094285 Eh    -38.24 kcal/mol
-----------------------------------------------------------------------
Final Gibbs free energy         ...   -703.30362484 Eh

For completeness - the Gibbs free energy minus the electronic energy
G-E(el)                           ...      0.19886114 Eh    124.79 kcal/mol


Timings for individual modules:

Sum of individual times         ...     1625.206 sec (=  27.087 min)
GTO integral calculation        ...       22.252 sec (=   0.371 min)   1.4 %
SCF iterations                  ...      929.804 sec (=  15.497 min)  57.2 %
SCF Gradient evaluation         ...      264.913 sec (=   4.415 min)  16.3 %
Geometry relaxation             ...        1.494 sec (=   0.025 min)   0.1 %
Analytical frequency calculation...      406.743 sec (=   6.779 min)  25.0 %
                             ****ORCA TERMINATED NORMALLY****
TOTAL RUN TIME: 0 days 0 hours 27 minutes 12 seconds 981 msec
