
                                 *****************
                                 * O   R   C   A *
                                 *****************

                                            #,                                       
                                            ###                                      
                                            ####                                     
                                            #####                                    
                                            ######                                   
                                           ########,                                 
                                     ,,################,,,,,                         
                               ,,#################################,,                 
                          ,,##########################################,,             
                       ,#########################################, ''#####,          
                    ,#############################################,,   '####,        
                  ,##################################################,,,,####,       
                ,###########''''           ''''###############################       
              ,#####''   ,,,,##########,,,,          '''####'''          '####       
            ,##' ,,,,###########################,,,                        '##       
           ' ,,###''''                  '''############,,,                           
         ,,##''                                '''############,,,,        ,,,,,,###''
      ,#''                                            '''#######################'''  
     '                                                          ''''####''''         
             ,#######,   #######,   ,#######,      ##                                
            ,#'     '#,  ##    ##  ,#'     '#,    #''#        ######   ,####,        
            ##       ##  ##   ,#'  ##            #'  '#       #        #'  '#        
            ##       ##  #######   ##           ,######,      #####,   #    #        
            '#,     ,#'  ##    ##  '#,     ,#' ,#      #,         ##   #,  ,#        
             '#######'   ##     ##  '#######'  #'      '#     #####' # '####'        



                  #######################################################
                  #                        -***-                        #
                  #          Department of theory and spectroscopy      #
                  #    Directorship and core code : Frank Neese         #
                  #        Max Planck Institute fuer Kohlenforschung    #
                  #                Kaiser Wilhelm Platz 1               #
                  #                 D-45470 Muelheim/Ruhr               #
                  #                      Germany                        #
                  #                                                     #
                  #                  All rights reserved                #
                  #                        -***-                        #
                  #######################################################


                         Program Version 5.0.4 -  RELEASE  -


 With contributions from (in alphabetic order):
   Daniel Aravena         : Magnetic Suceptibility
   Michael Atanasov       : Ab Initio Ligand Field Theory (pilot matlab implementation)
   Alexander A. Auer      : GIAO ZORA, VPT2 properties, NMR spectrum
   Ute Becker             : Parallelization
   Giovanni Bistoni       : ED, misc. LED, open-shell LED, HFLD
   Martin Brehm           : Molecular dynamics
   Dmytro Bykov           : SCF Hessian
   Vijay G. Chilkuri      : MRCI spin determinant printing, contributions to CSF-ICE
   Dipayan Datta          : RHF DLPNO-CCSD density
   Achintya Kumar Dutta   : EOM-CC, STEOM-CC
   Dmitry Ganyushin       : Spin-Orbit,Spin-Spin,Magnetic field MRCI
   Miquel Garcia          : C-PCM and meta-GGA Hessian, CC/C-PCM, Gaussian charge scheme
   Yang Guo               : DLPNO-NEVPT2, F12-NEVPT2, CIM, IAO-localization
   Andreas Hansen         : Spin unrestricted coupled pair/coupled cluster methods
   Benjamin Helmich-Paris : MC-RPA, TRAH-SCF, COSX integrals
   Lee Huntington         : MR-EOM, pCC
   Robert Izsak           : Overlap fitted RIJCOSX, COSX-SCS-MP3, EOM
   Marcus Kettner         : VPT2
   Christian Kollmar      : KDIIS, OOCD, Brueckner-CCSD(T), CCSD density, CASPT2, CASPT2-K
   Simone Kossmann        : Meta GGA functionals, TD-DFT gradient, OOMP2, MP2 Hessian
   Martin Krupicka        : Initial AUTO-CI
   Lucas Lang             : DCDCAS
   Marvin Lechner         : AUTO-CI (C++ implementation), FIC-MRCC
   Dagmar Lenk            : GEPOL surface, SMD
   Dimitrios Liakos       : Extrapolation schemes; Compound Job, initial MDCI parallelization
   Dimitrios Manganas     : Further ROCIS development; embedding schemes
   Dimitrios Pantazis     : SARC Basis sets
   Anastasios Papadopoulos: AUTO-CI, single reference methods and gradients
   Taras Petrenko         : DFT Hessian,TD-DFT gradient, ASA, ECA, R-Raman, ABS, FL, XAS/XES, NRVS
   Peter Pinski           : DLPNO-MP2, DLPNO-MP2 Gradient
   Christoph Reimann      : Effective Core Potentials
   Marius Retegan         : Local ZFS, SOC
   Christoph Riplinger    : Optimizer, TS searches, QM/MM, DLPNO-CCSD(T), (RO)-DLPNO pert. Triples
   Tobias Risthaus        : Range-separated hybrids, TD-DFT gradient, RPA, STAB
   Michael Roemelt        : Original ROCIS implementation
   Masaaki Saitow         : Open-shell DLPNO-CCSD energy and density
   Barbara Sandhoefer     : DKH picture change effects
   Avijit Sen             : IP-ROCIS
   Kantharuban Sivalingam : CASSCF convergence, NEVPT2, FIC-MRCI
   Bernardo de Souza      : ESD, SOC TD-DFT
   Georgi Stoychev        : AutoAux, RI-MP2 NMR, DLPNO-MP2 response
   Willem Van den Heuvel  : Paramagnetic NMR
   Boris Wezisla          : Elementary symmetry handling
   Frank Wennmohs         : Technical directorship


 We gratefully acknowledge several colleagues who have allowed us to
 interface, adapt or use parts of their codes:
   Stefan Grimme, W. Hujo, H. Kruse, P. Pracht,  : VdW corrections, initial TS optimization,
                  C. Bannwarth, S. Ehlert          DFT functionals, gCP, sTDA/sTD-DF
   Ed Valeev, F. Pavosevic, A. Kumar             : LibInt (2-el integral package), F12 methods
   Garnet Chan, S. Sharma, J. Yang, R. Olivares  : DMRG
   Ulf Ekstrom                                   : XCFun DFT Library
   Mihaly Kallay                                 : mrcc  (arbitrary order and MRCC methods)
   Jiri Pittner, Ondrej Demel                    : Mk-CCSD
   Frank Weinhold                                : gennbo (NPA and NBO analysis)
   Christopher J. Cramer and Donald G. Truhlar   : smd solvation model
   Lars Goerigk                                  : TD-DFT with DH, B97 family of functionals
   V. Asgeirsson, H. Jonsson                     : NEB implementation
   FAccTs GmbH                                   : IRC, NEB, NEB-TS, DLPNO-Multilevel, CI-OPT
                                                   MM, QMMM, 2- and 3-layer-ONIOM, Crystal-QMMM,
                                                   LR-CPCM, SF, NACMEs, symmetry and pop. for TD-DFT,
                                                   nearIR, NL-DFT gradient (VV10), updates on ESD,
                                                   ML-optimized integration grids
   S Lehtola, MJT Oliveira, MAL Marques          : LibXC Library
   Liviu Ungur et al                             : ANISO software


 Your calculation uses the libint2 library for the computation of 2-el integrals
 For citations please refer to: http://libint.valeyev.net

 Your ORCA version has been built with support for libXC version: 5.1.0
 For citations please refer to: https://tddft.org/programs/libxc/

 This ORCA versions uses:
   CBLAS   interface :  Fast vector & matrix operations
   LAPACKE interface :  Fast linear algebra routines
   SCALAPACK package :  Parallel linear algebra routines
   Shared memory     :  Shared parallel matrices
   BLAS/LAPACK       :  OpenBLAS 0.3.15  USE64BITINT DYNAMIC_ARCH NO_AFFINITY SkylakeX SINGLE_THREADED
        Core in use  :  SkylakeX
   Copyright (c) 2011-2014, The OpenBLAS Project




***************************************
The coordinates will be read from file: /users/fjb15167/WWenergy/structures/Nr.xyz
***************************************


Your calculation utilizes the atom-pairwise dispersion correction
based on tight binding partial charges (D4)
Cite in your paper:
E.Caldeweyher, C.Bannwarth, S.Grimme, J.Chem.Phys., (2017), 147, 034112.
E.Caldeweyher, S.Ehlert, A.Hansen, H.Neugebauer, S.Grimme, J.Chem.Phys., (2018), in progress.
   

================================================================================

----- Orbital basis set information -----
Your calculation utilizes the basis: 6-31+G(d)
   H-He, Li-Ne : W. J. Hehre, R. Ditchfield and J.A. Pople, J. Chem. Phys. 56, 2257 (1972).
                 Note: He and Ne are unpublished basis sets taken from the Gaussian program.
                 Note: Li and B from J. D. Dill and J. A. Pople, J. Chem. Phys. 62, 2921 (1975).
   Na - Ar     : M. M. Francl, W. J. Pietro, W. J. Hehre, J. S. Binkley, M. S. Gordon, 
                 D. J. DeFrees and J. A. Pople, J. Chem. Phys. 77, 3654 (1982).
   K - Zn      : V. A. Rassolov, J. A. Pople, M. A. Ratner, and T. L. Windus, J. Chem. Phys. 109, 1223 (1998).
   Additional Pol./Diff. from the 6-311G equivalent.

----- AuxJ basis set information -----
Your calculation utilizes the AutoAux generation procedure.
  G. L. Stoychev, A. A. Auer, F. Neese, J. Chem. Theory Comput. 13, 554 (2017)

----- AuxC basis set information -----
Your calculation utilizes the AutoAux generation procedure.
  G. L. Stoychev, A. A. Auer, F. Neese, J. Chem. Theory Comput. 13, 554 (2017)

----- AuxJK basis set information -----
Your calculation utilizes the AutoAux generation procedure.
  G. L. Stoychev, A. A. Auer, F. Neese, J. Chem. Theory Comput. 13, 554 (2017)

================================================================================
                                        WARNINGS
                       Please study these warnings very carefully!
================================================================================


WARNING: Geometry Optimization
  ===> : Switching off AutoStart
         For restart on a previous wavefunction, please use MOREAD

INFO   : the flag for use of the SHARK integral package has been found!

================================================================================
                                       INPUT FILE
================================================================================
NAME = Nr_octanol.inp
|  1> ! OPT FREQ B3LYP 6-31+G(d) D4 AUTOAUX
|  2> ! CPCM
|  3> 
|  4> %cpcm
|  5> epsilon 9.8629 
|  6> refrac  1.4295 
|  7> end
|  8> 
|  9> %PAL NPROCS 4 END
| 10> 
| 11> %maxcore 3375
| 12> 
| 13> *xyzfile 1 1 /users/fjb15167/WWenergy/structures/Nr.xyz
| 14> 
| 15>                          ****END OF INPUT****
================================================================================

                       *****************************
                       * Geometry Optimization Run *
                       *****************************

Geometry optimization settings:
Update method            Update   .... BFGS
Choice of coordinates    CoordSys .... Z-matrix Internals
Initial Hessian          InHess   .... Almoef's Model

Convergence Tolerances:
Energy Change            TolE     ....  5.0000e-06 Eh
Max. Gradient            TolMAXG  ....  3.0000e-04 Eh/bohr
RMS Gradient             TolRMSG  ....  1.0000e-04 Eh/bohr
Max. Displacement        TolMAXD  ....  4.0000e-03 bohr
RMS Displacement         TolRMSD  ....  2.0000e-03 bohr
Strict Convergence                ....  False
------------------------------------------------------------------------------
                        ORCA OPTIMIZATION COORDINATE SETUP
------------------------------------------------------------------------------

The optimization will be done in new redundant internal coordinates
Making redundant internal coordinates   ...  (new redundants) done
Evaluating the initial hessian          ...  (Almloef) done
Evaluating the coordinates              ...  done
Calculating the B-matrix                .... done
Calculating the G-matrix                .... done
Diagonalizing the G-matrix              .... done
Small eigenvalue found = 2.367e-03
Small eigenvalue found = 3.553e-03
Small eigenvalue found = 9.084e-03
Small eigenvalue found = 1.076e-02
Small eigenvalue found = 1.391e-02
Small eigenvalue found = 2.110e-02
Small eigenvalue found = 2.628e-02
The first mode is                       ....   73
The number of degrees of freedom        ....  111

    -----------------------------------------------------------------
                    Redundant Internal Coordinates


    -----------------------------------------------------------------
         Definition                    Initial Value    Approx d2E/dq
    -----------------------------------------------------------------
      1. B(H   1,C   0)                  1.0920         0.357520   
      2. B(H   2,C   0)                  1.0899         0.360204   
      3. B(H   3,C   0)                  1.0937         0.355213   
      4. B(C   4,C   0)                  1.5266         0.378273   
      5. B(N   5,C   4)                  1.3831         0.573861   
      6. B(C   6,N   5)                  1.4649         0.424918   
      7. B(H   7,C   6)                  1.0953         0.353117   
      8. B(H   8,C   6)                  1.0956         0.352788   
      9. B(C   9,C   6)                  1.5350         0.366731   
     10. B(N  10,C   9)                  1.3625         0.619066   
     11. B(O  11,C   9)                  1.2360         0.985476   
     12. B(O  12,C   4)                  1.2205         1.043058   
     13. B(C  13,N  10)                  1.4531         0.443806   
     14. B(H  14,C  13)                  1.0959         0.352327   
     15. B(H  15,C  13)                  1.0936         0.355314   
     16. B(H  16,C  13)                  1.0891         0.361342   
     17. B(C  17,N  10)                  1.4598         0.432979   
     18. B(H  18,C  17)                  1.0938         0.355092   
     19. B(H  19,C  17)                  1.0945         0.354156   
     20. B(H  20,C  17)                  1.0884         0.362158   
     21. B(C  21,N   5)                  1.4596         0.433363   
     22. B(H  22,C  21)                  1.0934         0.355586   
     23. B(C  23,C  21)                  1.5339         0.368238   
     24. B(H  24,C  23)                  1.0983         0.349277   
     25. B(H  25,C  23)                  1.0968         0.351264   
     26. B(C  26,C  23)                  1.5204         0.386971   
     27. B(H  27,C  26)                  1.0900         0.360061   
     28. B(H  28,C  26)                  1.0944         0.354277   
     29. B(N  29,C  26)                  1.4723         0.413656   
     30. B(H  30,N  29)                  1.0148         0.425198   
     31. B(C  31,N  29)                  1.3312         0.694426   
     32. B(N  32,C  31)                  1.3375         0.678520   
     33. B(N  33,C  31)                  1.3430         0.665095   
     34. B(H  34,N  32)                  1.0133         0.427459   
     35. B(H  35,N  32)                  1.0120         0.429575   
     36. B(H  36,N  33)                  1.0106         0.431771   
     37. B(H  37,N  33)                  1.0114         0.430555   
     38. B(H  38,C  21)                  1.0933         0.355729   
     39. A(H   3,C   0,C   4)          110.1945         0.324257   
     40. A(H   1,C   0,H   2)          110.1881         0.290524   
     41. A(H   1,C   0,H   3)          107.1968         0.289889   
     42. A(H   1,C   0,C   4)          113.7554         0.324602   
     43. A(H   2,C   0,C   4)          106.7096         0.325001   
     44. A(H   2,C   0,H   3)          108.7254         0.290229   
     45. A(C   0,C   4,O  12)          121.6903         0.433253   
     46. A(C   0,C   4,N   5)          116.7183         0.389707   
     47. A(N   5,C   4,O  12)          121.5914         0.464195   
     48. A(C   6,N   5,C  21)          118.4341         0.376331   
     49. A(C   4,N   5,C  21)          116.3197         0.396553   
     50. A(C   4,N   5,C   6)          124.3351         0.395186   
     51. A(H   7,C   6,C   9)          104.5104         0.322300   
     52. A(N   5,C   6,C   9)          116.3732         0.367972   
     53. A(H   7,C   6,H   8)          107.1198         0.289016   
     54. A(N   5,C   6,H   8)          107.3856         0.328172   
     55. A(H   8,C   6,C   9)          109.1551         0.322251   
     56. A(N   5,C   6,H   7)          111.9407         0.328222   
     57. A(C   6,C   9,N  10)          118.0550         0.392774   
     58. A(C   6,C   9,O  11)          118.2423         0.426482   
     59. A(N  10,C   9,O  11)          123.7023         0.465815   
     60. A(C  13,N  10,C  17)          116.0366         0.379115   
     61. A(C   9,N  10,C  17)          118.6476         0.401814   
     62. A(C   9,N  10,C  13)          125.3077         0.403567   
     63. A(H  15,C  13,H  16)          107.5803         0.290386   
     64. A(H  14,C  13,H  16)          109.1293         0.290002   
     65. A(N  10,C  13,H  16)          111.1171         0.331851   
     66. A(H  14,C  13,H  15)          108.6176         0.289238   
     67. A(N  10,C  13,H  15)          108.2524         0.330928   
     68. A(N  10,C  13,H  14)          112.0103         0.330466   
     69. A(H  18,C  17,H  19)          109.0426         0.289444   
     70. A(N  10,C  17,H  19)          109.6974         0.329402   
     71. A(N  10,C  17,H  18)          110.3042         0.329546   
     72. A(H  19,C  17,H  20)          110.0187         0.290340   
     73. A(H  18,C  17,H  20)          109.3738         0.290460   
     74. A(N  10,C  17,H  20)          108.3943         0.330621   
     75. A(H  22,C  21,C  23)          109.9345         0.322885   
     76. A(N   5,C  21,C  23)          114.2153         0.369477   
     77. A(N   5,C  21,H  22)          107.9302         0.329670   
     78. A(C  23,C  21,H  38)          108.4930         0.322906   
     79. A(H  22,C  21,H  38)          107.9595         0.289708   
     80. A(N   5,C  21,H  38)          108.1257         0.329692   
     81. A(H  25,C  23,C  26)          109.9874         0.324873   
     82. A(H  24,C  23,C  26)          109.6951         0.324570   
     83. A(C  21,C  23,C  26)          111.5920         0.364649   
     84. A(H  24,C  23,H  25)          107.6074         0.288326   
     85. A(C  21,C  23,H  25)          109.9602         0.322238   
     86. A(C  21,C  23,H  24)          107.8930         0.321939   
     87. A(H  28,C  26,N  29)          109.9995         0.326949   
     88. A(H  27,C  26,N  29)          107.7437         0.327823   
     89. A(C  23,C  26,N  29)          110.8409         0.369673   
     90. A(H  27,C  26,H  28)          108.1652         0.290091   
     91. A(C  23,C  26,H  28)          109.8852         0.325329   
     92. A(C  23,C  26,H  27)          110.1433         0.326197   
     93. A(H  30,N  29,C  31)          118.0484         0.364583   
     94. A(C  26,N  29,C  31)          122.4251         0.406753   
     95. A(C  26,N  29,H  30)          118.5519         0.334093   
     96. A(N  32,C  31,N  33)          119.3461         0.440960   
     97. A(N  29,C  31,N  33)          120.6270         0.442810   
     98. A(N  29,C  31,N  32)          120.0163         0.444414   
     99. A(H  34,N  32,H  35)          117.4235         0.302315   
    100. A(C  31,N  32,H  35)          121.0193         0.363778   
    101. A(C  31,N  32,H  34)          121.3811         0.363471   
    102. A(H  36,N  33,H  37)          117.3332         0.302910   
    103. A(C  31,N  33,H  37)          121.3050         0.362679   
    104. A(C  31,N  33,H  36)          121.1994         0.362854   
    105. D(O  12,C   4,C   0,H   3)   -106.7842         0.010684   
    106. D(O  12,C   4,C   0,H   1)    132.8136         0.010684   
    107. D(N   5,C   4,C   0,H   1)    -47.0966         0.010684   
    108. D(O  12,C   4,C   0,H   2)     11.0918         0.010684   
    109. D(N   5,C   4,C   0,H   3)     73.3056         0.010684   
    110. D(N   5,C   4,C   0,H   2)   -168.8184         0.010684   
    111. D(C  21,N   5,C   4,C   0)   -179.7394         0.026377   
    112. D(C   6,N   5,C   4,O  12)   -168.5185         0.026377   
    113. D(C  21,N   5,C   4,O  12)      0.3503         0.026377   
    114. D(C   6,N   5,C   4,C   0)     11.3918         0.026377   
    115. D(C   9,C   6,N   5,C   4)    -56.5868         0.015394   
    116. D(H   7,C   6,N   5,C  21)   -105.1567         0.015394   
    117. D(H   8,C   6,N   5,C   4)   -179.2039         0.015394   
    118. D(H   8,C   6,N   5,C  21)     12.1449         0.015394   
    119. D(H   7,C   6,N   5,C   4)     63.4945         0.015394   
    120. D(C   9,C   6,N   5,C  21)    134.7620         0.015394   
    121. D(O  11,C   9,C   6,H   8)   -111.6225         0.010084   
    122. D(O  11,C   9,C   6,H   7)      2.6949         0.010084   
    123. D(O  11,C   9,C   6,N   5)    126.6898         0.010084   
    124. D(N  10,C   9,C   6,H   7)   -177.5178         0.010084   
    125. D(N  10,C   9,C   6,H   8)     68.1648         0.010084   
    126. D(N  10,C   9,C   6,N   5)    -53.5228         0.010084   
    127. D(C  17,N  10,C   9,C   6)    175.8927         0.031026   
    128. D(C  13,N  10,C   9,O  11)    174.5934         0.031026   
    129. D(C  13,N  10,C   9,C   6)     -5.1814         0.031026   
    130. D(C  17,N  10,C   9,O  11)     -4.3325         0.031026   
    131. D(H  15,C  13,N  10,C   9)   -143.1923         0.016797   
    132. D(H  14,C  13,N  10,C  17)    -83.9708         0.016797   
    133. D(H  15,C  13,N  10,C  17)     35.7587         0.016797   
    134. D(H  14,C  13,N  10,C   9)     97.0782         0.016797   
    135. D(H  16,C  13,N  10,C   9)    -25.2676         0.016797   
    136. D(H  16,C  13,N  10,C  17)    153.6834         0.016797   
    137. D(H  20,C  17,N  10,C  13)    174.7005         0.015984   
    138. D(H  20,C  17,N  10,C   9)     -6.2750         0.015984   
    139. D(H  19,C  17,N  10,C  13)     54.5527         0.015984   
    140. D(H  19,C  17,N  10,C   9)   -126.4228         0.015984   
    141. D(H  18,C  17,N  10,C  13)    -65.5775         0.015984   
    142. D(H  18,C  17,N  10,C   9)    113.4470         0.015984   
    143. D(H  38,C  21,N   5,C   6)    -37.1855         0.016012   
    144. D(H  38,C  21,N   5,C   4)    153.2592         0.016012   
    145. D(C  23,C  21,N   5,C   6)     83.6899         0.016012   
    146. D(C  23,C  21,N   5,C   4)    -85.8655         0.016012   
    147. D(H  22,C  21,N   5,C   6)   -153.7322         0.016012   
    148. D(H  22,C  21,N   5,C   4)     36.7125         0.016012   
    149. D(C  26,C  23,C  21,H  38)   -172.4772         0.010846   
    150. D(C  26,C  23,C  21,H  22)    -54.6273         0.010846   
    151. D(C  26,C  23,C  21,N   5)     66.8515         0.010846   
    152. D(H  25,C  23,C  21,H  38)     65.1897         0.010846   
    153. D(H  25,C  23,C  21,H  22)   -176.9604         0.010846   
    154. D(H  25,C  23,C  21,N   5)    -55.4815         0.010846   
    155. D(H  24,C  23,C  21,H  38)    -51.9035         0.010846   
    156. D(H  24,C  23,C  21,H  22)     65.9464         0.010846   
    157. D(H  24,C  23,C  21,N   5)   -172.5747         0.010846   
    158. D(N  29,C  26,C  23,H  25)    -61.2173         0.011913   
    159. D(N  29,C  26,C  23,H  24)     56.9519         0.011913   
    160. D(N  29,C  26,C  23,C  21)    176.4652         0.011913   
    161. D(H  28,C  26,C  23,H  25)    176.9896         0.011913   
    162. D(H  28,C  26,C  23,H  24)    -64.8412         0.011913   
    163. D(H  28,C  26,C  23,C  21)     54.6721         0.011913   
    164. D(H  27,C  26,C  23,H  25)     57.9247         0.011913   
    165. D(H  27,C  26,C  23,H  24)    176.0940         0.011913   
    166. D(H  27,C  26,C  23,C  21)    -64.3927         0.011913   
    167. D(H  30,N  29,C  26,C  23)    -20.4254         0.014594   
    168. D(C  31,N  29,C  26,H  28)    -67.1766         0.014594   
    169. D(C  31,N  29,C  26,H  27)     50.5205         0.014594   
    170. D(C  31,N  29,C  26,C  23)    171.0973         0.014594   
    171. D(H  30,N  29,C  26,H  28)    101.3007         0.014594   
    172. D(H  30,N  29,C  26,H  27)   -141.0022         0.014594   
    173. D(N  33,C  31,N  29,H  30)     16.5425         0.039842   
    174. D(N  33,C  31,N  29,C  26)   -174.9251         0.039842   
    175. D(N  32,C  31,N  29,H  30)   -164.6468         0.039842   
    176. D(N  32,C  31,N  29,C  26)      3.8856         0.039842   
    177. D(H  35,N  32,C  31,N  33)     13.3819         0.037867   
    178. D(H  35,N  32,C  31,N  29)   -165.4440         0.037867   
    179. D(H  34,N  32,C  31,N  33)   -171.5648         0.037867   
    180. D(H  34,N  32,C  31,N  29)      9.6093         0.037867   
    181. D(H  37,N  33,C  31,N  32)     16.3438         0.036248   
    182. D(H  37,N  33,C  31,N  29)   -164.8376         0.036248   
    183. D(H  36,N  33,C  31,N  32)   -168.4112         0.036248   
    184. D(H  36,N  33,C  31,N  29)     10.4074         0.036248   
    -----------------------------------------------------------------

Number of atoms                         .... 39
Number of degrees of freedom            .... 184

         *************************************************************
         *                GEOMETRY OPTIMIZATION CYCLE   1            *
         *************************************************************
---------------------------------
CARTESIAN COORDINATES (ANGSTROEM)
---------------------------------
  C      1.894000    2.080000    0.542000
  H      1.869000    1.745000    1.581000
  H      1.542000    3.109000    0.470000
  H      2.937000    2.042000    0.215000
  C      1.018000    1.250000   -0.393000
  N      1.125000   -0.125000   -0.288000
  C      1.823000   -0.819000    0.797000
  H      1.352000   -0.637000    1.769000
  H      1.749000   -1.894000    0.599000
  C      3.297000   -0.446000    1.008000
  N      4.137000   -0.523000   -0.062000
  O      3.656000   -0.097000    2.138000
  O      0.259000    1.773000   -1.193000
  C      3.780000   -1.033000   -1.375000
  H      3.518000   -0.228000   -2.071000
  H      4.640000   -1.576000   -1.777000
  H      2.949000   -1.734000   -1.311000
  C      5.520000   -0.085000    0.101000
  H      6.201000   -0.936000    0.009000
  H      5.766000    0.654000   -0.668000
  H      5.626000    0.357000    1.090000
  C      0.288000   -0.910000   -1.190000
  H      0.241000   -0.385000   -2.148000
  C     -1.130000   -1.170000   -0.666000
  H     -1.620000   -1.873000   -1.353000
  H     -1.083000   -1.648000    0.320000
  C     -1.940000    0.114000   -0.583000
  H     -1.498000    0.790000    0.149000
  H     -1.941000    0.617000   -1.555000
  N     -3.322000   -0.165000   -0.159000
  H     -3.684000   -1.106000   -0.274000
  C     -4.181000    0.802000    0.156000
  N     -3.825000    2.084000    0.019000
  N     -5.400000    0.505000    0.635000
  H     -2.968000    2.346000   -0.454000
  H     -4.365000    2.824000    0.449000
  H     -5.638000   -0.437000    0.913000
  H     -6.136000    1.198000    0.665000
  H      0.778000   -1.873000   -1.357000

----------------------------
CARTESIAN COORDINATES (A.U.)
----------------------------
  NO LB      ZA    FRAG     MASS         X           Y           Z
   0 C     6.0000    0    12.011    3.579141    3.930630    1.024232
   1 H     1.0000    0     1.008    3.531898    3.297572    2.987657
   2 H     1.0000    0     1.008    2.913958    5.875159    0.888171
   3 H     1.0000    0     1.008    5.550126    3.858821    0.406291
   4 C     6.0000    0    12.011    1.923741    2.362158   -0.742662
   5 N     7.0000    0    14.007    2.125942   -0.236216   -0.544241
   6 C     6.0000    0    12.011    3.444971   -1.547686    1.506112
   7 H     1.0000    0     1.008    2.554910   -1.203756    3.342926
   8 H     1.0000    0     1.008    3.305131   -3.579141    1.131946
   9 C     6.0000    0    12.011    6.230427   -0.842818    1.904844
  10 N     7.0000    0    14.007    7.817797   -0.988327   -0.117163
  11 O     8.0000    0    15.999    6.908839   -0.183303    4.040234
  12 O     8.0000    0    15.999    0.489439    3.350484   -2.254443
  13 C     6.0000    0    12.011    7.143165   -1.952087   -2.598373
  14 H     1.0000    0     1.008    6.648057   -0.430858   -3.913623
  15 H     1.0000    0     1.008    8.768329   -2.978208   -3.358043
  16 H     1.0000    0     1.008    5.572802   -3.276785   -2.477431
  17 C     6.0000    0    12.011   10.431288   -0.160627    0.190862
  18 H     1.0000    0     1.008   11.718192   -1.768784    0.017008
  19 H     1.0000    0     1.008   10.896161    1.235881   -1.262337
  20 H     1.0000    0     1.008   10.631599    0.674632    2.059801
  21 C     6.0000    0    12.011    0.544241   -1.719651   -2.248774
  22 H     1.0000    0     1.008    0.455424   -0.727545   -4.059132
  23 C     6.0000    0    12.011   -2.135391   -2.210980   -1.258558
  24 H     1.0000    0     1.008   -3.061356   -3.539457   -2.556799
  25 H     1.0000    0     1.008   -2.046573   -3.114269    0.604712
  26 C     6.0000    0    12.011   -3.666069    0.215429   -1.101710
  27 H     1.0000    0     1.008   -2.830810    1.492884    0.281569
  28 H     1.0000    0     1.008   -3.667958    1.165961   -2.938524
  29 N     7.0000    0    14.007   -6.277670   -0.311805   -0.300466
  30 H     1.0000    0     1.008   -6.961751   -2.090037   -0.517785
  31 C     6.0000    0    12.011   -7.900945    1.515560    0.294797
  32 N     7.0000    0    14.007   -7.228202    3.938189    0.035905
  33 N     7.0000    0    14.007  -10.204521    0.954312    1.199976
  34 H     1.0000    0     1.008   -5.608707    4.433298   -0.857936
  35 H     1.0000    0     1.008   -8.248655    5.336587    0.848487
  36 H     1.0000    0     1.008  -10.654276   -0.825810    1.725320
  37 H     1.0000    0     1.008  -11.595360    2.263892    1.256668
  38 H     1.0000    0     1.008    1.470207   -3.539457   -2.564358

--------------------------------
INTERNAL COORDINATES (ANGSTROEM)
--------------------------------
 C      0   0   0     0.000000000000     0.00000000     0.00000000
 H      1   0   0     1.091957416752     0.00000000     0.00000000
 H      1   2   0     1.089921556810   110.18805158     0.00000000
 H      1   2   3     1.093719342427   107.19675427   118.15450329
 C      1   2   3     1.526597851433   113.75542193   240.22940067
 N      5   1   2     1.383148220546   116.71825440   312.90340151
 C      6   5   1     1.464945391474   124.33505451    11.39177437
 H      7   6   5     1.095330543717   111.94072292    63.49448726
 H      7   6   5     1.095584318982   107.38564007   180.79609710
 C      7   6   5     1.535032898670   116.37316090   303.41319699
 N     10   7   6     1.362508348598   118.05497749   306.47715234
 O     10   7   6     1.235953882635   118.24234789   126.68982536
 O      5   1   2     1.220495800894   121.69031143   132.81359183
 C     11  10   7     1.453106327837   125.30770598   354.81863341
 H     14  11  10     1.095940235597   112.01025900    97.07820790
 H     14  11  10     1.093642080390   108.25238780   216.80774312
 H     14  11  10     1.089062899928   111.11712825   334.73240785
 C     11  10   7     1.459829442092   118.64763753   175.89269008
 H     18  11  10     1.093812598209   110.30417586   113.44701741
 H     18  11  10     1.094530949768   109.69743241   233.57723534
 H     18  11  10     1.088448896366   108.39432048   353.72497202
 C      6   5   1     1.459588298117   116.31969076   180.26057648
 H     22   6   5     1.093434040077   107.93018565    36.71248520
 C     22   6   5     1.533916555749   114.21534211   274.13454726
 H     24  22   6     1.098306878791   107.89302716   187.42528797
 H     24  22   6     1.096762964364   109.96024121   304.51848947
 C     24  22   6     1.520409484317   111.59204187    66.85154482
 H     27  24  22     1.090029357403   110.14329538   295.60728998
 H     27  24  22     1.094437755197   109.88522943    54.67211676
 N     27  24  22     1.472257110698   110.84087475   176.46521514
 H     30  27  24     1.014765982875   118.55192194   339.57459310
 C     30  27  24     1.331238145487   122.42509736   171.09732458
 N     32  30  27     1.337545887063   120.01631080     3.88560761
 N     32  30  27     1.342985852494   120.62701416   185.07494830
 H     33  32  30     1.013322258711   121.38112095     9.60927798
 H     33  32  30     1.011978260636   121.01932415   194.55603950
 H     34  32  30     1.010589926726   121.19938860    10.40737588
 H     34  32  30     1.011357997941   121.30501752   195.16237409
 H     22   6   5     1.093324288580   108.12570719   153.25919147

---------------------------
INTERNAL COORDINATES (A.U.)
---------------------------
 C      0   0   0     0.000000000000     0.00000000     0.00000000
 H      1   0   0     2.063500467566     0.00000000     0.00000000
 H      1   2   0     2.059653249829   110.18805158     0.00000000
 H      1   2   3     2.066830024560   107.19675427   118.15450329
 C      1   2   3     2.884851855841   113.75542193   240.22940067
 N      5   1   2     2.613771339453   116.71825440   312.90340151
 C      6   5   1     2.768345591035   124.33505451    11.39177437
 H      7   6   5     2.069874753745   111.94072292    63.49448726
 H      7   6   5     2.070354319495   107.38564007   180.79609710
 C      7   6   5     2.900791785046   116.37316090   303.41319699
 N     10   7   6     2.574767634032   118.05497749   306.47715234
 O     10   7   6     2.335614352336   118.24234789   126.68982536
 O      5   1   2     2.306402811291   121.69031143   132.81359183
 C     11  10   7     2.745973003080   125.30770598   354.81863341
 H     14  11  10     2.071026904423   112.01025900    97.07820790
 H     14  11  10     2.066684020469   108.25238780   216.80774312
 H     14  11  10     2.058030623478   111.11712825   334.73240785
 C     11  10   7     2.758677847790   118.64763753   175.89269008
 H     18  11  10     2.067006252447   110.30417586   113.44701741
 H     18  11  10     2.068363740162   109.69743241   233.57723534
 H     18  11  10     2.056870324900   108.39432048   353.72497202
 C      6   5   1     2.758222151717   116.31969076   180.26057648
 H     22   6   5     2.066290881253   107.93018565    36.71248520
 C     22   6   5     2.898682202653   114.21534211   274.13454726
 H     24  22   6     2.075499211917   107.89302716   187.42528797
 H     24  22   6     2.072581636475   109.96024121   304.51848947
 C     24  22   6     2.873157536775   111.59204187    66.85154482
 H     27  24  22     2.059856963425   110.14329538   295.60728998
 H     27  24  22     2.068187627945   109.88522943    54.67211676
 N     27  24  22     2.782162737937   110.84087475   176.46521514
 H     30  27  24     1.917629797653   118.55192194   339.57459310
 C     30  27  24     2.515675514000   122.42509736   171.09732458
 N     32  30  27     2.527595418102   120.01631080     3.88560761
 N     32  30  27     2.537875462945   120.62701416   185.07494830
 H     33  32  30     1.914901554371   121.38112095     9.60927798
 H     33  32  30     1.912361766084   121.01932415   194.55603950
 H     34  32  30     1.909738195212   121.19938860    10.40737588
 H     34  32  30     1.911189639460   121.30501752   195.16237409
 H     22   6   5     2.066083480981   108.12570719   153.25919147

---------------------
BASIS SET INFORMATION
---------------------
There are 4 groups of distinct atoms

 Group   1 Type C   : 11s5p1d contracted to 4s3p1d pattern {6311/311/1}
 Group   2 Type H   : 4s contracted to 2s pattern {31}
 Group   3 Type N   : 11s5p1d contracted to 4s3p1d pattern {6311/311/1}
 Group   4 Type O   : 11s5p1d contracted to 4s3p1d pattern {6311/311/1}

Atom   0C    basis set group =>   1
Atom   1H    basis set group =>   2
Atom   2H    basis set group =>   2
Atom   3H    basis set group =>   2
Atom   4C    basis set group =>   1
Atom   5N    basis set group =>   3
Atom   6C    basis set group =>   1
Atom   7H    basis set group =>   2
Atom   8H    basis set group =>   2
Atom   9C    basis set group =>   1
Atom  10N    basis set group =>   3
Atom  11O    basis set group =>   4
Atom  12O    basis set group =>   4
Atom  13C    basis set group =>   1
Atom  14H    basis set group =>   2
Atom  15H    basis set group =>   2
Atom  16H    basis set group =>   2
Atom  17C    basis set group =>   1
Atom  18H    basis set group =>   2
Atom  19H    basis set group =>   2
Atom  20H    basis set group =>   2
Atom  21C    basis set group =>   1
Atom  22H    basis set group =>   2
Atom  23C    basis set group =>   1
Atom  24H    basis set group =>   2
Atom  25H    basis set group =>   2
Atom  26C    basis set group =>   1
Atom  27H    basis set group =>   2
Atom  28H    basis set group =>   2
Atom  29N    basis set group =>   3
Atom  30H    basis set group =>   2
Atom  31C    basis set group =>   1
Atom  32N    basis set group =>   3
Atom  33N    basis set group =>   3
Atom  34H    basis set group =>   2
Atom  35H    basis set group =>   2
Atom  36H    basis set group =>   2
Atom  37H    basis set group =>   2
Atom  38H    basis set group =>   2
---------------------------------
AUXILIARY/J BASIS SET INFORMATION
---------------------------------
There are 4 groups of distinct atoms

 Group   1 Type C   : 16s13p12d2f contracted to 16s13p12d2f pattern {1111111111111111/1111111111111/111111111111/11}
 Group   2 Type H   : 9s2p contracted to 9s2p pattern {111111111/11}
 Group   3 Type N   : 16s13p12d3f contracted to 16s13p12d3f pattern {1111111111111111/1111111111111/111111111111/111}
 Group   4 Type O   : 16s13p12d3f contracted to 16s13p12d3f pattern {1111111111111111/1111111111111/111111111111/111}

Atom   0C    basis set group =>   1
Atom   1H    basis set group =>   2
Atom   2H    basis set group =>   2
Atom   3H    basis set group =>   2
Atom   4C    basis set group =>   1
Atom   5N    basis set group =>   3
Atom   6C    basis set group =>   1
Atom   7H    basis set group =>   2
Atom   8H    basis set group =>   2
Atom   9C    basis set group =>   1
Atom  10N    basis set group =>   3
Atom  11O    basis set group =>   4
Atom  12O    basis set group =>   4
Atom  13C    basis set group =>   1
Atom  14H    basis set group =>   2
Atom  15H    basis set group =>   2
Atom  16H    basis set group =>   2
Atom  17C    basis set group =>   1
Atom  18H    basis set group =>   2
Atom  19H    basis set group =>   2
Atom  20H    basis set group =>   2
Atom  21C    basis set group =>   1
Atom  22H    basis set group =>   2
Atom  23C    basis set group =>   1
Atom  24H    basis set group =>   2
Atom  25H    basis set group =>   2
Atom  26C    basis set group =>   1
Atom  27H    basis set group =>   2
Atom  28H    basis set group =>   2
Atom  29N    basis set group =>   3
Atom  30H    basis set group =>   2
Atom  31C    basis set group =>   1
Atom  32N    basis set group =>   3
Atom  33N    basis set group =>   3
Atom  34H    basis set group =>   2
Atom  35H    basis set group =>   2
Atom  36H    basis set group =>   2
Atom  37H    basis set group =>   2
Atom  38H    basis set group =>   2
---------------------------------
AUXILIARY/C BASIS SET INFORMATION
---------------------------------
There are 4 groups of distinct atoms

 Group   1 Type C   : 16s13p12d2f contracted to 16s13p12d2f pattern {1111111111111111/1111111111111/111111111111/11}
 Group   2 Type H   : 9s2p contracted to 9s2p pattern {111111111/11}
 Group   3 Type N   : 16s13p12d3f contracted to 16s13p12d3f pattern {1111111111111111/1111111111111/111111111111/111}
 Group   4 Type O   : 16s13p12d3f contracted to 16s13p12d3f pattern {1111111111111111/1111111111111/111111111111/111}

Atom   0C    basis set group =>   1
Atom   1H    basis set group =>   2
Atom   2H    basis set group =>   2
Atom   3H    basis set group =>   2
Atom   4C    basis set group =>   1
Atom   5N    basis set group =>   3
Atom   6C    basis set group =>   1
Atom   7H    basis set group =>   2
Atom   8H    basis set group =>   2
Atom   9C    basis set group =>   1
Atom  10N    basis set group =>   3
Atom  11O    basis set group =>   4
Atom  12O    basis set group =>   4
Atom  13C    basis set group =>   1
Atom  14H    basis set group =>   2
Atom  15H    basis set group =>   2
Atom  16H    basis set group =>   2
Atom  17C    basis set group =>   1
Atom  18H    basis set group =>   2
Atom  19H    basis set group =>   2
Atom  20H    basis set group =>   2
Atom  21C    basis set group =>   1
Atom  22H    basis set group =>   2
Atom  23C    basis set group =>   1
Atom  24H    basis set group =>   2
Atom  25H    basis set group =>   2
Atom  26C    basis set group =>   1
Atom  27H    basis set group =>   2
Atom  28H    basis set group =>   2
Atom  29N    basis set group =>   3
Atom  30H    basis set group =>   2
Atom  31C    basis set group =>   1
Atom  32N    basis set group =>   3
Atom  33N    basis set group =>   3
Atom  34H    basis set group =>   2
Atom  35H    basis set group =>   2
Atom  36H    basis set group =>   2
Atom  37H    basis set group =>   2
Atom  38H    basis set group =>   2
----------------------------------
AUXILIARY/JK BASIS SET INFORMATION
----------------------------------
There are 4 groups of distinct atoms

 Group   1 Type C   : 16s13p12d2f contracted to 16s13p12d2f pattern {1111111111111111/1111111111111/111111111111/11}
 Group   2 Type H   : 9s2p contracted to 9s2p pattern {111111111/11}
 Group   3 Type N   : 16s13p12d3f contracted to 16s13p12d3f pattern {1111111111111111/1111111111111/111111111111/111}
 Group   4 Type O   : 16s13p12d3f contracted to 16s13p12d3f pattern {1111111111111111/1111111111111/111111111111/111}

Atom   0C    basis set group =>   1
Atom   1H    basis set group =>   2
Atom   2H    basis set group =>   2
Atom   3H    basis set group =>   2
Atom   4C    basis set group =>   1
Atom   5N    basis set group =>   3
Atom   6C    basis set group =>   1
Atom   7H    basis set group =>   2
Atom   8H    basis set group =>   2
Atom   9C    basis set group =>   1
Atom  10N    basis set group =>   3
Atom  11O    basis set group =>   4
Atom  12O    basis set group =>   4
Atom  13C    basis set group =>   1
Atom  14H    basis set group =>   2
Atom  15H    basis set group =>   2
Atom  16H    basis set group =>   2
Atom  17C    basis set group =>   1
Atom  18H    basis set group =>   2
Atom  19H    basis set group =>   2
Atom  20H    basis set group =>   2
Atom  21C    basis set group =>   1
Atom  22H    basis set group =>   2
Atom  23C    basis set group =>   1
Atom  24H    basis set group =>   2
Atom  25H    basis set group =>   2
Atom  26C    basis set group =>   1
Atom  27H    basis set group =>   2
Atom  28H    basis set group =>   2
Atom  29N    basis set group =>   3
Atom  30H    basis set group =>   2
Atom  31C    basis set group =>   1
Atom  32N    basis set group =>   3
Atom  33N    basis set group =>   3
Atom  34H    basis set group =>   2
Atom  35H    basis set group =>   2
Atom  36H    basis set group =>   2
Atom  37H    basis set group =>   2
Atom  38H    basis set group =>   2


           ************************************************************
           *        Program running with 4 parallel MPI-processes     *
           *              working on a common directory               *
           ************************************************************
------------------------------------------------------------------------------
                           ORCA GTO INTEGRAL CALCULATION
                           -- RI-GTO INTEGRALS CHOSEN --
------------------------------------------------------------------------------
------------------------------------------------------------------------------
                   ___                                                        
                  /   \      - P O W E R E D   B Y -                         
                 /     \                                                     
                 |  |  |   _    _      __       _____    __    __             
                 |  |  |  | |  | |    /  \     |  _  \  |  |  /  |          
                  \  \/   | |  | |   /    \    | | | |  |  | /  /          
                 / \  \   | |__| |  /  /\  \   | |_| |  |  |/  /          
                |  |  |   |  __  | /  /__\  \  |    /   |      \           
                |  |  |   | |  | | |   __   |  |    \   |  |\   \          
                \     /   | |  | | |  |  |  |  | |\  \  |  | \   \       
                 \___/    |_|  |_| |__|  |__|  |_| \__\ |__|  \__/        
                                                                              
                      - O R C A' S   B I G   F R I E N D -                    
                                      &                                       
                       - I N T E G R A L  F E E D E R -                       
                                                                              
 v1 FN, 2020, v2 2021                                                         
------------------------------------------------------------------------------


Reading SHARK input file Nr_octanol.SHARKINP.tmp ... ok
----------------------
SHARK INTEGRAL PACKAGE
----------------------

Number of atoms                             ...     39
Number of basis functions                   ...    350
Number of shells                            ...    180
Maximum angular momentum                    ...      2
Integral batch strategy                     ... SHARK/LIBINT Hybrid
RI-J (if used) integral strategy            ... SPLIT-RIJ (Revised 2003 algorithm where possible)
Printlevel                                  ...      1
Contraction scheme used                     ... SEGMENTED contraction
Coulomb Range Separation                    ... NOT USED
Exchange Range Separation                   ... NOT USED
Finite Nucleus Model                        ... NOT USED
Auxiliary Coulomb fitting basis             ... AVAILABLE
   # of basis functions in Aux-J            ...   2572
   # of shells in Aux-J                     ...    980
   Maximum angular momentum in Aux-J        ...      3
Auxiliary J/K fitting basis                 ... AVAILABLE
   # of basis functions in Aux-JK           ...   2572
   # of shells in Aux-JK                    ...    980
   Maximum angular momentum in Aux-JK       ...      3
Auxiliary Correlation fitting basis         ... AVAILABLE
   # of basis functions in Aux-C            ...   2572
   # of shells in Aux-C                     ...    980
   Maximum angular momentum in Aux-C        ...      3
Auxiliary 'external' fitting basis          ... NOT available
Integral threshold                          ...     2.500000e-11
Primitive cut-off                           ...     2.500000e-12
Primitive pair pre-selection threshold      ...     2.500000e-12

Calculating pre-screening integrals         ... done (  0.0 sec) Dimension = 180
Organizing shell pair data                  ... done (  2.3 sec)
Shell pair information
Total number of shell pairs                 ...     16290
Shell pairs after pre-screening             ...     13557
Total number of primitive shell pairs       ...     71676
Primitive shell pairs kept                  ...     37696
          la=0 lb=0:   5046 shell pairs
          la=1 lb=0:   5043 shell pairs
          la=1 lb=1:   1242 shell pairs
          la=2 lb=0:   1392 shell pairs
          la=2 lb=1:    731 shell pairs
          la=2 lb=2:    103 shell pairs

Calculating one electron integrals          ... done (  0.0 sec)
Calculating RI/J V-Matrix + Cholesky decomp.... done (  5.4 sec)
Calculating RI/JK V-Matrix + Cholesky decomp... done (  3.4 sec)
Calculating RI/C V-Matrix + Cholesky decomp.... done (  2.2 sec)
Calculating Nuclear repulsion               ... done (  0.0 sec) ENN=   1308.912334848613 Eh

SHARK setup successfully completed in  14.2 seconds

Maximum memory used throughout the entire GTOINT-calculation: 57.1 MB


           ************************************************************
           *        Program running with 4 parallel MPI-processes     *
           *              working on a common directory               *
           ************************************************************
-------------------------------------------------------------------------------
                                 ORCA SCF
-------------------------------------------------------------------------------

------------
SCF SETTINGS
------------
Hamiltonian:
 Density Functional     Method          .... DFT(GTOs)
 Exchange Functional    Exchange        .... B88
   X-Alpha parameter    XAlpha          ....  0.666667
   Becke's b parameter  XBeta           ....  0.004200
 Correlation Functional Correlation     .... LYP
 LDA part of GGA corr.  LDAOpt          .... VWN-5
 Gradients option       PostSCFGGA      .... off
 Hybrid DFT is turned on
   Fraction HF Exchange ScalHFX         ....  0.200000
   Scaling of DF-GGA-X  ScalDFX         ....  0.720000
   Scaling of DF-GGA-C  ScalDFC         ....  0.810000
   Scaling of DF-LDA-C  ScalLDAC        ....  1.000000
   Perturbative correction              ....  0.000000
   Density functional embedding theory  .... OFF
   NL short-range parameter             ....  4.800000
 RI-approximation to the Coulomb term is turned on
   Number of AuxJ basis functions       .... 2572
   RIJ-COSX (HFX calculated with COS-X)).... on


General Settings:
 Integral files         IntName         .... Nr_octanol
 Hartree-Fock type      HFTyp           .... RHF
 Total Charge           Charge          ....    1
 Multiplicity           Mult            ....    1
 Number of Electrons    NEL             ....  132
 Basis Dimension        Dim             ....  350
 Nuclear Repulsion      ENuc            ....   1308.9123348486 Eh

Convergence Acceleration:
 DIIS                   CNVDIIS         .... on
   Start iteration      DIISMaxIt       ....    12
   Startup error        DIISStart       ....  0.200000
   # of expansion vecs  DIISMaxEq       ....     5
   Bias factor          DIISBfac        ....   1.050
   Max. coefficient     DIISMaxC        ....  10.000
 Trust-Rad. Augm. Hess. CNVTRAH         .... auto
   Auto Start mean grad. ratio tolernc. ....  1.125000
   Auto Start start iteration           ....    20
   Auto Start num. interpolation iter.  ....    10
   Max. Number of Micro iterations      ....    16
   Max. Number of Macro iterations      .... Maxiter - #DIIS iter
   Number of Davidson start vectors     ....     2
   Converg. threshold I  (grad. norm)   ....   1.000e-05
   Converg. threshold II (energy diff.) ....   1.000e-08
   Grad. Scal. Fac. for Micro threshold ....   0.100
   Minimum threshold for Micro iter.    ....   0.010
   NR start threshold (gradient norm)   ....   0.001
   Initial trust radius                 ....   0.400
   Minimum AH scaling param. (alpha)    ....   1.000
   Maximum AH scaling param. (alpha)    .... 1000.000
   Orbital update algorithm             .... Taylor
   White noise on init. David. guess    .... on
   Maximum white noise                  ....   0.010
   Quad. conv. algorithm                .... NR
 SOSCF                  CNVSOSCF        .... on
   Start iteration      SOSCFMaxIt      ....   150
   Startup grad/error   SOSCFStart      ....  0.003300
 Level Shifting         CNVShift        .... on
   Level shift para.    LevelShift      ....    0.2500
   Turn off err/grad.   ShiftErr        ....    0.0010
 Zerner damping         CNVZerner       .... off
 Static damping         CNVDamp         .... on
   Fraction old density DampFac         ....    0.7000
   Max. Damping (<1)    DampMax         ....    0.9800
   Min. Damping (>=0)   DampMin         ....    0.0000
   Turn off err/grad.   DampErr         ....    0.1000
 Fernandez-Rico         CNVRico         .... off

SCF Procedure:
 Maximum # iterations   MaxIter         ....   125
 SCF integral mode      SCFMode         .... Direct
   Integral package                     .... SHARK and LIBINT hybrid scheme
 Reset frequency        DirectResetFreq ....    20
 Integral Threshold     Thresh          ....  2.500e-11 Eh
 Primitive CutOff       TCut            ....  2.500e-12 Eh

Convergence Tolerance:
 Convergence Check Mode ConvCheckMode   .... Total+1el-Energy
 Convergence forced     ConvForced      .... 0
 Energy Change          TolE            ....  1.000e-08 Eh
 1-El. energy change                    ....  1.000e-05 Eh
 Orbital Gradient       TolG            ....  1.000e-05
 Orbital Rotation angle TolX            ....  1.000e-05
 DIIS Error             TolErr          ....  5.000e-07


Diagonalization of the overlap matrix:
Smallest eigenvalue                        ... 1.116e-05
Time for diagonalization                   ...    0.017 sec
Threshold for overlap eigenvalues          ... 1.000e-08
Number of eigenvalues below threshold      ... 0
Time for construction of square roots      ...    0.009 sec
Total time needed                          ...    0.027 sec

Time for model grid setup =    0.589 sec

------------------------------
INITIAL GUESS: MODEL POTENTIAL
------------------------------
Loading Hartree-Fock densities                     ... done
Calculating cut-offs                               ... done
Initializing the effective Hamiltonian             ... done
Setting up the integral package (SHARK)            ... done
Starting the Coulomb interaction                   ... done (   0.4 sec)
Reading the grid                                   ... done
Mapping shells                                     ... done
Starting the XC term evaluation                    ... done (   0.3 sec)
  promolecular density results
     # of electrons  =    132.989045269
     EX              =   -107.339759107
     EC              =     -4.498259178
     EX+EC           =   -111.838018286
Transforming the Hamiltonian                       ... done (   0.0 sec)
Diagonalizing the Hamiltonian                      ... done (   0.0 sec)
Back transforming the eigenvectors                 ... done (   0.0 sec)
Now organizing SCF variables                       ... done
                      ------------------
                      INITIAL GUESS DONE (   1.3 sec)
                      ------------------
-------------------
DFT GRID GENERATION
-------------------

General Integration Accuracy     IntAcc      ... 4.388
Radial Grid Type                 RadialGrid  ... OptM3 with GC (2021)
Angular Grid (max. ang.)         AngularGrid ... 4 (Lebedev-302)
Angular grid pruning method      GridPruning ... 4 (adaptive)
Weight generation scheme         WeightScheme... Becke
Basis function cutoff            BFCut       ... 1.0000e-11
Integration weight cutoff        WCut        ... 1.0000e-14
Angular grids for H and He will be reduced by one unit
Partially contracted basis set               ... off
Rotationally invariant grid construction     ... off

Total number of grid points                  ...   175656
Total number of batches                      ...     2762
Average number of points per batch           ...       63
Average number of grid points per atom       ...     4504
Time for grid setup =    1.587 sec

--------------------
COSX GRID GENERATION
--------------------

GRIDX 1
-------
General Integration Accuracy     IntAcc      ... 3.816
Radial Grid Type                 RadialGrid  ... OptM3 with GC (2021)
Angular Grid (max. ang.)         AngularGrid ... 1 (Lebedev-50)
Angular grid pruning method      GridPruning ... 4 (adaptive)
Weight generation scheme         WeightScheme... Becke
Basis function cutoff            BFCut       ... 1.0000e-11
Integration weight cutoff        WCut        ... 1.0000e-14
Angular grids for H and He will be reduced by one unit
Partially contracted basis set               ... on
Rotationally invariant grid construction     ... off

Total number of grid points                  ...    22406
Total number of batches                      ...      368
Average number of points per batch           ...       60
Average number of grid points per atom       ...      575
UseSFitting                                  ... on

GRIDX 2
-------
General Integration Accuracy     IntAcc      ... 4.020
Radial Grid Type                 RadialGrid  ... OptM3 with GC (2021)
Angular Grid (max. ang.)         AngularGrid ... 2 (Lebedev-110)
Angular grid pruning method      GridPruning ... 4 (adaptive)
Weight generation scheme         WeightScheme... Becke
Basis function cutoff            BFCut       ... 1.0000e-11
Integration weight cutoff        WCut        ... 1.0000e-14
Angular grids for H and He will be reduced by one unit
Partially contracted basis set               ... on
Rotationally invariant grid construction     ... off

Total number of grid points                  ...    50399
Total number of batches                      ...      806
Average number of points per batch           ...       62
Average number of grid points per atom       ...     1292
UseSFitting                                  ... on

GRIDX 3
-------
General Integration Accuracy     IntAcc      ... 4.338
Radial Grid Type                 RadialGrid  ... OptM3 with GC (2021)
Angular Grid (max. ang.)         AngularGrid ... 3 (Lebedev-194)
Angular grid pruning method      GridPruning ... 4 (adaptive)
Weight generation scheme         WeightScheme... Becke
Basis function cutoff            BFCut       ... 1.0000e-11
Integration weight cutoff        WCut        ... 1.0000e-14
Angular grids for H and He will be reduced by one unit
Partially contracted basis set               ... on
Rotationally invariant grid construction     ... off

Total number of grid points                  ...   108460
Total number of batches                      ...     1714
Average number of points per batch           ...       63
Average number of grid points per atom       ...     2781
UseSFitting                                  ... on

Time for X-Grid setup             =    3.215 sec


--------------------
CPCM SOLVATION MODEL
--------------------
CPCM parameters:
  Epsilon                                         ...       9.8629
  Refrac                                          ...       1.4295
  Rsolv                                           ...       1.3000
  Surface type                                    ... GAUSSIAN VDW
  Epsilon function type                           ...         CPCM
Radii:
 Radius for C  used is    3.8550 Bohr (=   2.0400 Ang.)
 Radius for H  used is    2.4944 Bohr (=   1.3200 Ang.)
 Radius for N  used is    3.5149 Bohr (=   1.8600 Ang.)
 Radius for O  used is    3.4469 Bohr (=   1.8240 Ang.)
Calculating surface                               ...        done! (  0.0s)
GEPOL surface points                              ...         2070
GEPOL Volume                                      ...    2053.1991
GEPOL Surface-area                                ...    1097.3847
Calculating surface distance matrix               ...        done! (  0.0s)
Performing Cholesky decomposition & store         ...        done! (  0.6s)
Overall time for CPCM initialization              ...                 0.6s
--------------
SCF ITERATIONS
--------------
ITER       Energy         Delta-E        Max-DP      RMS-DP      [F,P]     Damp
               ***  Starting incremental Fock matrix formation  ***
  0   -817.4429126128   0.000000000000 0.22335701  0.00247819  0.2723790 0.7000
  1   -817.6873492006  -0.244436587829 0.14536224  0.00172469  0.1070226 0.7000
                               ***Turning on DIIS***
  2   -817.7780983402  -0.090749139552 0.23415848  0.00281928  0.0351077 0.0000
  3   -817.9230498751  -0.144951534896 0.10703532  0.00122543  0.0538261 0.0000
  4   -817.9552057117  -0.032155836684 0.03917261  0.00050227  0.0122954 0.0000
  5   -817.9570908819  -0.001885170145 0.06011698  0.00036835  0.0063755 0.0000
                      *** Initiating the SOSCF procedure ***
                           *** Shutting down DIIS ***
                      *** Re-Reading the Fockian *** 
                      *** Removing any level shift *** 
ITER      Energy       Delta-E        Grad      Rot      Max-DP    RMS-DP
  6   -817.95723944  -0.0001485627  0.000347  0.000347  0.044441  0.000273
               *** Restarting incremental Fock matrix formation ***
  7   -817.95724028  -0.0000008346  0.000257  0.001018  0.013524  0.000094
  8   -817.95723210   0.0000081771  0.000524  0.000764  0.001429  0.000020
  9   -817.95724513  -0.0000130304  0.000073  0.000199  0.001165  0.000012
 10   -817.95724453   0.0000005984  0.000147  0.000140  0.000671  0.000007
 11   -817.95724538  -0.0000008411  0.000009  0.000018  0.001180  0.000009
 12   -817.95724537   0.0000000008  0.000012  0.000013  0.000647  0.000005
                  ***Gradient check signals convergence***
              ***Rediagonalizing the Fockian in SOSCF/NRSCF***

               *****************************************************
               *                     SUCCESS                       *
               *           SCF CONVERGED AFTER  13 CYCLES          *
               *****************************************************

Old exchange energy                            =    -21.799330013 Eh
New exchange energy                            =    -21.799355609 Eh
Exchange energy change after final integration =     -0.000025596 Eh
Total energy after final integration           =   -817.957270978 Eh
Final COS-X integration done in                =    22.593 sec

----------------
TOTAL SCF ENERGY
----------------

Total Energy       :         -817.95727098 Eh          -22257.74891 eV

Components:
Nuclear Repulsion  :         1308.91233485 Eh           35617.31538 eV
Electronic Energy  :        -2126.86960583 Eh          -57875.06429 eV
One Electron Energy:        -3693.60534737 Eh         -100508.11124 eV
Two Electron Energy:         1566.73574155 Eh           42633.04695 eV
Max COSX asymmetry :            0.00000610 Eh               0.00017 eV
CPCM Dielectric    :           -0.10324212 Eh              -2.80936 eV

Virial components:
Potential Energy   :        -1630.91516184 Eh          -44379.45776 eV
Kinetic Energy     :          812.95789087 Eh           22121.70886 eV
Virial Ratio       :            2.00614962


DFT components:
N(Alpha)           :       66.000030859911 electrons
N(Beta)            :       66.000030859911 electrons
N(Total)           :      132.000061719821 electrons
E(X)               :      -86.590525047604 Eh       
E(C)               :       -5.260921844988 Eh       
E(XC)              :      -91.851446892592 Eh       
DFET-embed. en.    :        0.000000000000 Eh       
CPCM Solvation Model Properties:
Surface-charge          :           -1.03223219
Charge-correction       :            0.00289347 Eh               0.07874 eV
Free-energy (cav+disp)  :  This term is not implemented in the current solvation scheme

---------------
SCF CONVERGENCE
---------------

  Last Energy change         ...   -8.1582e-09  Tolerance :   1.0000e-08
  Last MAX-Density change    ...    3.9968e-15  Tolerance :   1.0000e-07
  Last RMS-Density change    ...    4.0979e-17  Tolerance :   5.0000e-09
  Last Orbital Gradient      ...    8.0046e-07  Tolerance :   1.0000e-05
  Last Orbital Rotation      ...    1.8659e-06  Tolerance :   1.0000e-05

             **** THE GBW FILE WAS UPDATED (Nr_octanol.gbw) ****
             **** DENSITY Nr_octanol.scfp WAS UPDATED ****
             **** ENERGY FILE WAS UPDATED (Nr_octanol.en.tmp) ****
             **** THE GBW FILE WAS UPDATED (Nr_octanol.gbw) ****
             **** DENSITY Nr_octanol.scfp WAS UPDATED ****
----------------
ORBITAL ENERGIES
----------------

  NO   OCC          E(Eh)            E(eV) 
   0   2.0000     -19.137822      -520.7666 
   1   2.0000     -19.133260      -520.6425 
   2   2.0000     -14.399069      -391.8186 
   3   2.0000     -14.394669      -391.6988 
   4   2.0000     -14.390971      -391.5982 
   5   2.0000     -14.380319      -391.3084 
   6   2.0000     -14.379802      -391.2943 
   7   2.0000     -10.362062      -281.9660 
   8   2.0000     -10.304416      -280.3974 
   9   2.0000     -10.302330      -280.3406 
  10   2.0000     -10.238257      -278.5971 
  11   2.0000     -10.236923      -278.5608 
  12   2.0000     -10.226558      -278.2788 
  13   2.0000     -10.218232      -278.0522 
  14   2.0000     -10.209296      -277.8091 
  15   2.0000     -10.200670      -277.5743 
  16   2.0000     -10.184958      -277.1468 
  17   2.0000      -1.064436       -28.9648 
  18   2.0000      -1.052899       -28.6508 
  19   2.0000      -1.052442       -28.6384 
  20   2.0000      -0.957370       -26.0514 
  21   2.0000      -0.946655       -25.7598 
  22   2.0000      -0.943873       -25.6841 
  23   2.0000      -0.929906       -25.3040 
  24   2.0000      -0.810859       -22.0646 
  25   2.0000      -0.759970       -20.6798 
  26   2.0000      -0.754430       -20.5291 
  27   2.0000      -0.729943       -19.8628 
  28   2.0000      -0.711380       -19.3576 
  29   2.0000      -0.694198       -18.8901 
  30   2.0000      -0.670410       -18.2428 
  31   2.0000      -0.642033       -17.4706 
  32   2.0000      -0.615775       -16.7561 
  33   2.0000      -0.589113       -16.0306 
  34   2.0000      -0.579408       -15.7665 
  35   2.0000      -0.551309       -15.0019 
  36   2.0000      -0.534976       -14.5574 
  37   2.0000      -0.527892       -14.3647 
  38   2.0000      -0.516940       -14.0667 
  39   2.0000      -0.515186       -14.0189 
  40   2.0000      -0.504000       -13.7145 
  41   2.0000      -0.494026       -13.4431 
  42   2.0000      -0.483857       -13.1664 
  43   2.0000      -0.478242       -13.0136 
  44   2.0000      -0.473834       -12.8937 
  45   2.0000      -0.461861       -12.5679 
  46   2.0000      -0.448422       -12.2022 
  47   2.0000      -0.434893       -11.8340 
  48   2.0000      -0.428924       -11.6716 
  49   2.0000      -0.425046       -11.5661 
  50   2.0000      -0.416913       -11.3448 
  51   2.0000      -0.412754       -11.2316 
  52   2.0000      -0.410553       -11.1717 
  53   2.0000      -0.407204       -11.0806 
  54   2.0000      -0.396319       -10.7844 
  55   2.0000      -0.388954       -10.5840 
  56   2.0000      -0.378440       -10.2979 
  57   2.0000      -0.375787       -10.2257 
  58   2.0000      -0.366247        -9.9661 
  59   2.0000      -0.363259        -9.8848 
  60   2.0000      -0.313918        -8.5422 
  61   2.0000      -0.295495        -8.0408 
  62   2.0000      -0.283490        -7.7141 
  63   2.0000      -0.276768        -7.5312 
  64   2.0000      -0.260807        -7.0969 
  65   2.0000      -0.255382        -6.9493 
  66   0.0000      -0.014892        -0.4052 
  67   0.0000      -0.012391        -0.3372 
  68   0.0000      -0.008189        -0.2228 
  69   0.0000      -0.003430        -0.0933 
  70   0.0000      -0.000729        -0.0198 
  71   0.0000       0.005253         0.1429 
  72   0.0000       0.013837         0.3765 
  73   0.0000       0.015771         0.4291 
  74   0.0000       0.022750         0.6191 
  75   0.0000       0.029969         0.8155 
  76   0.0000       0.034720         0.9448 
  77   0.0000       0.039215         1.0671 
  78   0.0000       0.040776         1.1096 
  79   0.0000       0.049535         1.3479 
  80   0.0000       0.051498         1.4013 
  81   0.0000       0.056456         1.5362 
  82   0.0000       0.060296         1.6407 
  83   0.0000       0.064273         1.7489 
  84   0.0000       0.068267         1.8577 
  85   0.0000       0.073747         2.0068 
  86   0.0000       0.079036         2.1507 
  87   0.0000       0.083313         2.2671 
  88   0.0000       0.084883         2.3098 
  89   0.0000       0.087297         2.3755 
  90   0.0000       0.090997         2.4762 
  91   0.0000       0.099117         2.6971 
  92   0.0000       0.102342         2.7849 
  93   0.0000       0.107436         2.9235 
  94   0.0000       0.116356         3.1662 
  95   0.0000       0.119383         3.2486 
  96   0.0000       0.122484         3.3330 
  97   0.0000       0.126693         3.4475 
  98   0.0000       0.127334         3.4649 
  99   0.0000       0.129169         3.5149 
 100   0.0000       0.135968         3.6999 
 101   0.0000       0.137348         3.7374 
 102   0.0000       0.144500         3.9321 
 103   0.0000       0.147502         4.0137 
 104   0.0000       0.152422         4.1476 
 105   0.0000       0.156489         4.2583 
 106   0.0000       0.158707         4.3186 
 107   0.0000       0.162620         4.4251 
 108   0.0000       0.167572         4.5599 
 109   0.0000       0.167904         4.5689 
 110   0.0000       0.175256         4.7690 
 111   0.0000       0.176048         4.7905 
 112   0.0000       0.184364         5.0168 
 113   0.0000       0.186453         5.0736 
 114   0.0000       0.191793         5.2190 
 115   0.0000       0.192173         5.2293 
 116   0.0000       0.194761         5.2997 
 117   0.0000       0.198518         5.4019 
 118   0.0000       0.203777         5.5450 
 119   0.0000       0.205330         5.5873 
 120   0.0000       0.208150         5.6641 
 121   0.0000       0.213608         5.8126 
 122   0.0000       0.214973         5.8497 
 123   0.0000       0.223378         6.0784 
 124   0.0000       0.225213         6.1283 
 125   0.0000       0.228567         6.2196 
 126   0.0000       0.230969         6.2850 
 127   0.0000       0.235426         6.4063 
 128   0.0000       0.238762         6.4970 
 129   0.0000       0.243746         6.6327 
 130   0.0000       0.247271         6.7286 
 131   0.0000       0.249759         6.7963 
 132   0.0000       0.255241         6.9455 
 133   0.0000       0.259222         7.0538 
 134   0.0000       0.266525         7.2525 
 135   0.0000       0.269143         7.3238 
 136   0.0000       0.271509         7.3881 
 137   0.0000       0.275937         7.5086 
 138   0.0000       0.277280         7.5452 
 139   0.0000       0.287710         7.8290 
 140   0.0000       0.289975         7.8906 
 141   0.0000       0.292563         7.9610 
 142   0.0000       0.294825         8.0226 
 143   0.0000       0.299522         8.1504 
 144   0.0000       0.304383         8.2827 
 145   0.0000       0.307807         8.3759 
 146   0.0000       0.308565         8.3965 
 147   0.0000       0.311593         8.4789 
 148   0.0000       0.324462         8.8291 
 149   0.0000       0.331914         9.0318 
 150   0.0000       0.333910         9.0862 
 151   0.0000       0.338709         9.2168 
 152   0.0000       0.340615         9.2686 
 153   0.0000       0.346062         9.4168 
 154   0.0000       0.349540         9.5115 
 155   0.0000       0.352814         9.6006 
 156   0.0000       0.363377         9.8880 
 157   0.0000       0.365166         9.9367 
 158   0.0000       0.370657        10.0861 
 159   0.0000       0.376974        10.2580 
 160   0.0000       0.384223        10.4552 
 161   0.0000       0.392155        10.6711 
 162   0.0000       0.400312        10.8930 
 163   0.0000       0.404611        11.0100 
 164   0.0000       0.411831        11.2065 
 165   0.0000       0.417604        11.3636 
 166   0.0000       0.432153        11.7595 
 167   0.0000       0.436270        11.8715 
 168   0.0000       0.444571        12.0974 
 169   0.0000       0.451623        12.2893 
 170   0.0000       0.457299        12.4437 
 171   0.0000       0.484455        13.1827 
 172   0.0000       0.489654        13.3242 
 173   0.0000       0.514504        14.0004 
 174   0.0000       0.532810        14.4985 
 175   0.0000       0.634239        17.2585 
 176   0.0000       0.652220        17.7478 
 177   0.0000       0.657400        17.8888 
 178   0.0000       0.662064        18.0157 
 179   0.0000       0.671734        18.2788 
 180   0.0000       0.682111        18.5612 
 181   0.0000       0.691600        18.8194 
 182   0.0000       0.692923        18.8554 
 183   0.0000       0.701394        19.0859 
 184   0.0000       0.708370        19.2757 
 185   0.0000       0.717804        19.5324 
 186   0.0000       0.733196        19.9513 
 187   0.0000       0.742425        20.2024 
 188   0.0000       0.744474        20.2582 
 189   0.0000       0.758881        20.6502 
 190   0.0000       0.776249        21.1228 
 191   0.0000       0.778640        21.1879 
 192   0.0000       0.803588        21.8667 
 193   0.0000       0.806989        21.9593 
 194   0.0000       0.816028        22.2053 
 195   0.0000       0.821063        22.3423 
 196   0.0000       0.843073        22.9412 
 197   0.0000       0.851090        23.1593 
 198   0.0000       0.862889        23.4804 
 199   0.0000       0.870094        23.6765 
 200   0.0000       0.879501        23.9324 
 201   0.0000       0.888147        24.1677 
 202   0.0000       0.909605        24.7516 
 203   0.0000       0.913395        24.8547 
 204   0.0000       0.923162        25.1205 
 205   0.0000       0.928494        25.2656 
 206   0.0000       0.939971        25.5779 
 207   0.0000       0.947621        25.7861 
 208   0.0000       0.950936        25.8763 
 209   0.0000       0.968411        26.3518 
 210   0.0000       0.971275        26.4297 
 211   0.0000       0.973967        26.5030 
 212   0.0000       0.982163        26.7260 
 213   0.0000       0.989070        26.9140 
 214   0.0000       1.000441        27.2234 
 215   0.0000       1.009307        27.4646 
 216   0.0000       1.011591        27.5268 
 217   0.0000       1.026000        27.9189 
 218   0.0000       1.033409        28.1205 
 219   0.0000       1.036199        28.1964 
 220   0.0000       1.043650        28.3992 
 221   0.0000       1.047537        28.5049 
 222   0.0000       1.057369        28.7725 
 223   0.0000       1.070161        29.1206 
 224   0.0000       1.084127        29.5006 
 225   0.0000       1.087083        29.5810 
 226   0.0000       1.098524        29.8924 
 227   0.0000       1.113224        30.2924 
 228   0.0000       1.125478        30.6258 
 229   0.0000       1.132512        30.8172 
 230   0.0000       1.148329        31.2476 
 231   0.0000       1.150040        31.2942 
 232   0.0000       1.162616        31.6364 
 233   0.0000       1.175804        31.9952 
 234   0.0000       1.179472        32.0951 
 235   0.0000       1.186340        32.2819 
 236   0.0000       1.201870        32.7046 
 237   0.0000       1.207699        32.8631 
 238   0.0000       1.234796        33.6005 
 239   0.0000       1.243724        33.8434 
 240   0.0000       1.256148        34.1815 
 241   0.0000       1.262164        34.3452 
 242   0.0000       1.269251        34.5381 
 243   0.0000       1.283416        34.9235 
 244   0.0000       1.301429        35.4137 
 245   0.0000       1.310598        35.6632 
 246   0.0000       1.322861        35.9969 
 247   0.0000       1.335565        36.3426 
 248   0.0000       1.344969        36.5985 
 249   0.0000       1.360704        37.0266 
 250   0.0000       1.370315        37.2882 
 251   0.0000       1.382402        37.6171 
 252   0.0000       1.383114        37.6365 
 253   0.0000       1.400028        38.0967 
 254   0.0000       1.416705        38.5505 
 255   0.0000       1.427855        38.8539 
 256   0.0000       1.441645        39.2292 
 257   0.0000       1.459596        39.7176 
 258   0.0000       1.467401        39.9300 
 259   0.0000       1.479826        40.2681 
 260   0.0000       1.506854        41.0036 
 261   0.0000       1.533227        41.7212 
 262   0.0000       1.540552        41.9206 
 263   0.0000       1.561555        42.4921 
 264   0.0000       1.601881        43.5894 
 265   0.0000       1.612257        43.8717 
 266   0.0000       1.616959        43.9997 
 267   0.0000       1.648154        44.8486 
 268   0.0000       1.656162        45.0664 
 269   0.0000       1.667484        45.3745 
 270   0.0000       1.673076        45.5267 
 271   0.0000       1.688309        45.9412 
 272   0.0000       1.707014        46.4502 
 273   0.0000       1.733674        47.1757 
 274   0.0000       1.762234        47.9528 
 275   0.0000       1.789639        48.6985 
 276   0.0000       1.792358        48.7725 
 277   0.0000       1.809425        49.2370 
 278   0.0000       1.824466        49.6463 
 279   0.0000       1.834073        49.9077 
 280   0.0000       1.843285        50.1583 
 281   0.0000       1.851735        50.3883 
 282   0.0000       1.863110        50.6978 
 283   0.0000       1.872832        50.9623 
 284   0.0000       1.889018        51.4028 
 285   0.0000       1.909247        51.9533 
 286   0.0000       1.934225        52.6329 
 287   0.0000       1.943443        52.8838 
 288   0.0000       1.950685        53.0808 
 289   0.0000       1.960834        53.3570 
 290   0.0000       1.976698        53.7887 
 291   0.0000       1.993147        54.2363 
 292   0.0000       1.996156        54.3182 
 293   0.0000       2.008428        54.6521 
 294   0.0000       2.023972        55.0751 
 295   0.0000       2.045371        55.6574 
 296   0.0000       2.051397        55.8213 
 297   0.0000       2.059536        56.0428 
 298   0.0000       2.075204        56.4692 
 299   0.0000       2.080818        56.6219 
 300   0.0000       2.091941        56.9246 
 301   0.0000       2.115357        57.5618 
 302   0.0000       2.120276        57.6957 
 303   0.0000       2.137906        58.1754 
 304   0.0000       2.166410        58.9510 
 305   0.0000       2.182452        59.3875 
 306   0.0000       2.199794        59.8594 
 307   0.0000       2.210741        60.1573 
 308   0.0000       2.212894        60.2159 
 309   0.0000       2.246425        61.1283 
 310   0.0000       2.257972        61.4425 
 311   0.0000       2.277944        61.9860 
 312   0.0000       2.295074        62.4521 
 313   0.0000       2.315514        63.0084 
 314   0.0000       2.322397        63.1956 
 315   0.0000       2.338262        63.6273 
 316   0.0000       2.363265        64.3077 
 317   0.0000       2.371845        64.5412 
 318   0.0000       2.378825        64.7311 
 319   0.0000       2.383220        64.8507 
 320   0.0000       2.400114        65.3104 
 321   0.0000       2.432069        66.1800 
 322   0.0000       2.448424        66.6250 
 323   0.0000       2.465946        67.1018 
 324   0.0000       2.491120        67.7868 
 325   0.0000       2.500666        68.0466 
 326   0.0000       2.516029        68.4646 
 327   0.0000       2.533325        68.9353 
 328   0.0000       2.574767        70.0630 
 329   0.0000       2.590704        70.4966 
 330   0.0000       2.611051        71.0503 
 331   0.0000       2.622879        71.3722 
 332   0.0000       2.632486        71.6336 
 333   0.0000       2.653300        72.2000 
 334   0.0000       2.671596        72.6978 
 335   0.0000       2.688661        73.1622 
 336   0.0000       2.696935        73.3873 
 337   0.0000       2.721243        74.0488 
 338   0.0000       2.763131        75.1886 
 339   0.0000       2.773777        75.4783 
 340   0.0000       2.824500        76.8586 
 341   0.0000       2.858330        77.7791 
 342   0.0000       2.934045        79.8394 
 343   0.0000       3.022197        82.2382 
 344   0.0000       3.063642        83.3659 
[...]
    109       0.345694   0.122153   0.649007
    110      -0.035659  -0.012715  -0.070251
    111       0.238903  -0.092501  -0.517925
    112      -0.216349   0.083931   0.463864
    113      -0.085599   0.032810   0.184987
    114       0.000329  -0.000058  -0.000010
    115      -0.000276   0.000026   0.000016
    116      -0.000121   0.000011  -0.000011


-----------
IR SPECTRUM
-----------

 Mode   freq       eps      Int      T**2         TX        TY        TZ
       cm**-1   L/(mol*cm) km/mol    a.u.
----------------------------------------------------------------------------
  7:     25.67   0.002133   10.78  0.025926  (-0.081761  0.004537 -0.138637)
  8:     32.88   0.000602    3.04  0.005717  (-0.010744  0.053652 -0.052178)
  9:     40.09   0.001436    7.26  0.011177  ( 0.051795  0.090110  0.019349)
 10:     57.54   0.001844    9.32  0.010002  (-0.044097  0.069049 -0.057356)
 11:     74.86   0.001293    6.53  0.005388  ( 0.013854 -0.025337 -0.067486)
 12:     79.08   0.002552   12.89  0.010069  (-0.084414  0.000354  0.054251)
 13:     85.43   0.000325    1.64  0.001186  (-0.007351  0.009927 -0.032145)
 14:     94.31   0.000642    3.24  0.002123  ( 0.035169 -0.026884  0.012777)
 15:    109.29   0.002145   10.84  0.006125  ( 0.051654  0.003539 -0.058692)
 16:    132.81   0.001881    9.51  0.004421  ( 0.038497  0.039836  0.036767)
 17:    142.40   0.001402    7.08  0.003072  (-0.032885  0.040779 -0.018101)
 18:    165.33   0.002279   11.52  0.004302  ( 0.008840  0.011249 -0.064011)
 19:    176.14   0.000094    0.48  0.000167  ( 0.001818 -0.012283 -0.003598)
 20:    179.23   0.000074    0.37  0.000128  (-0.000408  0.010306  0.004673)
 21:    201.59   0.000148    0.75  0.000229  ( 0.002162  0.010666  0.010524)
 22:    239.76   0.002065   10.43  0.002687  ( 0.015062 -0.042684  0.025263)
 23:    258.72   0.087609  442.74  0.105673  ( 0.161573  0.061748  0.275236)
 24:    280.74   0.000891    4.50  0.000990  (-0.013307  0.025214 -0.013325)
 25:    291.76   0.019264   97.35  0.020604  ( 0.076089 -0.021985  0.119713)
 26:    305.27   0.002586   13.07  0.002643  (-0.039337 -0.013391 -0.030273)
 27:    321.53   0.001898    9.59  0.001842  (-0.029539  0.000114  0.031139)
 28:    336.35   0.000814    4.11  0.000755  ( 0.021613 -0.015234  0.007463)
 29:    391.57   0.002000   10.11  0.001594  (-0.034575  0.005331  0.019245)
 30:    416.41   0.001520    7.68  0.001139  (-0.029451 -0.015735 -0.004898)
 31:    442.58   0.006098   30.82  0.004300  ( 0.051383 -0.014832  0.037939)
 32:    456.67   0.002016   10.19  0.001378  (-0.023269 -0.025321 -0.013964)
 33:    485.17   0.022139  111.88  0.014240  ( 0.055091 -0.031863  0.100944)
 34:    507.07   0.005552   28.06  0.003417  (-0.037911 -0.021755 -0.038808)
 35:    551.45   0.000665    3.36  0.000376  ( 0.013466 -0.013774  0.002326)
 36:    569.26   0.005232   26.44  0.002868  ( 0.001413 -0.021160  0.049174)
 37:    579.19   0.002167   10.95  0.001168  ( 0.004479 -0.025310  0.022519)
 38:    599.72   0.002480   12.53  0.001290  (-0.033093  0.003086  0.013628)
 39:    605.82   0.002631   13.30  0.001356  (-0.016439  0.027556  0.018054)
 40:    621.65   0.002188   11.06  0.001098  (-0.026663  0.018361  0.007098)
 41:    675.61   0.003540   17.89  0.001635  ( 0.029570 -0.021557 -0.017200)
 42:    713.48   0.000376    1.90  0.000164  (-0.002108 -0.003164  0.012248)
 43:    738.98   0.002654   13.41  0.001121  (-0.025419  0.017751  0.012628)
 44:    794.92   0.002897   14.64  0.001137  (-0.006063  0.019508  0.026830)
 45:    816.03   0.000536    2.71  0.000205  ( 0.000388  0.005616  0.013168)
 46:    894.72   0.001673    8.46  0.000584  ( 0.007582 -0.017785  0.014483)
 47:    931.73   0.000296    1.50  0.000099  ( 0.008351  0.005024 -0.002049)
 48:    979.03   0.000489    2.47  0.000156  ( 0.005940  0.006347  0.008962)
 49:    993.86   0.002853   14.42  0.000896  ( 0.016485 -0.019066 -0.016139)
 50:   1004.47   0.007447   37.63  0.002314  ( 0.027553  0.026784 -0.028931)
 51:   1036.47   0.003296   16.66  0.000992  (-0.023341  0.016416 -0.013347)
 52:   1061.39   0.003145   15.89  0.000925  ( 0.029210 -0.001800 -0.008252)
 53:   1068.30   0.005017   25.35  0.001465  (-0.007122  0.034628 -0.014683)
 54:   1083.96   0.003931   19.86  0.001132  (-0.023740 -0.009485 -0.021865)
 55:   1086.77   0.000456    2.30  0.000131  ( 0.005781  0.009803  0.001197)
 56:   1099.41   0.000685    3.46  0.000194  (-0.005584 -0.012776 -0.000040)
 57:   1120.79   0.000772    3.90  0.000215  (-0.012397  0.003744  0.006879)
 58:   1130.05   0.001162    5.87  0.000321  (-0.006138 -0.001917  0.016720)
 59:   1142.65   0.001739    8.79  0.000475  (-0.013074  0.010776 -0.013710)
 60:   1165.72   0.000479    2.42  0.000128  (-0.006593 -0.007894 -0.004740)
 61:   1184.92   0.007376   37.27  0.001943  ( 0.043771  0.003988 -0.003276)
 62:   1192.91   0.015318   77.41  0.004007  ( 0.043694 -0.008802 -0.044950)
 63:   1205.30   0.008910   45.03  0.002307  (-0.034661 -0.008823 -0.032058)
 64:   1263.11   0.012640   63.88  0.003123  ( 0.007557  0.052553  0.017430)
 65:   1286.48   0.006358   32.13  0.001542  (-0.035199  0.017319 -0.001835)
 66:   1293.82   0.012876   65.07  0.003106  ( 0.033807  0.044303 -0.000220)
 67:   1313.94   0.007055   35.65  0.001676  (-0.003667 -0.035945  0.019239)
 68:   1343.62   0.007370   37.24  0.001712  (-0.018460 -0.031699  0.019134)
 69:   1357.06   0.015502   78.34  0.003565  (-0.001608 -0.049061  0.033989)
 70:   1377.56   0.007493   37.87  0.001697  ( 0.025356 -0.021472  0.024360)
 71:   1409.28   0.008183   41.35  0.001812  (-0.032480 -0.024233  0.013028)
 72:   1410.37   0.002564   12.96  0.000567  (-0.018098 -0.005419 -0.014508)
 73:   1423.93   0.003111   15.72  0.000682  ( 0.015481 -0.017723 -0.011318)
 74:   1441.27   0.025473  128.73  0.005515  (-0.054963  0.018579  0.046359)
 75:   1455.63   0.029452  148.84  0.006314  ( 0.025794  0.072644 -0.019277)
 76:   1459.35   0.012058   60.93  0.002578  (-0.012598  0.047728 -0.011906)
 77:   1476.64   0.007753   39.18  0.001638  ( 0.013057  0.038229 -0.002539)
 78:   1480.86   0.003316   16.76  0.000699  ( 0.003815  0.025543 -0.005643)
 79:   1485.98   0.005516   27.88  0.001158  (-0.026915 -0.001586 -0.020772)
 80:   1489.03   0.003269   16.52  0.000685  (-0.001031  0.012975  0.022707)
 81:   1494.47   0.003362   16.99  0.000702  ( 0.004138 -0.021234  0.015300)
 82:   1498.91   0.001241    6.27  0.000258  (-0.016000 -0.001399 -0.000607)
 83:   1501.90   0.010710   54.12  0.002225  ( 0.017193 -0.023181 -0.037313)
 84:   1509.26   0.000627    3.17  0.000130  ( 0.005373 -0.009944 -0.001388)
 85:   1511.76   0.004471   22.59  0.000923  (-0.028022  0.004315 -0.010909)
 86:   1524.21   0.019844  100.28  0.004063  (-0.008715 -0.062368 -0.009853)
 87:   1527.07   0.006864   34.69  0.001403  ( 0.033432  0.016366 -0.004134)
 88:   1544.09   0.019108   96.56  0.003862  ( 0.058327 -0.019786 -0.008259)
 89:   1614.40   0.015136   76.49  0.002926  ( 0.009017 -0.052314 -0.010386)
 90:   1657.89   0.100041  505.57  0.018831  (-0.084953  0.097308  0.046312)
 91:   1667.39   0.191371  967.11  0.035816  (-0.047256  0.088463 -0.160491)
 92:   1671.44   0.104581  528.51  0.019526  ( 0.040874 -0.070570 -0.113467)
 93:   1685.99   0.154728  781.93  0.028639  (-0.145777 -0.058308  0.063151)
 94:   1701.80   0.036138  182.63  0.006627  (-0.015058  0.079763  0.006160)
 95:   3042.84   0.004024   20.33  0.000413  ( 0.007830  0.018695 -0.001361)
 96:   3043.92   0.011434   57.78  0.001172  (-0.032756  0.008041 -0.005880)
 97:   3056.51   0.010794   54.55  0.001102  (-0.007200  0.004615  0.032077)
 98:   3057.46   0.007160   36.19  0.000731  (-0.013731 -0.021000  0.010064)
 99:   3066.66   0.000626    3.16  0.000064  (-0.004124 -0.004803 -0.004861)
100:   3077.99   0.001060    5.35  0.000107  (-0.006438  0.005259  0.006190)
101:   3080.94   0.006303   31.85  0.000638  (-0.001257  0.007621 -0.024057)
102:   3091.30   0.008945   45.20  0.000903  (-0.007466  0.025782  0.013510)
103:   3110.72   0.008905   45.00  0.000893  ( 0.002731 -0.026175  0.014168)
104:   3111.49   0.007373   37.26  0.000739  ( 0.010082  0.007232  0.024197)
105:   3120.48   0.003727   18.83  0.000373  ( 0.014367 -0.012304 -0.003859)
106:   3123.65   0.001467    7.41  0.000147  (-0.004168  0.003193  0.010907)
107:   3132.65   0.001582    7.99  0.000158  ( 0.007383 -0.003250 -0.009616)
108:   3153.27   0.002466   12.46  0.000244  (-0.007993  0.004400 -0.012682)
109:   3163.44   0.002237   11.31  0.000221  (-0.002628  0.013550 -0.005493)
110:   3175.67   0.001256    6.35  0.000123  ( 0.000323  0.006452  0.009039)
111:   3178.55   0.004424   22.36  0.000434  (-0.013844 -0.015577  0.000062)
112:   3587.50   0.049371  249.50  0.004295  ( 0.041311  0.046949 -0.019588)
113:   3589.01   0.041207  208.25  0.003583  (-0.024193  0.053111  0.013301)
114:   3597.67   0.009052   45.74  0.000785  ( 0.021183  0.018338 -0.000371)
115:   3698.39   0.036981  186.89  0.003120  (-0.045684  0.017189  0.027164)
116:   3703.04   0.024306  122.83  0.002048  (-0.009459  0.044259 -0.000098)

* The epsilon (eps) is given for a Dirac delta lineshape.
** The dipole moment derivative (T) already includes vibrational overlap.

The first frequency considered to be a vibration is 7
The total number of vibrations considered is 110


--------------------------
THERMOCHEMISTRY AT 298.15K
--------------------------

Temperature         ... 298.15 K
Pressure            ... 1.00 atm
Total Mass          ... 244.32 AMU

Throughout the following assumptions are being made:
  (1) The electronic state is orbitally nondegenerate
  (2) There are no thermally accessible electronically excited states
  (3) Hindered rotations indicated by low frequency modes are not
      treated as such but are treated as vibrations and this may
      cause some error
  (4) All equations used are the standard statistical mechanics
      equations for an ideal gas
  (5) All vibrations are strictly harmonic

freq.      25.67  E(vib)   ...       0.56 
freq.      32.88  E(vib)   ...       0.55 
freq.      40.09  E(vib)   ...       0.54 
freq.      57.54  E(vib)   ...       0.51 
freq.      74.86  E(vib)   ...       0.49 
freq.      79.08  E(vib)   ...       0.49 
freq.      85.43  E(vib)   ...       0.48 
freq.      94.31  E(vib)   ...       0.47 
freq.     109.29  E(vib)   ...       0.45 
freq.     132.81  E(vib)   ...       0.42 
freq.     142.40  E(vib)   ...       0.41 
freq.     165.33  E(vib)   ...       0.39 
freq.     176.14  E(vib)   ...       0.38 
freq.     179.23  E(vib)   ...       0.37 
freq.     201.59  E(vib)   ...       0.35 
freq.     239.76  E(vib)   ...       0.31 
freq.     258.72  E(vib)   ...       0.30 
freq.     280.74  E(vib)   ...       0.28 
freq.     291.76  E(vib)   ...       0.27 
freq.     305.27  E(vib)   ...       0.26 
freq.     321.53  E(vib)   ...       0.25 
freq.     336.35  E(vib)   ...       0.24 
freq.     391.57  E(vib)   ...       0.20 
freq.     416.41  E(vib)   ...       0.18 
freq.     442.58  E(vib)   ...       0.17 
freq.     456.67  E(vib)   ...       0.16 
freq.     485.17  E(vib)   ...       0.15 
freq.     507.07  E(vib)   ...       0.14 
freq.     551.45  E(vib)   ...       0.12 
freq.     569.26  E(vib)   ...       0.11 
freq.     579.19  E(vib)   ...       0.11 
freq.     599.72  E(vib)   ...       0.10 
freq.     605.82  E(vib)   ...       0.10 
freq.     621.65  E(vib)   ...       0.09 
freq.     675.61  E(vib)   ...       0.08 
freq.     713.48  E(vib)   ...       0.07 
freq.     738.98  E(vib)   ...       0.06 
freq.     794.92  E(vib)   ...       0.05 
freq.     816.03  E(vib)   ...       0.05 
freq.     894.72  E(vib)   ...       0.03 
freq.     931.73  E(vib)   ...       0.03 
freq.     979.03  E(vib)   ...       0.03 
freq.     993.86  E(vib)   ...       0.02 
freq.    1004.47  E(vib)   ...       0.02 
freq.    1036.47  E(vib)   ...       0.02 
freq.    1061.39  E(vib)   ...       0.02 
freq.    1068.30  E(vib)   ...       0.02 
freq.    1083.96  E(vib)   ...       0.02 
freq.    1086.77  E(vib)   ...       0.02 
freq.    1099.41  E(vib)   ...       0.02 
freq.    1120.79  E(vib)   ...       0.01 
freq.    1130.05  E(vib)   ...       0.01 
freq.    1142.65  E(vib)   ...       0.01 
freq.    1165.72  E(vib)   ...       0.01 
freq.    1184.92  E(vib)   ...       0.01 
freq.    1192.91  E(vib)   ...       0.01 
freq.    1205.30  E(vib)   ...       0.01 
freq.    1263.11  E(vib)   ...       0.01 
freq.    1286.48  E(vib)   ...       0.01 
freq.    1293.82  E(vib)   ...       0.01 
freq.    1313.94  E(vib)   ...       0.01 
freq.    1343.62  E(vib)   ...       0.01 
freq.    1357.06  E(vib)   ...       0.01 
freq.    1377.56  E(vib)   ...       0.01 
freq.    1409.28  E(vib)   ...       0.00 
freq.    1410.37  E(vib)   ...       0.00 
freq.    1423.93  E(vib)   ...       0.00 
freq.    1441.27  E(vib)   ...       0.00 
freq.    1455.63  E(vib)   ...       0.00 
freq.    1459.35  E(vib)   ...       0.00 
freq.    1476.64  E(vib)   ...       0.00 
freq.    1480.86  E(vib)   ...       0.00 
freq.    1485.98  E(vib)   ...       0.00 
freq.    1489.03  E(vib)   ...       0.00 
freq.    1494.47  E(vib)   ...       0.00 
freq.    1498.91  E(vib)   ...       0.00 
freq.    1501.90  E(vib)   ...       0.00 
freq.    1509.26  E(vib)   ...       0.00 
freq.    1511.76  E(vib)   ...       0.00 
freq.    1524.21  E(vib)   ...       0.00 
freq.    1527.07  E(vib)   ...       0.00 
freq.    1544.09  E(vib)   ...       0.00 
freq.    1614.40  E(vib)   ...       0.00 
freq.    1657.89  E(vib)   ...       0.00 
freq.    1667.39  E(vib)   ...       0.00 
freq.    1671.44  E(vib)   ...       0.00 
freq.    1685.99  E(vib)   ...       0.00 
freq.    1701.80  E(vib)   ...       0.00 
freq.    3042.84  E(vib)   ...       0.00 
freq.    3043.92  E(vib)   ...       0.00 
freq.    3056.51  E(vib)   ...       0.00 
freq.    3057.46  E(vib)   ...       0.00 
freq.    3066.66  E(vib)   ...       0.00 
freq.    3077.99  E(vib)   ...       0.00 
freq.    3080.94  E(vib)   ...       0.00 
freq.    3091.30  E(vib)   ...       0.00 
freq.    3110.72  E(vib)   ...       0.00 
freq.    3111.49  E(vib)   ...       0.00 
freq.    3120.48  E(vib)   ...       0.00 
freq.    3123.65  E(vib)   ...       0.00 
freq.    3132.65  E(vib)   ...       0.00 
freq.    3153.27  E(vib)   ...       0.00 
freq.    3163.44  E(vib)   ...       0.00 
freq.    3175.67  E(vib)   ...       0.00 
freq.    3178.55  E(vib)   ...       0.00 
freq.    3587.50  E(vib)   ...       0.00 
freq.    3589.01  E(vib)   ...       0.00 
freq.    3597.67  E(vib)   ...       0.00 
freq.    3698.39  E(vib)   ...       0.00 
freq.    3703.04  E(vib)   ...       0.00 

------------
INNER ENERGY
------------

The inner energy is: U= E(el) + E(ZPE) + E(vib) + E(rot) + E(trans)
    E(el)   - is the total energy from the electronic structure calculation
              = E(kin-el) + E(nuc-el) + E(el-el) + E(nuc-nuc)
    E(ZPE)  - the the zero temperature vibrational energy from the frequency calculation
    E(vib)  - the the finite temperature correction to E(ZPE) due to population
              of excited vibrational states
    E(rot)  - is the rotational thermal energy
    E(trans)- is the translational thermal energy

Summary of contributions to the inner energy U:
Electronic energy                ...   -818.02576289 Eh
Zero point energy                ...      0.34131625 Eh     214.18 kcal/mol
Thermal vibrational correction   ...      0.01773795 Eh      11.13 kcal/mol
Thermal rotational correction    ...      0.00141627 Eh       0.89 kcal/mol
Thermal translational correction ...      0.00141627 Eh       0.89 kcal/mol
-----------------------------------------------------------------------
Total thermal energy                   -817.66387614 Eh


Summary of corrections to the electronic energy:
(perhaps to be used in another calculation)
Total thermal correction                  0.02057050 Eh      12.91 kcal/mol
Non-thermal (ZPE) correction              0.34131625 Eh     214.18 kcal/mol
-----------------------------------------------------------------------
Total correction                          0.36188674 Eh     227.09 kcal/mol


--------
ENTHALPY
--------

The enthalpy is H = U + kB*T
                kB is Boltzmann's constant
Total free energy                 ...   -817.66387614 Eh 
Thermal Enthalpy correction       ...      0.00094421 Eh       0.59 kcal/mol
-----------------------------------------------------------------------
Total Enthalpy                    ...   -817.66293193 Eh


Note: Only C1 symmetry has been detected, increase convergence thresholds 
      if your molecule has a higher symmetry. Symmetry factor of 1.0 is   
      used for the rotational entropy correction. 
 

Note: Rotational entropy computed according to Herzberg 
Infrared and Raman Spectra, Chapter V,1, Van Nostrand Reinhold, 1945 
Point Group:  C1, Symmetry Number:   1  
Rotational constants in cm-1:     0.032550     0.006140     0.006090 

Vibrational entropy computed according to the QRRHO of S. Grimme
Chem.Eur.J. 2012 18 9955


-------
ENTROPY
-------

The entropy contributions are T*S = T*(S(el)+S(vib)+S(rot)+S(trans))
     S(el)   - electronic entropy
     S(vib)  - vibrational entropy
     S(rot)  - rotational entropy
     S(trans)- translational entropy
The entropies will be listed as multiplied by the temperature to get
units of energy

Electronic entropy                ...      0.00000000 Eh      0.00 kcal/mol
Vibrational entropy               ...      0.03217429 Eh     20.19 kcal/mol
Rotational entropy                ...      0.01594021 Eh     10.00 kcal/mol
Translational entropy             ...      0.02013640 Eh     12.64 kcal/mol
-----------------------------------------------------------------------
Final entropy term                ...      0.06825090 Eh     42.83 kcal/mol

In case the symmetry of your molecule has not been determined correctly
or in case you have a reason to use a different symmetry number we print 
out the resulting rotational entropy values for sn=1,12 :
 --------------------------------------------------------
|  sn= 1 | S(rot)=       0.01594021 Eh     10.00 kcal/mol|
|  sn= 2 | S(rot)=       0.01528576 Eh      9.59 kcal/mol|
|  sn= 3 | S(rot)=       0.01490292 Eh      9.35 kcal/mol|
|  sn= 4 | S(rot)=       0.01463130 Eh      9.18 kcal/mol|
|  sn= 5 | S(rot)=       0.01442061 Eh      9.05 kcal/mol|
|  sn= 6 | S(rot)=       0.01424847 Eh      8.94 kcal/mol|
|  sn= 7 | S(rot)=       0.01410292 Eh      8.85 kcal/mol|
|  sn= 8 | S(rot)=       0.01397684 Eh      8.77 kcal/mol|
|  sn= 9 | S(rot)=       0.01386564 Eh      8.70 kcal/mol|
|  sn=10 | S(rot)=       0.01376616 Eh      8.64 kcal/mol|
|  sn=11 | S(rot)=       0.01367617 Eh      8.58 kcal/mol|
|  sn=12 | S(rot)=       0.01359401 Eh      8.53 kcal/mol|
 --------------------------------------------------------


-------------------
GIBBS FREE ENERGY
-------------------

The Gibbs free energy is G = H - T*S

Total enthalpy                    ...   -817.66293193 Eh 
Total entropy correction          ...     -0.06825090 Eh    -42.83 kcal/mol
-----------------------------------------------------------------------
Final Gibbs free energy         ...   -817.73118284 Eh

For completeness - the Gibbs free energy minus the electronic energy
G-E(el)                           ...      0.29458005 Eh    184.85 kcal/mol


Timings for individual modules:

Sum of individual times         ...     5182.499 sec (=  86.375 min)
GTO integral calculation        ...       65.667 sec (=   1.094 min)   1.3 %
SCF iterations                  ...     2830.939 sec (=  47.182 min)  54.6 %
SCF Gradient evaluation         ...      764.830 sec (=  12.747 min)  14.8 %
Geometry relaxation             ...        3.786 sec (=   0.063 min)   0.1 %
Analytical frequency calculation...     1517.277 sec (=  25.288 min)  29.3 %
                             ****ORCA TERMINATED NORMALLY****
TOTAL RUN TIME: 0 days 1 hours 26 minutes 34 seconds 476 msec
