
                                 *****************
                                 * O   R   C   A *
                                 *****************

                                            #,                                       
                                            ###                                      
                                            ####                                     
                                            #####                                    
                                            ######                                   
                                           ########,                                 
                                     ,,################,,,,,                         
                               ,,#################################,,                 
                          ,,##########################################,,             
                       ,#########################################, ''#####,          
                    ,#############################################,,   '####,        
                  ,##################################################,,,,####,       
                ,###########''''           ''''###############################       
              ,#####''   ,,,,##########,,,,          '''####'''          '####       
            ,##' ,,,,###########################,,,                        '##       
           ' ,,###''''                  '''############,,,                           
         ,,##''                                '''############,,,,        ,,,,,,###''
      ,#''                                            '''#######################'''  
     '                                                          ''''####''''         
             ,#######,   #######,   ,#######,      ##                                
            ,#'     '#,  ##    ##  ,#'     '#,    #''#        ######   ,####,        
            ##       ##  ##   ,#'  ##            #'  '#       #        #'  '#        
            ##       ##  #######   ##           ,######,      #####,   #    #        
            '#,     ,#'  ##    ##  '#,     ,#' ,#      #,         ##   #,  ,#        
             '#######'   ##     ##  '#######'  #'      '#     #####' # '####'        



                  #######################################################
                  #                        -***-                        #
                  #          Department of theory and spectroscopy      #
                  #    Directorship and core code : Frank Neese         #
                  #        Max Planck Institute fuer Kohlenforschung    #
                  #                Kaiser Wilhelm Platz 1               #
                  #                 D-45470 Muelheim/Ruhr               #
                  #                      Germany                        #
                  #                                                     #
                  #                  All rights reserved                #
                  #                        -***-                        #
                  #######################################################


                         Program Version 5.0.4 -  RELEASE  -


 With contributions from (in alphabetic order):
   Daniel Aravena         : Magnetic Suceptibility
   Michael Atanasov       : Ab Initio Ligand Field Theory (pilot matlab implementation)
   Alexander A. Auer      : GIAO ZORA, VPT2 properties, NMR spectrum
   Ute Becker             : Parallelization
   Giovanni Bistoni       : ED, misc. LED, open-shell LED, HFLD
   Martin Brehm           : Molecular dynamics
   Dmytro Bykov           : SCF Hessian
   Vijay G. Chilkuri      : MRCI spin determinant printing, contributions to CSF-ICE
   Dipayan Datta          : RHF DLPNO-CCSD density
   Achintya Kumar Dutta   : EOM-CC, STEOM-CC
   Dmitry Ganyushin       : Spin-Orbit,Spin-Spin,Magnetic field MRCI
   Miquel Garcia          : C-PCM and meta-GGA Hessian, CC/C-PCM, Gaussian charge scheme
   Yang Guo               : DLPNO-NEVPT2, F12-NEVPT2, CIM, IAO-localization
   Andreas Hansen         : Spin unrestricted coupled pair/coupled cluster methods
   Benjamin Helmich-Paris : MC-RPA, TRAH-SCF, COSX integrals
   Lee Huntington         : MR-EOM, pCC
   Robert Izsak           : Overlap fitted RIJCOSX, COSX-SCS-MP3, EOM
   Marcus Kettner         : VPT2
   Christian Kollmar      : KDIIS, OOCD, Brueckner-CCSD(T), CCSD density, CASPT2, CASPT2-K
   Simone Kossmann        : Meta GGA functionals, TD-DFT gradient, OOMP2, MP2 Hessian
   Martin Krupicka        : Initial AUTO-CI
   Lucas Lang             : DCDCAS
   Marvin Lechner         : AUTO-CI (C++ implementation), FIC-MRCC
   Dagmar Lenk            : GEPOL surface, SMD
   Dimitrios Liakos       : Extrapolation schemes; Compound Job, initial MDCI parallelization
   Dimitrios Manganas     : Further ROCIS development; embedding schemes
   Dimitrios Pantazis     : SARC Basis sets
   Anastasios Papadopoulos: AUTO-CI, single reference methods and gradients
   Taras Petrenko         : DFT Hessian,TD-DFT gradient, ASA, ECA, R-Raman, ABS, FL, XAS/XES, NRVS
   Peter Pinski           : DLPNO-MP2, DLPNO-MP2 Gradient
   Christoph Reimann      : Effective Core Potentials
   Marius Retegan         : Local ZFS, SOC
   Christoph Riplinger    : Optimizer, TS searches, QM/MM, DLPNO-CCSD(T), (RO)-DLPNO pert. Triples
   Tobias Risthaus        : Range-separated hybrids, TD-DFT gradient, RPA, STAB
   Michael Roemelt        : Original ROCIS implementation
   Masaaki Saitow         : Open-shell DLPNO-CCSD energy and density
   Barbara Sandhoefer     : DKH picture change effects
   Avijit Sen             : IP-ROCIS
   Kantharuban Sivalingam : CASSCF convergence, NEVPT2, FIC-MRCI
   Bernardo de Souza      : ESD, SOC TD-DFT
   Georgi Stoychev        : AutoAux, RI-MP2 NMR, DLPNO-MP2 response
   Willem Van den Heuvel  : Paramagnetic NMR
   Boris Wezisla          : Elementary symmetry handling
   Frank Wennmohs         : Technical directorship


 We gratefully acknowledge several colleagues who have allowed us to
 interface, adapt or use parts of their codes:
   Stefan Grimme, W. Hujo, H. Kruse, P. Pracht,  : VdW corrections, initial TS optimization,
                  C. Bannwarth, S. Ehlert          DFT functionals, gCP, sTDA/sTD-DF
   Ed Valeev, F. Pavosevic, A. Kumar             : LibInt (2-el integral package), F12 methods
   Garnet Chan, S. Sharma, J. Yang, R. Olivares  : DMRG
   Ulf Ekstrom                                   : XCFun DFT Library
   Mihaly Kallay                                 : mrcc  (arbitrary order and MRCC methods)
   Jiri Pittner, Ondrej Demel                    : Mk-CCSD
   Frank Weinhold                                : gennbo (NPA and NBO analysis)
   Christopher J. Cramer and Donald G. Truhlar   : smd solvation model
   Lars Goerigk                                  : TD-DFT with DH, B97 family of functionals
   V. Asgeirsson, H. Jonsson                     : NEB implementation
   FAccTs GmbH                                   : IRC, NEB, NEB-TS, DLPNO-Multilevel, CI-OPT
                                                   MM, QMMM, 2- and 3-layer-ONIOM, Crystal-QMMM,
                                                   LR-CPCM, SF, NACMEs, symmetry and pop. for TD-DFT,
                                                   nearIR, NL-DFT gradient (VV10), updates on ESD,
                                                   ML-optimized integration grids
   S Lehtola, MJT Oliveira, MAL Marques          : LibXC Library
   Liviu Ungur et al                             : ANISO software


 Your calculation uses the libint2 library for the computation of 2-el integrals
 For citations please refer to: http://libint.valeyev.net

 Your ORCA version has been built with support for libXC version: 5.1.0
 For citations please refer to: https://tddft.org/programs/libxc/

 This ORCA versions uses:
   CBLAS   interface :  Fast vector & matrix operations
   LAPACKE interface :  Fast linear algebra routines
   SCALAPACK package :  Parallel linear algebra routines
   Shared memory     :  Shared parallel matrices
   BLAS/LAPACK       :  OpenBLAS 0.3.15  USE64BITINT DYNAMIC_ARCH NO_AFFINITY SkylakeX SINGLE_THREADED
        Core in use  :  SkylakeX
   Copyright (c) 2011-2014, The OpenBLAS Project




***************************************
The coordinates will be read from file: /users/fjb15167/WWenergy/structures/Nfn.xyz
***************************************


Your calculation utilizes the atom-pairwise dispersion correction
based on tight binding partial charges (D4)
Cite in your paper:
E.Caldeweyher, C.Bannwarth, S.Grimme, J.Chem.Phys., (2017), 147, 034112.
E.Caldeweyher, S.Ehlert, A.Hansen, H.Neugebauer, S.Grimme, J.Chem.Phys., (2018), in progress.
   

================================================================================

----- Orbital basis set information -----
Your calculation utilizes the basis: 6-31G(d)
   H-He, Li-Ne : W. J. Hehre, R. Ditchfield and J.A. Pople, J. Chem. Phys. 56, 2257 (1972).
                 Note: He and Ne are unpublished basis sets taken from the Gaussian program.
                 Note: Li and B from J. D. Dill and J. A. Pople, J. Chem. Phys. 62, 2921 (1975).
   Na - Ar     : M. M. Francl, W. J. Pietro, W. J. Hehre, J. S. Binkley, M. S. Gordon, 
                 D. J. DeFrees and J. A. Pople, J. Chem. Phys. 77, 3654 (1982).
   K - Zn      : V. A. Rassolov, J. A. Pople, M. A. Ratner, and T. L. Windus, J. Chem. Phys. 109, 1223 (1998).

----- AuxJ basis set information -----
Your calculation utilizes the AutoAux generation procedure.
  G. L. Stoychev, A. A. Auer, F. Neese, J. Chem. Theory Comput. 13, 554 (2017)

----- AuxC basis set information -----
Your calculation utilizes the AutoAux generation procedure.
  G. L. Stoychev, A. A. Auer, F. Neese, J. Chem. Theory Comput. 13, 554 (2017)

----- AuxJK basis set information -----
Your calculation utilizes the AutoAux generation procedure.
  G. L. Stoychev, A. A. Auer, F. Neese, J. Chem. Theory Comput. 13, 554 (2017)

================================================================================
                                        WARNINGS
                       Please study these warnings very carefully!
================================================================================


WARNING: Geometry Optimization
  ===> : Switching off AutoStart
         For restart on a previous wavefunction, please use MOREAD

INFO   : the flag for use of the SHARK integral package has been found!

================================================================================
                                       INPUT FILE
================================================================================
NAME = Nfn_gas.inp
|  1> ! OPT FREQ B3LYP 6-31G(d) D4 AUTOAUX
|  2> 
|  3> %PAL NPROCS 4 END
|  4> 
|  5> %maxcore 3375
|  6> 
|  7> *xyzfile 0 1 /users/fjb15167/WWenergy/structures/Nfn.xyz
|  8> 
|  9>                          ****END OF INPUT****
================================================================================

                       *****************************
                       * Geometry Optimization Run *
                       *****************************

Geometry optimization settings:
Update method            Update   .... BFGS
Choice of coordinates    CoordSys .... Z-matrix Internals
Initial Hessian          InHess   .... Almoef's Model

Convergence Tolerances:
Energy Change            TolE     ....  5.0000e-06 Eh
Max. Gradient            TolMAXG  ....  3.0000e-04 Eh/bohr
RMS Gradient             TolRMSG  ....  1.0000e-04 Eh/bohr
Max. Displacement        TolMAXD  ....  4.0000e-03 bohr
RMS Displacement         TolRMSD  ....  2.0000e-03 bohr
Strict Convergence                ....  False
------------------------------------------------------------------------------
                        ORCA OPTIMIZATION COORDINATE SETUP
------------------------------------------------------------------------------

The optimization will be done in new redundant internal coordinates
Making redundant internal coordinates   ...  (new redundants) done
Evaluating the initial hessian          ...  (Almloef) done
Evaluating the coordinates              ...  done
Calculating the B-matrix                .... done
Calculating the G-matrix                .... done
Diagonalizing the G-matrix              .... done
Small eigenvalue found = 6.153e-03
Small eigenvalue found = 8.165e-03
Small eigenvalue found = 1.112e-02
Small eigenvalue found = 1.965e-02
Small eigenvalue found = 2.415e-02
The first mode is                       ....   62
The number of degrees of freedom        ....   90

    -----------------------------------------------------------------
                    Redundant Internal Coordinates


    -----------------------------------------------------------------
         Definition                    Initial Value    Approx d2E/dq
    -----------------------------------------------------------------
      1. B(H   1,C   0)                  1.0920         0.357454   
      2. B(H   2,C   0)                  1.0902         0.359851   
      3. B(H   3,C   0)                  1.0925         0.356760   
      4. B(C   4,C   0)                  1.5105         0.401320   
      5. B(N   5,C   4)                  1.3741         0.593165   
      6. B(C   6,N   5)                  1.4287         0.485437   
      7. B(C   7,C   6)                  1.3990         0.604474   
      8. B(C   8,C   6)                  1.3993         0.603822   
      9. B(C   9,C   7)                  1.3951         0.613140   
     10. B(H  10,C   7)                  1.0876         0.363332   
     11. B(C  11,C   8)                  1.3966         0.609767   
     12. B(H  12,C   8)                  1.0868         0.364317   
     13. B(C  13,C  11)                  1.3976         0.607485   
     14. B(C  13,C   9)                  1.3975         0.607772   
     15. B(H  14,C   9)                  1.0879         0.362882   
     16. B(H  15,C  11)                  1.0874         0.363497   
     17. B(H  16,C  13)                  1.0873         0.363717   
     18. B(C  17,N   5)                  1.4574         0.436789   
     19. B(H  18,C  17)                  1.0949         0.353645   
     20. B(H  19,C  17)                  1.0910         0.358743   
     21. B(C  20,C  17)                  1.5319         0.370923   
     22. B(N  21,C  20)                  1.3635         0.616853   
     23. B(O  22,C  20)                  1.2386         0.975848   
     24. B(O  23,C   4)                  1.2388         0.975077   
     25. B(C  24,N  21)                  1.4634         0.427271   
     26. B(H  25,C  24)                  1.0926         0.356647   
     27. B(H  26,C  24)                  1.0912         0.358548   
     28. B(H  27,C  24)                  1.0933         0.355794   
     29. B(C  28,N  21)                  1.4588         0.434598   
     30. B(H  29,C  28)                  1.0924         0.356943   
     31. B(H  30,C  28)                  1.0965         0.351617   
     32. B(H  31,C  28)                  1.0884         0.362251   
     33. A(H   2,C   0,C   4)          107.4238         0.328128   
     34. A(H   2,C   0,H   3)          109.9256         0.290383   
     35. A(H   1,C   0,C   4)          111.4727         0.327767   
     36. A(H   3,C   0,C   4)          110.9598         0.327662   
     37. A(H   1,C   0,H   3)          107.7604         0.290078   
     38. A(H   1,C   0,H   2)          109.2937         0.290471   
     39. A(C   0,C   4,N   5)          117.3589         0.396050   
     40. A(C   0,C   4,O  23)          122.5524         0.432611   
     41. A(N   5,C   4,O  23)          120.0881         0.461293   
     42. A(C   4,N   5,C   6)          123.7540         0.406926   
     43. A(C   4,N   5,C  17)          115.1920         0.399417   
     44. A(C   6,N   5,C  17)          120.0815         0.385650   
     45. A(C   7,C   6,C   8)          120.6596         0.430044   
     46. A(N   5,C   6,C   8)          119.9052         0.410858   
     47. A(N   5,C   6,C   7)          119.4157         0.410937   
     48. A(C   9,C   7,H  10)          120.9614         0.352778   
     49. A(C   6,C   7,H  10)          119.3946         0.351930   
     50. A(C   6,C   7,C   9)          119.6405         0.431228   
     51. A(C   6,C   8,C  11)          119.1763         0.430718   
     52. A(C  11,C   8,H  12)          122.2862         0.352610   
     53. A(C   6,C   8,H  12)          118.5366         0.352027   
     54. A(C  13,C   9,H  14)          120.0716         0.352180   
     55. A(C   7,C   9,H  14)          119.7883         0.352704   
     56. A(C   7,C   9,C  13)          120.1339         0.431650   
     57. A(C  13,C  11,H  15)          119.9806         0.352253   
     58. A(C   8,C  11,H  15)          119.4941         0.352476   
     59. A(C   8,C  11,C  13)          120.5237         0.431186   
     60. A(C  11,C  13,H  16)          120.0817         0.352289   
     61. A(C   9,C  13,H  16)          120.0652         0.352317   
     62. A(C   9,C  13,C  11)          119.8527         0.430932   
     63. A(H  18,C  17,H  19)          108.5118         0.289843   
     64. A(N   5,C  17,H  19)          109.0213         0.330582   
     65. A(N   5,C  17,H  18)          107.7206         0.329800   
     66. A(H  19,C  17,C  20)          113.0870         0.323739   
     67. A(H  18,C  17,C  20)          107.9717         0.322980   
     68. A(N   5,C  17,C  20)          110.3692         0.370440   
     69. A(N  21,C  20,O  22)          122.8766         0.464674   
     70. A(C  17,C  20,O  22)          119.2314         0.426600   
     71. A(C  17,C  20,N  21)          117.7426         0.393310   
     72. A(C  24,N  21,C  28)          116.6560         0.376875   
     73. A(C  20,N  21,C  28)          116.9008         0.401824   
     74. A(C  20,N  21,C  24)          122.4252         0.400623   
     75. A(H  26,C  24,H  27)          107.4741         0.290094   
     76. A(H  25,C  24,H  27)          109.9353         0.289852   
     77. A(N  21,C  24,H  27)          111.3721         0.328931   
     78. A(H  25,C  24,H  26)          109.2935         0.290203   
     79. A(N  21,C  24,H  26)          107.7388         0.329350   
     80. A(N  21,C  24,H  25)          110.9200         0.329061   
     81. A(H  30,C  28,H  31)          108.7283         0.290024   
     82. A(H  29,C  28,H  31)          109.9441         0.290709   
     83. A(N  21,C  28,H  31)          108.5096         0.330839   
     84. A(H  29,C  28,H  30)          109.3792         0.289354   
     85. A(N  21,C  28,H  30)          111.1901         0.329214   
     86. A(N  21,C  28,H  29)          109.0760         0.330032   
     87. D(O  23,C   4,C   0,H   2)     -7.1613         0.011949   
     88. D(N   5,C   4,C   0,H   1)    -67.7155         0.011949   
     89. D(O  23,C   4,C   0,H   3)   -127.3411         0.011949   
     90. D(O  23,C   4,C   0,H   1)    112.5466         0.011949   
     91. D(N   5,C   4,C   0,H   3)     52.3968         0.011949   
     92. D(N   5,C   4,C   0,H   2)    172.5766         0.011949   
     93. D(C   6,N   5,C   4,O  23)    174.8681         0.028305   
     94. D(C  17,N   5,C   4,O  23)      6.1791         0.028305   
     95. D(C   6,N   5,C   4,C   0)     -4.8765         0.028305   
     96. D(C  17,N   5,C   4,C   0)   -173.5656         0.028305   
     97. D(C   8,C   6,N   5,C  17)     63.7793         0.018599   
     98. D(C   7,C   6,N   5,C  17)   -114.6264         0.018599   
     99. D(C   7,C   6,N   5,C   4)     77.2092         0.018599   
    100. D(C   8,C   6,N   5,C   4)   -104.3851         0.018599   
    101. D(C   9,C   7,C   6,N   5)    179.7118         0.025209   
    102. D(H  10,C   7,C   6,C   8)   -178.0045         0.025209   
    103. D(H  10,C   7,C   6,N   5)      0.3889         0.025209   
    104. D(C   9,C   7,C   6,C   8)      1.3184         0.025209   
    105. D(H  12,C   8,C   6,C   7)    179.7729         0.025152   
    106. D(H  12,C   8,C   6,N   5)      1.3874         0.025152   
    107. D(C  11,C   8,C   6,C   7)     -0.5693         0.025152   
    108. D(C  11,C   8,C   6,N   5)   -178.9549         0.025152   
    109. D(H  14,C   9,C   7,H  10)     -0.9071         0.025980   
    110. D(H  14,C   9,C   7,C   6)    179.7808         0.025980   
    111. D(C  13,C   9,C   7,H  10)    178.1884         0.025980   
    112. D(C  13,C   9,C   7,C   6)     -1.1236         0.025980   
    113. D(H  15,C  11,C   8,H  12)     -0.2650         0.025678   
    114. D(H  15,C  11,C   8,C   6)   -179.9094         0.025678   
    115. D(C  13,C  11,C   8,H  12)    179.2694         0.025678   
    116. D(C  13,C  11,C   8,C   6)     -0.3749         0.025678   
    117. D(C  11,C  13,C   9,C   7)      0.1924         0.025501   
    118. D(H  16,C  13,C  11,H  15)     -0.1180         0.025475   
    119. D(H  16,C  13,C  11,C   8)   -179.6502         0.025475   
    120. D(C   9,C  13,C  11,H  15)   -179.9040         0.025475   
    121. D(C   9,C  13,C  11,C   8)      0.5638         0.025475   
    122. D(H  16,C  13,C   9,H  14)     -0.5006         0.025501   
    123. D(H  16,C  13,C   9,C   7)   -179.5936         0.025501   
    124. D(C  11,C  13,C   9,H  14)    179.2854         0.025501   
    125. D(C  20,C  17,N   5,C   6)   -107.0034         0.016267   
    126. D(C  20,C  17,N   5,C   4)     62.1340         0.016267   
    127. D(H  19,C  17,N   5,C   6)    128.2156         0.016267   
    128. D(H  19,C  17,N   5,C   4)    -62.6470         0.016267   
    129. D(H  18,C  17,N   5,C   6)     10.6525         0.016267   
    130. D(H  18,C  17,N   5,C   4)    179.7899         0.016267   
    131. D(O  22,C  20,C  17,H  19)    168.2872         0.010299   
    132. D(O  22,C  20,C  17,H  18)    -71.6390         0.010299   
    133. D(O  22,C  20,C  17,N   5)     45.8622         0.010299   
    134. D(N  21,C  20,C  17,H  19)    -16.0276         0.010299   
    135. D(N  21,C  20,C  17,H  18)    104.0463         0.010299   
    136. D(N  21,C  20,C  17,N   5)   -138.4526         0.010299   
    137. D(C  28,N  21,C  20,O  22)     -6.1834         0.030787   
    138. D(C  28,N  21,C  20,C  17)    178.3002         0.030787   
    139. D(C  24,N  21,C  20,O  22)   -162.8582         0.030787   
    140. D(C  24,N  21,C  20,C  17)     21.6254         0.030787   
    141. D(H  27,C  24,N  21,C  28)    133.7089         0.015565   
    142. D(H  27,C  24,N  21,C  20)    -69.5631         0.015565   
    143. D(H  26,C  24,N  21,C  28)     16.0810         0.015565   
    144. D(H  26,C  24,N  21,C  20)    172.8090         0.015565   
    145. D(H  25,C  24,N  21,C  28)   -103.5006         0.015565   
    146. D(H  25,C  24,N  21,C  20)     53.2274         0.015565   
    147. D(H  30,C  28,N  21,C  20)    -90.1369         0.016104   
    148. D(H  29,C  28,N  21,C  24)    -52.8025         0.016104   
    149. D(H  29,C  28,N  21,C  20)    149.1578         0.016104   
    150. D(H  31,C  28,N  21,C  24)   -172.5634         0.016104   
    151. D(H  31,C  28,N  21,C  20)     29.3969         0.016104   
    152. D(H  30,C  28,N  21,C  24)     67.9028         0.016104   
    -----------------------------------------------------------------

Number of atoms                         .... 32
Number of degrees of freedom            .... 152

         *************************************************************
         *                GEOMETRY OPTIMIZATION CYCLE   1            *
         *************************************************************
---------------------------------
CARTESIAN COORDINATES (ANGSTROEM)
---------------------------------
  C      0.884000    2.330000   -1.316000
  H      1.640000    2.842000   -0.717000
  H      0.355000    3.060000   -1.929000
  H      1.398000    1.609000   -1.956000
  C     -0.141000    1.644000   -0.444000
  N      0.282000    0.571000    0.303000
  C      1.596000    0.016000    0.222000
  C      2.659000    0.672000    0.852000
  C      1.803000   -1.191000   -0.455000
  C      3.943000    0.131000    0.781000
  H      2.469000    1.592000    1.400000
  C      3.090000   -1.731000   -0.506000
  H      0.952000   -1.673000   -0.929000
  C      4.161000   -1.072000    0.104000
  H      4.772000    0.641000    1.267000
  H      3.257000   -2.668000   -1.032000
  H      5.161000   -1.496000    0.055000
  C     -0.771000   -0.145000    1.012000
  H     -0.303000   -0.970000    1.559000
  H     -1.236000    0.529000    1.733000
  C     -1.771000   -0.744000    0.018000
  N     -3.097000   -0.663000    0.325000
  O     -1.347000   -1.346000   -0.978000
  O     -1.323000    2.011000   -0.390000
  C     -3.626000    0.327000    1.264000
  H     -3.314000    1.336000    0.984000
  H     -4.715000    0.265000    1.234000
  H     -3.313000    0.111000    2.289000
  C     -4.035000   -1.205000   -0.652000
  H     -4.916000   -1.584000   -0.129000
  H     -4.342000   -0.439000   -1.374000
  H     -3.545000   -2.015000   -1.189000

----------------------------
CARTESIAN COORDINATES (A.U.)
----------------------------
  NO LB      ZA    FRAG     MASS         X           Y           Z
   0 C     6.0000    0    12.011    1.670518    4.403062   -2.486880
   1 H     1.0000    0     1.008    3.099151    5.370602   -1.354934
   2 H     1.0000    0     1.008    0.670853    5.782562   -3.645282
   3 H     1.0000    0     1.008    2.641837    3.040569   -3.696304
   4 C     6.0000    0    12.011   -0.266451    3.106710   -0.839038
   5 N     7.0000    0    14.007    0.532903    1.079034    0.572587
   6 C     6.0000    0    12.011    3.016003    0.030236    0.419519
   7 C     6.0000    0    12.011    5.024782    1.269896    1.610047
   8 C     6.0000    0    12.011    3.407176   -2.250664   -0.859825
   9 C     6.0000    0    12.011    7.451190    0.247554    1.475876
  10 H     1.0000    0     1.008    4.665734    3.008444    2.645617
  11 C     6.0000    0    12.011    5.839254   -3.271116   -0.956201
  12 H     1.0000    0     1.008    1.799019   -3.161512   -1.755556
  13 C     6.0000    0    12.011    7.863150   -2.025786    0.196532
  14 H     1.0000    0     1.008    9.017773    1.211314    2.394283
  15 H     1.0000    0     1.008    6.154838   -5.041789   -1.950197
  16 H     1.0000    0     1.008    9.752877   -2.827030    0.103935
  17 C     6.0000    0    12.011   -1.456979   -0.274010    1.912403
  18 H     1.0000    0     1.008   -0.572587   -1.833034    2.946083
  19 H     1.0000    0     1.008   -2.335702    0.999665    3.274895
  20 C     6.0000    0    12.011   -3.346705   -1.405956    0.034015
  21 N     7.0000    0    14.007   -5.852482   -1.252888    0.614161
  22 O     8.0000    0    15.999   -2.545461   -2.543571   -1.848152
  23 O     8.0000    0    15.999   -2.500108    3.800239   -0.736993
  24 C     6.0000    0    12.011   -6.852147    0.617940    2.388614
  25 H     1.0000    0     1.008   -6.262552    2.524674    1.859491
  26 H     1.0000    0     1.008   -8.910059    0.500777    2.331922
  27 H     1.0000    0     1.008   -6.260663    0.209760    4.325583
  28 C     6.0000    0    12.011   -7.625045   -2.277120   -1.232101
  29 H     1.0000    0     1.008   -9.289894   -2.993326   -0.243775
  30 H     1.0000    0     1.008   -8.205191   -0.829590   -2.596484
  31 H     1.0000    0     1.008   -6.699079   -3.807798   -2.246884

--------------------------------
INTERNAL COORDINATES (ANGSTROEM)
--------------------------------
 C      0   0   0     0.000000000000     0.00000000     0.00000000
 H      1   0   0     1.092007783855     0.00000000     0.00000000
 H      1   2   0     1.090188057172   109.29365908     0.00000000
 H      1   2   3     1.092536955897   107.76043554   119.42456556
 C      1   2   3     1.510498262164   111.47271453   241.40461264
 N      5   1   2     1.374142277932   117.35890837   292.28454173
 C      6   5   1     1.428699408553   123.75401458   355.12346433
 C      7   6   5     1.399001429592   119.41569237    77.20916896
 C      7   6   5     1.399295179724   119.90519623   255.61487315
 C      8   7   6     1.395126517560   119.64046038   179.71177910
 H      8   7   6     1.087567928913   119.39461782     0.38885654
 C      9   7   6     1.396628082204   119.17630234   181.04514991
 H      9   7   6     1.086830713589   118.53659151     1.38736873
 C     10   8   7     1.397519946190   120.13390237   358.87637801
 H     10   8   7     1.087904867164   119.78827026   179.78082205
 H     12   9   7     1.087443791651   119.49412623   180.09058451
 H     14  10   8     1.087279632845   120.06522381   180.40637917
 C      6   5   1     1.457445024692   115.19203675   186.43444148
 H     18   6   5     1.094923741637   107.72056885   179.78992373
 H     18   6   5     1.091027955646   109.02133306   297.35296511
 C     18   6   5     1.531938967453   110.36921051    62.13400373
 N     21  18   6     1.363483039865   117.74256310   221.54741880
 O     21  18   6     1.238626658844   119.23141636    45.86217448
 O      5   1   2     1.238841797810   122.55244701   112.54664408
 C     22  21  18     1.463441833487   122.42516760    21.62544138
 H     25  22  21     1.092622990789   110.92000167    53.22737547
 H     25  22  21     1.091175971143   107.73875730   172.80897196
 H     25  22  21     1.093274896812   111.37213621   290.43687949
 C     22  21  18     1.458813559027   116.90076885   178.30023748
 H     29  22  21     1.092396905891   109.07600998   149.15779960
 H     29  22  21     1.096489398034   111.19012207   269.86312359
 H     29  22  21     1.088379069994   108.50955243    29.39686649

---------------------------
INTERNAL COORDINATES (A.U.)
---------------------------
 C      0   0   0     0.000000000000     0.00000000     0.00000000
 H      1   0   0     2.063595647596     0.00000000     0.00000000
 H      1   2   0     2.060156862526   109.29365908     0.00000000
 H      1   2   3     2.064595637833   107.76043554   119.42456556
 C      1   2   3     2.854428041254   111.47271453   241.40461264
 N      5   1   2     2.596752574334   117.35890837   292.28454173
 C      6   5   1     2.699850609861   123.75401458   355.12346433
 C      7   6   5     2.643729562893   119.41569237    77.20916896
 C      7   6   5     2.644284670195   119.90519623   255.61487315
 C      8   7   6     2.636407040360   119.64046038   179.71177910
 H      8   7   6     2.055205537681   119.39461782     0.38885654
 C      9   7   6     2.639244586309   119.17630234   181.04514991
 H      9   7   6     2.053812402617   118.53659151     1.38736873
 C     10   8   7     2.640929964992   120.13390237   358.87637801
 H     10   8   7     2.055842258701   119.78827026   179.78082205
 H     12   9   7     2.054970952253   119.49412623   180.09058451
 H     14  10   8     2.054660737068   120.06522381   180.40637917
 C      6   5   1     2.754171951914   115.19203675   186.43444148
 H     18   6   5     2.069106009222   107.72056885   179.78992373
 H     18   6   5     2.061744040622   109.02133306   297.35296511
 C     18   6   5     2.894945102368   110.36921051    62.13400373
 N     21  18   6     2.576609533592   117.74256310   221.54741880
 O     21  18   6     2.340665167390   119.23141636    45.86217448
 O      5   1   2     2.341071721115   122.55244701   112.54664408
 C     22  21  18     2.765504278214   122.42516760    21.62544138
 H     25  22  21     2.064758220217   110.92000167    53.22737547
 H     25  22  21     2.062023749376   107.73875730   172.80897196
 H     25  22  21     2.065990144066   111.37213621   290.43687949
 C     22  21  18     2.756758107011   116.90076885   178.30023748
 H     29  22  21     2.064330981677   109.07600998   149.15779960
 H     29  22  21     2.072064671032   111.19012207   269.86312359
 H     29  22  21     2.056738372180   108.50955243    29.39686649

---------------------
BASIS SET INFORMATION
---------------------
There are 4 groups of distinct atoms

 Group   1 Type C   : 10s4p1d contracted to 3s2p1d pattern {631/31/1}
 Group   2 Type H   : 4s contracted to 2s pattern {31}
 Group   3 Type N   : 10s4p1d contracted to 3s2p1d pattern {631/31/1}
 Group   4 Type O   : 10s4p1d contracted to 3s2p1d pattern {631/31/1}

Atom   0C    basis set group =>   1
Atom   1H    basis set group =>   2
Atom   2H    basis set group =>   2
Atom   3H    basis set group =>   2
Atom   4C    basis set group =>   1
Atom   5N    basis set group =>   3
Atom   6C    basis set group =>   1
Atom   7C    basis set group =>   1
Atom   8C    basis set group =>   1
Atom   9C    basis set group =>   1
Atom  10H    basis set group =>   2
Atom  11C    basis set group =>   1
Atom  12H    basis set group =>   2
Atom  13C    basis set group =>   1
Atom  14H    basis set group =>   2
Atom  15H    basis set group =>   2
Atom  16H    basis set group =>   2
Atom  17C    basis set group =>   1
Atom  18H    basis set group =>   2
Atom  19H    basis set group =>   2
Atom  20C    basis set group =>   1
Atom  21N    basis set group =>   3
Atom  22O    basis set group =>   4
Atom  23O    basis set group =>   4
Atom  24C    basis set group =>   1
Atom  25H    basis set group =>   2
Atom  26H    basis set group =>   2
Atom  27H    basis set group =>   2
Atom  28C    basis set group =>   1
Atom  29H    basis set group =>   2
Atom  30H    basis set group =>   2
Atom  31H    basis set group =>   2
---------------------------------
AUXILIARY/J BASIS SET INFORMATION
---------------------------------
There are 4 groups of distinct atoms

 Group   1 Type C   : 13s11p10d2f contracted to 13s11p10d2f pattern {1111111111111/11111111111/1111111111/11}
 Group   2 Type H   : 9s2p contracted to 9s2p pattern {111111111/11}
 Group   3 Type N   : 14s11p10d2f contracted to 14s11p10d2f pattern {11111111111111/11111111111/1111111111/11}
 Group   4 Type O   : 14s11p10d2f contracted to 14s11p10d2f pattern {11111111111111/11111111111/1111111111/11}

Atom   0C    basis set group =>   1
Atom   1H    basis set group =>   2
Atom   2H    basis set group =>   2
Atom   3H    basis set group =>   2
Atom   4C    basis set group =>   1
Atom   5N    basis set group =>   3
Atom   6C    basis set group =>   1
Atom   7C    basis set group =>   1
Atom   8C    basis set group =>   1
Atom   9C    basis set group =>   1
Atom  10H    basis set group =>   2
Atom  11C    basis set group =>   1
Atom  12H    basis set group =>   2
Atom  13C    basis set group =>   1
Atom  14H    basis set group =>   2
Atom  15H    basis set group =>   2
Atom  16H    basis set group =>   2
Atom  17C    basis set group =>   1
Atom  18H    basis set group =>   2
Atom  19H    basis set group =>   2
Atom  20C    basis set group =>   1
Atom  21N    basis set group =>   3
Atom  22O    basis set group =>   4
Atom  23O    basis set group =>   4
Atom  24C    basis set group =>   1
Atom  25H    basis set group =>   2
Atom  26H    basis set group =>   2
Atom  27H    basis set group =>   2
Atom  28C    basis set group =>   1
Atom  29H    basis set group =>   2
Atom  30H    basis set group =>   2
Atom  31H    basis set group =>   2
---------------------------------
AUXILIARY/C BASIS SET INFORMATION
---------------------------------
There are 4 groups of distinct atoms

 Group   1 Type C   : 13s11p10d2f contracted to 13s11p10d2f pattern {1111111111111/11111111111/1111111111/11}
 Group   2 Type H   : 9s2p contracted to 9s2p pattern {111111111/11}
 Group   3 Type N   : 14s11p10d2f contracted to 14s11p10d2f pattern {11111111111111/11111111111/1111111111/11}
 Group   4 Type O   : 14s11p10d2f contracted to 14s11p10d2f pattern {11111111111111/11111111111/1111111111/11}

Atom   0C    basis set group =>   1
Atom   1H    basis set group =>   2
Atom   2H    basis set group =>   2
Atom   3H    basis set group =>   2
Atom   4C    basis set group =>   1
Atom   5N    basis set group =>   3
Atom   6C    basis set group =>   1
Atom   7C    basis set group =>   1
Atom   8C    basis set group =>   1
Atom   9C    basis set group =>   1
Atom  10H    basis set group =>   2
Atom  11C    basis set group =>   1
Atom  12H    basis set group =>   2
Atom  13C    basis set group =>   1
Atom  14H    basis set group =>   2
Atom  15H    basis set group =>   2
Atom  16H    basis set group =>   2
Atom  17C    basis set group =>   1
Atom  18H    basis set group =>   2
Atom  19H    basis set group =>   2
Atom  20C    basis set group =>   1
Atom  21N    basis set group =>   3
Atom  22O    basis set group =>   4
Atom  23O    basis set group =>   4
Atom  24C    basis set group =>   1
Atom  25H    basis set group =>   2
Atom  26H    basis set group =>   2
Atom  27H    basis set group =>   2
Atom  28C    basis set group =>   1
Atom  29H    basis set group =>   2
Atom  30H    basis set group =>   2
Atom  31H    basis set group =>   2
----------------------------------
AUXILIARY/JK BASIS SET INFORMATION
----------------------------------
There are 4 groups of distinct atoms

 Group   1 Type C   : 13s11p10d2f contracted to 13s11p10d2f pattern {1111111111111/11111111111/1111111111/11}
 Group   2 Type H   : 9s2p contracted to 9s2p pattern {111111111/11}
 Group   3 Type N   : 14s11p10d2f contracted to 14s11p10d2f pattern {11111111111111/11111111111/1111111111/11}
 Group   4 Type O   : 14s11p10d2f contracted to 14s11p10d2f pattern {11111111111111/11111111111/1111111111/11}

Atom   0C    basis set group =>   1
Atom   1H    basis set group =>   2
Atom   2H    basis set group =>   2
Atom   3H    basis set group =>   2
Atom   4C    basis set group =>   1
Atom   5N    basis set group =>   3
Atom   6C    basis set group =>   1
Atom   7C    basis set group =>   1
Atom   8C    basis set group =>   1
Atom   9C    basis set group =>   1
Atom  10H    basis set group =>   2
Atom  11C    basis set group =>   1
Atom  12H    basis set group =>   2
Atom  13C    basis set group =>   1
Atom  14H    basis set group =>   2
Atom  15H    basis set group =>   2
Atom  16H    basis set group =>   2
Atom  17C    basis set group =>   1
Atom  18H    basis set group =>   2
Atom  19H    basis set group =>   2
Atom  20C    basis set group =>   1
Atom  21N    basis set group =>   3
Atom  22O    basis set group =>   4
Atom  23O    basis set group =>   4
Atom  24C    basis set group =>   1
Atom  25H    basis set group =>   2
Atom  26H    basis set group =>   2
Atom  27H    basis set group =>   2
Atom  28C    basis set group =>   1
Atom  29H    basis set group =>   2
Atom  30H    basis set group =>   2
Atom  31H    basis set group =>   2


           ************************************************************
           *        Program running with 4 parallel MPI-processes     *
           *              working on a common directory               *
           ************************************************************
------------------------------------------------------------------------------
                           ORCA GTO INTEGRAL CALCULATION
                           -- RI-GTO INTEGRALS CHOSEN --
------------------------------------------------------------------------------
------------------------------------------------------------------------------
                   ___                                                        
                  /   \      - P O W E R E D   B Y -                         
                 /     \                                                     
                 |  |  |   _    _      __       _____    __    __             
                 |  |  |  | |  | |    /  \     |  _  \  |  |  /  |          
                  \  \/   | |  | |   /    \    | | | |  |  | /  /          
                 / \  \   | |__| |  /  /\  \   | |_| |  |  |/  /          
                |  |  |   |  __  | /  /__\  \  |    /   |      \           
                |  |  |   | |  | | |   __   |  |    \   |  |\   \          
                \     /   | |  | | |  |  |  |  | |\  \  |  | \   \       
                 \___/    |_|  |_| |__|  |__|  |_| \__\ |__|  \__/        
                                                                              
                      - O R C A' S   B I G   F R I E N D -                    
                                      &                                       
                       - I N T E G R A L  F E E D E R -                       
                                                                              
 v1 FN, 2020, v2 2021                                                         
------------------------------------------------------------------------------


Reading SHARK input file Nfn_gas.SHARKINP.tmp ... ok
----------------------
SHARK INTEGRAL PACKAGE
----------------------

Number of atoms                             ...     32
Number of basis functions                   ...    256
Number of shells                            ...    128
Maximum angular momentum                    ...      2
Integral batch strategy                     ... SHARK/LIBINT Hybrid
RI-J (if used) integral strategy            ... SPLIT-RIJ (Revised 2003 algorithm where possible)
Printlevel                                  ...      1
Contraction scheme used                     ... SEGMENTED contraction
Coulomb Range Separation                    ... NOT USED
Exchange Range Separation                   ... NOT USED
Finite Nucleus Model                        ... NOT USED
Auxiliary Coulomb fitting basis             ... AVAILABLE
   # of basis functions in Aux-J            ...   2004
   # of shells in Aux-J                     ...    756
   Maximum angular momentum in Aux-J        ...      3
Auxiliary J/K fitting basis                 ... AVAILABLE
   # of basis functions in Aux-JK           ...   2004
   # of shells in Aux-JK                    ...    756
   Maximum angular momentum in Aux-JK       ...      3
Auxiliary Correlation fitting basis         ... AVAILABLE
   # of basis functions in Aux-C            ...   2004
   # of shells in Aux-C                     ...    756
   Maximum angular momentum in Aux-C        ...      3
Auxiliary 'external' fitting basis          ... NOT available
Integral threshold                          ...     2.500000e-11
Primitive cut-off                           ...     2.500000e-12
Primitive pair pre-selection threshold      ...     2.500000e-12

Calculating pre-screening integrals         ... done (  0.0 sec) Dimension = 128
Organizing shell pair data                  ... done (  1.0 sec)
Shell pair information
Total number of shell pairs                 ...      8256
Shell pairs after pre-screening             ...      6727
Total number of primitive shell pairs       ...     46744
Primitive shell pairs kept                  ...     22049
          la=0 lb=0:   2500 shell pairs
          la=1 lb=0:   2215 shell pairs
          la=1 lb=1:    498 shell pairs
          la=2 lb=0:    962 shell pairs
          la=2 lb=1:    448 shell pairs
          la=2 lb=2:    104 shell pairs

Calculating one electron integrals          ... done (  0.0 sec)
Calculating RI/J V-Matrix + Cholesky decomp.... done (  0.2 sec)
Calculating RI/JK V-Matrix + Cholesky decomp... done (  0.3 sec)
Calculating RI/C V-Matrix + Cholesky decomp.... done (  0.3 sec)
Calculating Nuclear repulsion               ... done (  0.0 sec) ENN=   1118.783182039903 Eh

SHARK setup successfully completed in   2.2 seconds

Maximum memory used throughout the entire GTOINT-calculation: 34.9 MB


           ************************************************************
           *        Program running with 4 parallel MPI-processes     *
           *              working on a common directory               *
           ************************************************************
-------------------------------------------------------------------------------
                                 ORCA SCF
-------------------------------------------------------------------------------

------------
SCF SETTINGS
------------
Hamiltonian:
 Density Functional     Method          .... DFT(GTOs)
 Exchange Functional    Exchange        .... B88
   X-Alpha parameter    XAlpha          ....  0.666667
   Becke's b parameter  XBeta           ....  0.004200
 Correlation Functional Correlation     .... LYP
 LDA part of GGA corr.  LDAOpt          .... VWN-5
 Gradients option       PostSCFGGA      .... off
 Hybrid DFT is turned on
   Fraction HF Exchange ScalHFX         ....  0.200000
   Scaling of DF-GGA-X  ScalDFX         ....  0.720000
   Scaling of DF-GGA-C  ScalDFC         ....  0.810000
   Scaling of DF-LDA-C  ScalLDAC        ....  1.000000
   Perturbative correction              ....  0.000000
   Density functional embedding theory  .... OFF
   NL short-range parameter             ....  4.800000
 RI-approximation to the Coulomb term is turned on
   Number of AuxJ basis functions       .... 2004
   RIJ-COSX (HFX calculated with COS-X)).... on


General Settings:
 Integral files         IntName         .... Nfn_gas
 Hartree-Fock type      HFTyp           .... RHF
 Total Charge           Charge          ....    0
 Multiplicity           Mult            ....    1
 Number of Electrons    NEL             ....  118
 Basis Dimension        Dim             ....  256
 Nuclear Repulsion      ENuc            ....   1118.7831820399 Eh

Convergence Acceleration:
 DIIS                   CNVDIIS         .... on
   Start iteration      DIISMaxIt       ....    12
   Startup error        DIISStart       ....  0.200000
   # of expansion vecs  DIISMaxEq       ....     5
   Bias factor          DIISBfac        ....   1.050
   Max. coefficient     DIISMaxC        ....  10.000
 Trust-Rad. Augm. Hess. CNVTRAH         .... auto
   Auto Start mean grad. ratio tolernc. ....  1.125000
   Auto Start start iteration           ....    20
   Auto Start num. interpolation iter.  ....    10
   Max. Number of Micro iterations      ....    16
   Max. Number of Macro iterations      .... Maxiter - #DIIS iter
   Number of Davidson start vectors     ....     2
   Converg. threshold I  (grad. norm)   ....   1.000e-05
   Converg. threshold II (energy diff.) ....   1.000e-08
   Grad. Scal. Fac. for Micro threshold ....   0.100
   Minimum threshold for Micro iter.    ....   0.010
   NR start threshold (gradient norm)   ....   0.001
   Initial trust radius                 ....   0.400
   Minimum AH scaling param. (alpha)    ....   1.000
   Maximum AH scaling param. (alpha)    .... 1000.000
   Orbital update algorithm             .... Taylor
   White noise on init. David. guess    .... on
   Maximum white noise                  ....   0.010
   Quad. conv. algorithm                .... NR
 SOSCF                  CNVSOSCF        .... on
   Start iteration      SOSCFMaxIt      ....   150
   Startup grad/error   SOSCFStart      ....  0.003300
 Level Shifting         CNVShift        .... on
   Level shift para.    LevelShift      ....    0.2500
   Turn off err/grad.   ShiftErr        ....    0.0010
 Zerner damping         CNVZerner       .... off
 Static damping         CNVDamp         .... on
   Fraction old density DampFac         ....    0.7000
   Max. Damping (<1)    DampMax         ....    0.9800
   Min. Damping (>=0)   DampMin         ....    0.0000
   Turn off err/grad.   DampErr         ....    0.1000
 Fernandez-Rico         CNVRico         .... off

SCF Procedure:
 Maximum # iterations   MaxIter         ....   125
 SCF integral mode      SCFMode         .... Direct
   Integral package                     .... SHARK and LIBINT hybrid scheme
 Reset frequency        DirectResetFreq ....    20
 Integral Threshold     Thresh          ....  2.500e-11 Eh
 Primitive CutOff       TCut            ....  2.500e-12 Eh

Convergence Tolerance:
 Convergence Check Mode ConvCheckMode   .... Total+1el-Energy
 Convergence forced     ConvForced      .... 0
 Energy Change          TolE            ....  1.000e-08 Eh
 1-El. energy change                    ....  1.000e-05 Eh
 Orbital Gradient       TolG            ....  1.000e-05
 Orbital Rotation angle TolX            ....  1.000e-05
 DIIS Error             TolErr          ....  5.000e-07


Diagonalization of the overlap matrix:
Smallest eigenvalue                        ... 4.660e-04
Time for diagonalization                   ...    0.011 sec
Threshold for overlap eigenvalues          ... 1.000e-08
Number of eigenvalues below threshold      ... 0
Time for construction of square roots      ...    0.006 sec
Total time needed                          ...    0.018 sec

Time for model grid setup =    0.300 sec

------------------------------
INITIAL GUESS: MODEL POTENTIAL
------------------------------
Loading Hartree-Fock densities                     ... done
Calculating cut-offs                               ... done
Initializing the effective Hamiltonian             ... done
Setting up the integral package (SHARK)            ... done
Starting the Coulomb interaction                   ... done (   0.2 sec)
Reading the grid                                   ... done
Mapping shells                                     ... done
Starting the XC term evaluation                    ... done (   0.2 sec)
  promolecular density results
     # of electrons  =    117.988605665
     EX              =    -96.002995384
     EC              =     -3.990397160
     EX+EC           =    -99.993392544
Transforming the Hamiltonian                       ... done (   0.0 sec)
Diagonalizing the Hamiltonian                      ... done (   0.0 sec)
Back transforming the eigenvectors                 ... done (   0.0 sec)
Now organizing SCF variables                       ... done
                      ------------------
                      INITIAL GUESS DONE (   0.7 sec)
                      ------------------
-------------------
DFT GRID GENERATION
-------------------

General Integration Accuracy     IntAcc      ... 4.388
Radial Grid Type                 RadialGrid  ... OptM3 with GC (2021)
Angular Grid (max. ang.)         AngularGrid ... 4 (Lebedev-302)
Angular grid pruning method      GridPruning ... 4 (adaptive)
Weight generation scheme         WeightScheme... Becke
Basis function cutoff            BFCut       ... 1.0000e-11
Integration weight cutoff        WCut        ... 1.0000e-14
Angular grids for H and He will be reduced by one unit
Partially contracted basis set               ... off
Rotationally invariant grid construction     ... off

Total number of grid points                  ...   146918
Total number of batches                      ...     2313
Average number of points per batch           ...       63
Average number of grid points per atom       ...     4591
Time for grid setup =    1.189 sec

--------------------
COSX GRID GENERATION
--------------------

GRIDX 1
-------
General Integration Accuracy     IntAcc      ... 3.816
Radial Grid Type                 RadialGrid  ... OptM3 with GC (2021)
Angular Grid (max. ang.)         AngularGrid ... 1 (Lebedev-50)
Angular grid pruning method      GridPruning ... 4 (adaptive)
Weight generation scheme         WeightScheme... Becke
Basis function cutoff            BFCut       ... 1.0000e-11
Integration weight cutoff        WCut        ... 1.0000e-14
Angular grids for H and He will be reduced by one unit
Partially contracted basis set               ... on
Rotationally invariant grid construction     ... off

Total number of grid points                  ...    18724
Total number of batches                      ...      307
Average number of points per batch           ...       60
Average number of grid points per atom       ...      585
UseSFitting                                  ... on

GRIDX 2
-------
General Integration Accuracy     IntAcc      ... 4.020
Radial Grid Type                 RadialGrid  ... OptM3 with GC (2021)
Angular Grid (max. ang.)         AngularGrid ... 2 (Lebedev-110)
Angular grid pruning method      GridPruning ... 4 (adaptive)
Weight generation scheme         WeightScheme... Becke
Basis function cutoff            BFCut       ... 1.0000e-11
Integration weight cutoff        WCut        ... 1.0000e-14
Angular grids for H and He will be reduced by one unit
Partially contracted basis set               ... on
Rotationally invariant grid construction     ... off

Total number of grid points                  ...    40145
Total number of batches                      ...      643
Average number of points per batch           ...       62
Average number of grid points per atom       ...     1255
UseSFitting                                  ... on

GRIDX 3
-------
General Integration Accuracy     IntAcc      ... 4.338
Radial Grid Type                 RadialGrid  ... OptM3 with GC (2021)
Angular Grid (max. ang.)         AngularGrid ... 3 (Lebedev-194)
Angular grid pruning method      GridPruning ... 4 (adaptive)
Weight generation scheme         WeightScheme... Becke
Basis function cutoff            BFCut       ... 1.0000e-11
Integration weight cutoff        WCut        ... 1.0000e-14
Angular grids for H and He will be reduced by one unit
Partially contracted basis set               ... on
Rotationally invariant grid construction     ... off

Total number of grid points                  ...    87627
Total number of batches                      ...     1385
Average number of points per batch           ...       63
Average number of grid points per atom       ...     2738
UseSFitting                                  ... on

Time for X-Grid setup             =    1.171 sec

--------------
SCF ITERATIONS
--------------
ITER       Energy         Delta-E        Max-DP      RMS-DP      [F,P]     Damp
               ***  Starting incremental Fock matrix formation  ***
  0   -725.9859685446   0.000000000000 0.09692381  0.00217175  0.2704634 0.7000
  1   -726.1955465974  -0.209578052736 0.05361030  0.00144236  0.1029692 0.7000
                               ***Turning on DIIS***
  2   -726.2756093005  -0.080062703122 0.06266322  0.00219402  0.0370074 0.0000
  3   -726.4065980455  -0.130988745015 0.03648290  0.00101710  0.0519137 0.0000
  4   -726.4320303492  -0.025432303726 0.01015551  0.00032907  0.0164352 0.0000
  5   -726.4343235069  -0.002293157624 0.00332632  0.00009378  0.0049082 0.0000
                      *** Initiating the SOSCF procedure ***
                           *** Shutting down DIIS ***
                      *** Re-Reading the Fockian *** 
                      *** Removing any level shift *** 
ITER      Energy       Delta-E        Grad      Rot      Max-DP    RMS-DP
  6   -726.43442502  -0.0001015129  0.000272  0.000272  0.001381  0.000042
               *** Restarting incremental Fock matrix formation ***
  7   -726.43437464   0.0000503764  0.000211  0.000773  0.001688  0.000028
  8   -726.43436816   0.0000064880  0.000388  0.000548  0.001101  0.000018
  9   -726.43437826  -0.0000101062  0.000060  0.000174  0.000252  0.000005
 10   -726.43437801   0.0000002500  0.000124  0.000116  0.000177  0.000003
 11   -726.43437834  -0.0000003314  0.000011  0.000044  0.000035  0.000001
 12   -726.43437835  -0.0000000064  0.000022  0.000031  0.000025  0.000001
                  ***Gradient check signals convergence***
              ***Rediagonalizing the Fockian in SOSCF/NRSCF***

               *****************************************************
               *                     SUCCESS                       *
               *           SCF CONVERGED AFTER  13 CYCLES          *
               *****************************************************

Old exchange energy                            =    -19.534122521 Eh
New exchange energy                            =    -19.534188241 Eh
Exchange energy change after final integration =     -0.000065720 Eh
Total energy after final integration           =   -726.434444075 Eh
Final COS-X integration done in                =    10.647 sec

----------------
TOTAL SCF ENERGY
----------------

Total Energy       :         -726.43444407 Eh          -19767.28617 eV

Components:
Nuclear Repulsion  :         1118.78318204 Eh           30443.63811 eV
Electronic Energy  :        -1845.21762611 Eh          -50210.92428 eV
One Electron Energy:        -3208.66201384 Eh          -87312.13226 eV
Two Electron Energy:         1363.44438772 Eh           37101.20798 eV
Max COSX asymmetry :            0.00000187 Eh               0.00005 eV

Virial components:
Potential Energy   :        -1448.56122847 Eh          -39417.35497 eV
Kinetic Energy     :          722.12678439 Eh           19650.06879 eV
Virial Ratio       :            2.00596524


DFT components:
N(Alpha)           :       58.999976472981 electrons
N(Beta)            :       58.999976472981 electrons
N(Total)           :      117.999952945961 electrons
E(X)               :      -77.581245659263 Eh       
E(C)               :       -4.704468339473 Eh       
E(XC)              :      -82.285713998736 Eh       
DFET-embed. en.    :        0.000000000000 Eh       

---------------
SCF CONVERGENCE
---------------

  Last Energy change         ...   -5.4885e-09  Tolerance :   1.0000e-08
  Last MAX-Density change    ...    3.5527e-15  Tolerance :   1.0000e-07
  Last RMS-Density change    ...    4.1156e-17  Tolerance :   5.0000e-09
  Last Orbital Gradient      ...    1.6392e-06  Tolerance :   1.0000e-05
  Last Orbital Rotation      ...    4.8022e-06  Tolerance :   1.0000e-05

             **** THE GBW FILE WAS UPDATED (Nfn_gas.gbw) ****
             **** DENSITY Nfn_gas.scfp WAS UPDATED ****
             **** ENERGY FILE WAS UPDATED (Nfn_gas.en.tmp) ****
             **** THE GBW FILE WAS UPDATED (Nfn_gas.gbw) ****
             **** DENSITY Nfn_gas.scfp WAS UPDATED ****
----------------
ORBITAL ENERGIES
----------------

  NO   OCC          E(Eh)            E(eV) 
   0   2.0000     -19.103348      -519.8285 
   1   2.0000     -19.097225      -519.6619 
   2   2.0000     -14.355392      -390.6301 
   3   2.0000     -14.351157      -390.5148 
   4   2.0000     -10.276252      -279.6310 
   5   2.0000     -10.270533      -279.4754 
   6   2.0000     -10.220490      -278.1137 
   7   2.0000     -10.215426      -277.9759 
   8   2.0000     -10.203566      -277.6531 
   9   2.0000     -10.194951      -277.4187 
  10   2.0000     -10.186953      -277.2011 
  11   2.0000     -10.186392      -277.1858 
  12   2.0000     -10.185159      -277.1523 
  13   2.0000     -10.184239      -277.1272 
  14   2.0000     -10.177552      -276.9453 
  15   2.0000     -10.171158      -276.7713 
  16   2.0000      -1.028478       -27.9863 
  17   2.0000      -1.013087       -27.5675 
  18   2.0000      -0.934805       -25.4373 
  19   2.0000      -0.921574       -25.0773 
  20   2.0000      -0.845588       -23.0096 
  21   2.0000      -0.761045       -20.7091 
  22   2.0000      -0.745153       -20.2766 
  23   2.0000      -0.740163       -20.1408 
  24   2.0000      -0.718000       -19.5378 
  25   2.0000      -0.703140       -19.1334 
  26   2.0000      -0.667785       -18.1714 
  27   2.0000      -0.618595       -16.8328 
  28   2.0000      -0.607275       -16.5248 
  29   2.0000      -0.557672       -15.1750 
  30   2.0000      -0.533618       -14.5205 
  31   2.0000      -0.511567       -13.9204 
  32   2.0000      -0.499624       -13.5955 
  33   2.0000      -0.489951       -13.3322 
  34   2.0000      -0.472412       -12.8550 
  35   2.0000      -0.460370       -12.5273 
  36   2.0000      -0.455992       -12.4082 
  37   2.0000      -0.449687       -12.2366 
  38   2.0000      -0.440514       -11.9870 
  39   2.0000      -0.429875       -11.6975 
  40   2.0000      -0.420050       -11.4301 
  41   2.0000      -0.408726       -11.1220 
  42   2.0000      -0.402350       -10.9485 
  43   2.0000      -0.399142       -10.8612 
  44   2.0000      -0.393552       -10.7091 
  45   2.0000      -0.388321       -10.5668 
  46   2.0000      -0.386330       -10.5126 
  47   2.0000      -0.369977       -10.0676 
  48   2.0000      -0.364656        -9.9228 
  49   2.0000      -0.358404        -9.7527 
  50   2.0000      -0.353726        -9.6254 
  51   2.0000      -0.345019        -9.3885 
  52   2.0000      -0.331877        -9.0308 
  53   2.0000      -0.266338        -7.2474 
  54   2.0000      -0.251350        -6.8396 
  55   2.0000      -0.249325        -6.7845 
  56   2.0000      -0.239478        -6.5165 
  57   2.0000      -0.231676        -6.3042 
  58   2.0000      -0.225569        -6.1380 
  59   0.0000      -0.007336        -0.1996 
  60   0.0000      -0.003183        -0.0866 
  61   0.0000       0.026561         0.7228 
  62   0.0000       0.034979         0.9518 
  63   0.0000       0.091751         2.4967 
  64   0.0000       0.102048         2.7769 
  65   0.0000       0.121645         3.3101 
  66   0.0000       0.130423         3.5490 
  67   0.0000       0.140475         3.8225 
  68   0.0000       0.146198         3.9783 
  69   0.0000       0.147611         4.0167 
  70   0.0000       0.153291         4.1713 
  71   0.0000       0.161445         4.3931 
  72   0.0000       0.165318         4.4985 
  73   0.0000       0.169501         4.6123 
  74   0.0000       0.177167         4.8210 
  75   0.0000       0.178175         4.8484 
  76   0.0000       0.181017         4.9257 
  77   0.0000       0.189847         5.1660 
  78   0.0000       0.200236         5.4487 
  79   0.0000       0.206152         5.6097 
  80   0.0000       0.212802         5.7906 
  81   0.0000       0.225480         6.1356 
  82   0.0000       0.227461         6.1895 
  83   0.0000       0.243540         6.6271 
  84   0.0000       0.270673         7.3654 
  85   0.0000       0.282280         7.6812 
  86   0.0000       0.289407         7.8752 
  87   0.0000       0.305126         8.3029 
  88   0.0000       0.330395         8.9905 
  89   0.0000       0.341923         9.3042 
  90   0.0000       0.360764         9.8169 
  91   0.0000       0.378523        10.3001 
  92   0.0000       0.405419        11.0320 
  93   0.0000       0.410691        11.1755 
  94   0.0000       0.467314        12.7163 
  95   0.0000       0.495697        13.4886 
  96   0.0000       0.508324        13.8322 
  97   0.0000       0.516918        14.0660 
  98   0.0000       0.523521        14.2457 
  99   0.0000       0.529026        14.3955 
 100   0.0000       0.539336        14.6761 
 101   0.0000       0.541694        14.7402 
 102   0.0000       0.555598        15.1186 
 103   0.0000       0.559195        15.2165 
 104   0.0000       0.566004        15.4018 
 105   0.0000       0.577009        15.7012 
 106   0.0000       0.584430        15.9031 
 107   0.0000       0.588623        16.0172 
 108   0.0000       0.592468        16.1219 
 109   0.0000       0.600405        16.3379 
 110   0.0000       0.616516        16.7763 
 111   0.0000       0.621105        16.9011 
 112   0.0000       0.624016        16.9804 
 113   0.0000       0.637495        17.3471 
 114   0.0000       0.640683        17.4339 
 115   0.0000       0.655117        17.8266 
 116   0.0000       0.659744        17.9525 
 117   0.0000       0.681596        18.5472 
 118   0.0000       0.692264        18.8375 
 119   0.0000       0.700756        19.0685 
 120   0.0000       0.722194        19.6519 
 121   0.0000       0.733237        19.9524 
 122   0.0000       0.754923        20.5425 
 123   0.0000       0.762892        20.7593 
 124   0.0000       0.787996        21.4425 
 125   0.0000       0.799862        21.7654 
 126   0.0000       0.816790        22.2260 
 127   0.0000       0.825735        22.4694 
 128   0.0000       0.833015        22.6675 
 129   0.0000       0.836250        22.7555 
 130   0.0000       0.838401        22.8140 
 131   0.0000       0.845711        23.0130 
 132   0.0000       0.855949        23.2916 
 133   0.0000       0.859028        23.3753 
 134   0.0000       0.872718        23.7479 
 135   0.0000       0.889169        24.1955 
 136   0.0000       0.896666        24.3995 
 137   0.0000       0.906149        24.6576 
 138   0.0000       0.907460        24.6933 
 139   0.0000       0.919027        25.0080 
 140   0.0000       0.931232        25.3401 
 141   0.0000       0.933910        25.4130 
 142   0.0000       0.940948        25.6045 
 143   0.0000       0.947666        25.7873 
 144   0.0000       0.954407        25.9707 
 145   0.0000       0.958581        26.0843 
 146   0.0000       0.969510        26.3817 
 147   0.0000       0.980365        26.6771 
 148   0.0000       0.997040        27.1308 
 149   0.0000       1.026920        27.9439 
 150   0.0000       1.036067        28.1928 
 151   0.0000       1.043321        28.3902 
 152   0.0000       1.059738        28.8369 
 153   0.0000       1.077975        29.3332 
 154   0.0000       1.095153        29.8006 
 155   0.0000       1.116315        30.3765 
 156   0.0000       1.124815        30.6078 
 157   0.0000       1.146981        31.2110 
 158   0.0000       1.161023        31.5931 
 159   0.0000       1.187035        32.3009 
 160   0.0000       1.206294        32.8249 
 161   0.0000       1.231949        33.5230 
 162   0.0000       1.241378        33.7796 
 163   0.0000       1.263169        34.3726 
 164   0.0000       1.306866        35.5616 
 165   0.0000       1.334830        36.3226 
 166   0.0000       1.340771        36.4842 
 167   0.0000       1.347964        36.6800 
 168   0.0000       1.387254        37.7491 
 169   0.0000       1.395264        37.9671 
 170   0.0000       1.427399        38.8415 
 171   0.0000       1.434596        39.0373 
 172   0.0000       1.442395        39.2496 
 173   0.0000       1.453373        39.5483 
 174   0.0000       1.460607        39.7451 
 175   0.0000       1.488823        40.5129 
 176   0.0000       1.492851        40.6226 
 177   0.0000       1.505285        40.9609 
 178   0.0000       1.516380        41.2628 
 179   0.0000       1.554902        42.3110 
 180   0.0000       1.571340        42.7583 
 181   0.0000       1.614603        43.9356 
 182   0.0000       1.648329        44.8533 
 183   0.0000       1.706811        46.4447 
 184   0.0000       1.725355        46.9493 
 185   0.0000       1.767532        48.0970 
 186   0.0000       1.785314        48.5809 
 187   0.0000       1.803645        49.0797 
 188   0.0000       1.814283        49.3692 
 189   0.0000       1.823765        49.6272 
 190   0.0000       1.839980        50.0684 
 191   0.0000       1.858415        50.5700 
 192   0.0000       1.869214        50.8639 
 193   0.0000       1.877695        51.0947 
 194   0.0000       1.882964        51.2381 
 195   0.0000       1.900707        51.7209 
 196   0.0000       1.918577        52.2071 
 197   0.0000       1.939386        52.7734 
 198   0.0000       1.945251        52.9330 
 199   0.0000       1.949753        53.0555 
 200   0.0000       1.970279        53.6140 
 201   0.0000       1.977785        53.8183 
 202   0.0000       1.986360        54.0516 
 203   0.0000       1.989233        54.1298 
 204   0.0000       2.005801        54.5806 
 205   0.0000       2.033908        55.3454 
 206   0.0000       2.039419        55.4954 
 207   0.0000       2.069993        56.3274 
 208   0.0000       2.074278        56.4440 
 209   0.0000       2.085974        56.7622 
 210   0.0000       2.096341        57.0443 
 211   0.0000       2.128338        57.9150 
 212   0.0000       2.133694        58.0608 
 213   0.0000       2.147384        58.4333 
 214   0.0000       2.160646        58.7942 
 215   0.0000       2.175504        59.1985 
 216   0.0000       2.203535        59.9612 
 217   0.0000       2.213413        60.2300 
 218   0.0000       2.231453        60.7209 
 219   0.0000       2.250380        61.2360 
 220   0.0000       2.275561        61.9212 
 221   0.0000       2.286171        62.2099 
 222   0.0000       2.293423        62.4072 
 223   0.0000       2.305284        62.7300 
 224   0.0000       2.327638        63.3382 
 225   0.0000       2.328935        63.3735 
 226   0.0000       2.361818        64.2683 
 227   0.0000       2.367684        64.4280 
 228   0.0000       2.421303        65.8870 
 229   0.0000       2.441240        66.4295 
 230   0.0000       2.460399        66.9509 
 231   0.0000       2.468998        67.1849 
 232   0.0000       2.498077        67.9761 
 233   0.0000       2.574470        70.0549 
 234   0.0000       2.586216        70.3745 
 235   0.0000       2.598698        70.7142 
 236   0.0000       2.615212        71.1635 
 237   0.0000       2.628930        71.5368 
 238   0.0000       2.636219        71.7352 
 239   0.0000       2.659193        72.3603 
 240   0.0000       2.684114        73.0385 
 241   0.0000       2.700439        73.4827 
 242   0.0000       2.725324        74.1598 
 243   0.0000       2.734933        74.4213 
 244   0.0000       2.742338        74.6228 
 245   0.0000       2.755293        74.9753 
 246   0.0000       2.819939        76.7344 
 247   0.0000       2.863563        77.9215 
 248   0.0000       2.942616        80.0726 
 249   0.0000       2.960660        80.5636 
 250   0.0000       3.036975        82.6403 
 251   0.0000       3.049386        82.9780 
 252   0.0000       3.121622        84.9437 
 253   0.0000       3.173422        86.3532 
 254   0.0000       3.203314        87.1666 
 255   0.0000       3.422501        93.1310 

                    ********************************
                    * MULLIKEN POPULATION ANALYSIS *
                    ********************************

-----------------------
MULLIKEN ATOMIC CHARGES
-----------------------
   0 C :   -0.545118
   1 H :    0.171096
   2 H :    0.181285
   3 H :    0.183451
   4 C :    0.533077
   5 N :   -0.432024
   6 C :    0.198045
   7 C :   -0.138597
   8 C :   -0.146489
   9 C :   -0.144341
  10 H :    0.133212
  11 C :   -0.146796
  12 H :    0.189696
  13 C :   -0.115854
  14 H :    0.131876
  15 H :    0.135803
  16 H :    0.130709
  17 C :   -0.242709
  18 H :    0.176056
  19 H :    0.170462
  20 C :    0.567999
  21 N :   -0.379501
  22 O :   -0.496177
  23 O :   -0.485787
  24 C :   -0.335310
  25 H :    0.205155
  26 H :    0.157056
  27 H :    0.157787
  28 C :   -0.318604
  29 H :    0.146069
  30 H :    0.163483
  31 H :    0.194987
Sum of atomic charges:    0.0000000

--------------------------------
MULLIKEN REDUCED ORBITAL CHARGES
--------------------------------
  0 C s       :     3.310704  s :     3.310704
      pz      :     1.061578  p :     3.202177
      px      :     1.060482
      py      :     1.080116
      dz2     :     0.001288  d :     0.032238
      dxz     :     0.009986
      dyz     :     0.009560
      dx2y2   :     0.002236
      dxy     :     0.009168
  1 H s       :     0.828904  s :     0.828904
  2 H s       :     0.818715  s :     0.818715
  3 H s       :     0.816549  s :     0.816549
  4 C s       :     2.981453  s :     2.981453
      pz      :     0.812217  p :     2.377493
      px      :     0.783929
      py      :     0.781347
      dz2     :     0.011984  d :     0.107977
      dxz     :     0.028018
      dyz     :     0.011453
      dx2y2   :     0.027638
      dxy     :     0.028884
  5 N s       :     3.546560  s :     3.546560
      pz      :     1.437067  p :     3.847623
      px      :     1.137770
      py      :     1.272785
      dz2     :     0.005036  d :     0.037841
      dxz     :     0.007937
      dyz     :     0.005939
      dx2y2   :     0.009093
      dxy     :     0.009837
  6 C s       :     3.094776  s :     3.094776
      pz      :     0.964294  p :     2.650793
      px      :     0.778545
      py      :     0.907954
      dz2     :     0.007298  d :     0.056387
      dxz     :     0.011678
      dyz     :     0.006534
      dx2y2   :     0.015281
      dxy     :     0.015596
  7 C s       :     3.190472  s :     3.190472
      pz      :     0.981008  p :     2.912622
      px      :     0.951025
      py      :     0.980589
      dz2     :     0.003386  d :     0.035503
      dxz     :     0.007596
      dyz     :     0.005621
      dx2y2   :     0.009739
      dxy     :     0.009161
  8 C s       :     3.200354  s :     3.200354
      pz      :     0.971985  p :     2.910994
      px      :     0.961717
      py      :     0.977291
      dz2     :     0.003825  d :     0.035141
      dxz     :     0.006758
      dyz     :     0.005420
      dx2y2   :     0.009733
      dxy     :     0.009406
  9 C s       :     3.196695  s :     3.196695
      pz      :     0.985567  p :     2.911478
      px      :     0.972383
      py      :     0.953528
      dz2     :     0.003702  d :     0.036168
      dxz     :     0.007250
      dyz     :     0.005298
      dx2y2   :     0.009197
      dxy     :     0.010721
 10 H s       :     0.866788  s :     0.866788
 11 C s       :     3.202950  s :     3.202950
      pz      :     0.982252  p :     2.907678
      px      :     0.932894
      py      :     0.992532
      dz2     :     0.003333  d :     0.036168
      dxz     :     0.006972
      dyz     :     0.005787
      dx2y2   :     0.010877
      dxy     :     0.009198
 12 H s       :     0.810304  s :     0.810304
 13 C s       :     3.185259  s :     3.185259
      pz      :     0.974976  p :     2.894516
      px      :     0.967757
      py      :     0.951784
      dz2     :     0.005904  d :     0.036079
      dxz     :     0.004586
      dyz     :     0.005216
      dx2y2   :     0.010170
      dxy     :     0.010203
 14 H s       :     0.868124  s :     0.868124
 15 H s       :     0.864197  s :     0.864197
 16 H s       :     0.869291  s :     0.869291
 17 C s       :     3.231126  s :     3.231126
      pz      :     1.005129  p :     2.958777
      px      :     0.934334
      py      :     1.019314
      dz2     :     0.005633  d :     0.052805
      dxz     :     0.014865
      dyz     :     0.012647
      dx2y2   :     0.005639
      dxy     :     0.014022
 18 H s       :     0.823944  s :     0.823944
 19 H s       :     0.829538  s :     0.829538
 20 C s       :     2.979927  s :     2.979927
      pz      :     0.775875  p :     2.344344
      px      :     0.762811
      py      :     0.805657
      dz2     :     0.023120  d :     0.107730
      dxz     :     0.031696
      dyz     :     0.015302
      dx2y2   :     0.018283
      dxy     :     0.019329
 21 N s       :     3.541375  s :     3.541375
      pz      :     1.306866  p :     3.800992
      px      :     1.088735
      py      :     1.405392
      dz2     :     0.006462  d :     0.037134
      dxz     :     0.009458
      dyz     :     0.005502
      dx2y2   :     0.008450
      dxy     :     0.007262
 22 O s       :     3.879501  s :     3.879501
      pz      :     1.410632  p :     4.590850
      px      :     1.725474
      py      :     1.454743
      dz2     :     0.008244  d :     0.025826
      dxz     :     0.005395
      dyz     :     0.006748
      dx2y2   :     0.002763
      dxy     :     0.002676
 23 O s       :     3.871204  s :     3.871204
      pz      :     1.596724  p :     4.588836
      px      :     1.354199
      py      :     1.637913
      dz2     :     0.002496  d :     0.025747
      dxz     :     0.007192
      dyz     :     0.000946
      dx2y2   :     0.007414
      dxy     :     0.007699
 24 C s       :     3.264338  s :     3.264338
      pz      :     0.964945  p :     3.022739
      px      :     1.056345
      py      :     1.001449
      dz2     :     0.014752  d :     0.048232
      dxz     :     0.005021
      dyz     :     0.009598
      dx2y2   :     0.013699
      dxy     :     0.005163
 25 H s       :     0.794845  s :     0.794845
 26 H s       :     0.842944  s :     0.842944
 27 H s       :     0.842213  s :     0.842213
 28 C s       :     3.254219  s :     3.254219
      pz      :     0.966014  p :     3.015936
      px      :     0.970357
      py      :     1.079565
      dz2     :     0.005137  d :     0.048449
      dxz     :     0.014219
      dyz     :     0.012988
      dx2y2   :     0.005953
      dxy     :     0.010151
 29 H s       :     0.853931  s :     0.853931
 30 H s       :     0.836517  s :     0.836517
 31 H s       :     0.805013  s :     0.805013


                     *******************************
                     * LOEWDIN POPULATION ANALYSIS *
                     *******************************

----------------------
LOEWDIN ATOMIC CHARGES
----------------------
   0 C :   -0.387790
   1 H :    0.146271
   2 H :    0.149982
   3 H :    0.151872
   4 C :    0.126576
   5 N :   -0.051088
   6 C :    0.013716
   7 C :   -0.136205
   8 C :   -0.135118
   9 C :   -0.128517
  10 H :    0.134755
  11 C :   -0.124375
  12 H :    0.160318
  13 C :   -0.128924
  14 H :    0.132700
  15 H :    0.134227
  16 H :    0.132589
  17 C :   -0.171653
  18 H :    0.149562
  19 H :    0.140402
  20 C :    0.111524
  21 N :   -0.085537
  22 O :   -0.297238
  23 O :   -0.290081
  24 C :   -0.281521
  25 H :    0.146445
  26 H :    0.133865
  27 H :    0.125885
  28 C :   -0.275093
  29 H :    0.123020
  30 H :    0.127324
  31 H :    0.152107

-------------------------------
LOEWDIN REDUCED ORBITAL CHARGES
-------------------------------
  0 C s       :     2.979634  s :     2.979634
      pz      :     1.111545  p :     3.344483
      px      :     1.107790
      py      :     1.125147
      dz2     :     0.002470  d :     0.063674
      dxz     :     0.020176
      dyz     :     0.018457
      dx2y2   :     0.004401
      dxy     :     0.018170
  1 H s       :     0.853729  s :     0.853729
  2 H s       :     0.850018  s :     0.850018
  3 H s       :     0.848128  s :     0.848128
  4 C s       :     2.848247  s :     2.848247
      pz      :     0.877288  p :     2.771620
      px      :     0.996761
      py      :     0.897571
      dz2     :     0.026768  d :     0.253556
      dxz     :     0.064689
      dyz     :     0.026579
      dx2y2   :     0.066421
      dxy     :     0.069098
  5 N s       :     3.079314  s :     3.079314
      pz      :     1.423382  p :     3.874455
      px      :     1.161440
      py      :     1.289633
      dz2     :     0.011601  d :     0.097319
      dxz     :     0.019440
      dyz     :     0.015649
      dx2y2   :     0.024000
      dxy     :     0.026629
  6 C s       :     2.854500  s :     2.854500
      pz      :     1.014786  p :     2.994023
      px      :     0.940097
      py      :     1.039140
      dz2     :     0.015918  d :     0.137761
      dxz     :     0.027338
      dyz     :     0.015991
      dx2y2   :     0.038822
      dxy     :     0.039692
  7 C s       :     2.921678  s :     2.921678
      pz      :     1.012973  p :     3.130511
      px      :     1.064503
      py      :     1.053035
      dz2     :     0.007517  d :     0.084017
      dxz     :     0.018232
      dyz     :     0.010010
      dx2y2   :     0.024784
      dxy     :     0.023474
  8 C s       :     2.926995  s :     2.926995
      pz      :     0.995662  p :     3.125220
      px      :     1.084655
      py      :     1.044903
      dz2     :     0.008194  d :     0.082903
      dxz     :     0.014155
      dyz     :     0.012328
      dx2y2   :     0.024389
      dxy     :     0.023836
  9 C s       :     2.917813  s :     2.917813
      pz      :     1.008932  p :     3.125510
      px      :     1.067829
      py      :     1.048748
      dz2     :     0.007889  d :     0.085194
      dxz     :     0.015407
      dyz     :     0.011957
      dx2y2   :     0.023445
      dxy     :     0.026497
 10 H s       :     0.865245  s :     0.865245
 11 C s       :     2.918930  s :     2.918930
      pz      :     1.002876  p :     3.120182
      px      :     1.068406
      py      :     1.048900
      dz2     :     0.007175  d :     0.085263
      dxz     :     0.017001
      dyz     :     0.010231
      dx2y2   :     0.027244
      dxy     :     0.023613
 12 H s       :     0.839682  s :     0.839682
 13 C s       :     2.918752  s :     2.918752
      pz      :     1.007593  p :     3.125352
[...]
     61      -0.000082  -0.000504   0.000045   0.000102   0.000066  -0.000516
     62      -0.000112  -0.000864   0.000072   0.000131   0.000117  -0.000733
     63      -0.000020   0.000132   0.000022   0.000034  -0.000005  -0.000268
     64       0.000023  -0.000256  -0.000014  -0.000029  -0.000026   0.000122
     65       0.000028  -0.000215  -0.000021  -0.000035  -0.000033   0.000181
     66       0.000051   0.000673  -0.000110  -0.000112  -0.000170   0.000444
     67       0.000063   0.000320  -0.000043  -0.000085  -0.000059   0.000392
     68       0.000074   0.000409  -0.000059  -0.000103  -0.000082   0.000528
     69       0.000078  -0.000009  -0.000006  -0.000068  -0.000095   0.000056
     70      -0.000031   0.000002   0.000024  -0.000011   0.000080   0.000007
     71      -0.000003   0.000008  -0.000017   0.000016  -0.000022  -0.000023
     72      -0.000037   0.001524  -0.000007   0.000026   0.000047   0.000026
     73       0.000010  -0.000005   0.000010  -0.000007  -0.000006  -0.000057
     74      -0.000046   0.001035   0.000019   0.000058   0.000012  -0.000205
     75      -0.000108  -0.000795  -0.000024   0.000124   0.000131   0.000108
     76      -0.000016  -0.000614  -0.000100   0.000012   0.000007   0.000576
     77       0.000037  -0.000073  -0.000000  -0.000046  -0.000035   0.000073
     78       0.000478  -0.016383   0.000162  -0.000371  -0.000563  -0.000674
     79      -0.000023   0.003228  -0.000036  -0.000003   0.000032   0.000260
     80       0.000126  -0.002730   0.000025  -0.000112  -0.000145  -0.000009
     81       0.000004  -0.000697  -0.000004  -0.000009   0.000028   0.000071
     82      -0.000097   0.001648   0.000043   0.000129  -0.000005  -0.000434
     83       0.000381  -0.003447  -0.000212  -0.000529  -0.000016   0.002106
     84      -0.000093   0.054496  -0.000022  -0.000029  -0.000002   0.000202
     85       0.000087  -0.056162   0.000001   0.000035   0.000033  -0.000017
     86       0.000080  -0.044076  -0.000002   0.000014   0.000014   0.000004
     87       0.000308  -0.150126   0.000154   0.000039  -0.000169  -0.001348
     88       0.000199  -0.097250   0.000088   0.000025  -0.000098  -0.000705
     89      -0.000237   0.123715  -0.000117  -0.000045   0.000101   0.000954
     90       0.000064  -0.048136   0.000071   0.000064  -0.000055  -0.000614
     91      -0.000108   0.091389  -0.000108  -0.000114   0.000031   0.000812
     92       0.000133  -0.099282   0.000116   0.000120  -0.000059  -0.000951
     93       0.000816  -0.464452  -0.000028   0.000179   0.000185   0.000072
     94      -0.001157   0.675746   0.000004  -0.000305  -0.000245   0.000404
     95      -0.000859   0.501428   0.000008  -0.000226  -0.000182   0.000224


-----------
IR SPECTRUM
-----------

 Mode   freq       eps      Int      T**2         TX        TY        TZ
       cm**-1   L/(mol*cm) km/mol    a.u.
----------------------------------------------------------------------------
  6:     38.61   0.000203    1.03  0.001642  (-0.012276  0.012430 -0.036563)
  7:     43.16   0.000059    0.30  0.000426  ( 0.018733 -0.008225 -0.002709)
  8:     60.41   0.000679    3.43  0.003506  (-0.009580 -0.042910  0.039661)
  9:     78.22   0.000747    3.78  0.002981  ( 0.049597  0.015129  0.017103)
 10:     90.56   0.000486    2.46  0.001675  ( 0.001560  0.040246  0.007290)
 11:     96.01   0.000633    3.20  0.002057  (-0.020781 -0.025892 -0.030902)
 12:    114.83   0.000435    2.20  0.001182  (-0.028914 -0.016381  0.008790)
 13:    119.57   0.000226    1.14  0.000589  ( 0.008747  0.021879  0.005814)
 14:    135.32   0.000101    0.51  0.000234  (-0.003311 -0.012320 -0.008417)
 15:    173.68   0.000172    0.87  0.000309  (-0.008717 -0.006249  0.013926)
 16:    198.42   0.000334    1.69  0.000526  (-0.014867 -0.010719  0.013769)
 17:    230.97   0.000289    1.46  0.000391  ( 0.018150 -0.003047 -0.007226)
 18:    250.38   0.001112    5.62  0.001386  ( 0.025658  0.015602 -0.021997)
 19:    280.63   0.001041    5.26  0.001158  (-0.008230 -0.026025  0.020325)
 20:    355.08   0.001165    5.89  0.001024  (-0.029729 -0.000709 -0.011805)
 21:    397.71   0.001839    9.29  0.001443  ( 0.005347 -0.034383  0.015245)
 22:    420.24   0.003522   17.80  0.002615  (-0.046375 -0.021493  0.001677)
 23:    424.91   0.000056    0.28  0.000041  (-0.003056 -0.005070  0.002438)
 24:    427.07   0.000111    0.56  0.000081  ( 0.008113  0.003235 -0.002187)
 25:    440.78   0.000679    3.43  0.000481  (-0.007466 -0.018642 -0.008821)
 26:    492.08   0.001400    7.07  0.000888  (-0.015313 -0.009580  0.023697)
 27:    554.67   0.003736   18.88  0.002102  (-0.000641  0.030239 -0.034456)
 28:    590.16   0.003903   19.72  0.002064  (-0.034746 -0.012147  0.026626)
 29:    606.60   0.001408    7.11  0.000724  ( 0.014833  0.004593  0.021980)
 30:    634.82   0.000311    1.57  0.000153  ( 0.005702 -0.007919  0.007597)
 31:    637.91   0.002704   13.66  0.001323  ( 0.034004 -0.012754 -0.001922)
 32:    679.30   0.000374    1.89  0.000172  (-0.010687 -0.007383  0.001704)
 33:    719.62   0.005534   27.97  0.002400  ( 0.014936  0.023160 -0.040500)
 34:    744.59   0.001119    5.65  0.000469  (-0.003326 -0.010921  0.018397)
 35:    791.36   0.002956   14.94  0.001166  ( 0.003464 -0.010596  0.032273)
 36:    838.78   0.000742    3.75  0.000276  (-0.002896 -0.013673 -0.008991)
 37:    868.76   0.000071    0.36  0.000026  (-0.001469 -0.003816  0.002990)
 38:    922.80   0.000598    3.02  0.000202  ( 0.006339  0.002169  0.012538)
 39:    944.79   0.000331    1.67  0.000109  ( 0.002185  0.000496 -0.010211)
 40:    979.63   0.000855    4.32  0.000272  (-0.014376 -0.006016 -0.005419)
 41:    983.90   0.000060    0.30  0.000019  (-0.001596  0.000224 -0.004045)
 42:   1008.20   0.004609   23.29  0.001427  ( 0.027945 -0.022941  0.010924)
 43:   1014.26   0.000362    1.83  0.000112  (-0.005338 -0.002818  0.008665)
 44:   1021.10   0.000089    0.45  0.000027  ( 0.005032 -0.000966 -0.000892)
 45:   1044.78   0.001341    6.78  0.000401  ( 0.003780  0.011608 -0.015862)
 46:   1064.16   0.003136   15.85  0.000920  ( 0.029456  0.004507 -0.005624)
 47:   1068.22   0.001522    7.69  0.000445  (-0.009381  0.012599  0.014071)
 48:   1095.37   0.002769   13.99  0.000789  (-0.005882  0.019422  0.019419)
 49:   1107.41   0.001421    7.18  0.000400  ( 0.015549 -0.004839 -0.011624)
 50:   1133.37   0.000525    2.65  0.000145  (-0.006173 -0.010289  0.000781)
 51:   1141.58   0.001720    8.69  0.000470  ( 0.020945  0.002620 -0.004951)
 52:   1176.14   0.000242    1.22  0.000064  ( 0.005463 -0.005786  0.000983)
 53:   1185.35   0.027921  141.10  0.007351  (-0.085323 -0.008332 -0.001111)
 54:   1191.99   0.000206    1.04  0.000054  (-0.007340  0.000072  0.000048)
 55:   1207.23   0.000771    3.90  0.000199  ( 0.014055 -0.000909  0.000947)
 56:   1262.00   0.005936   30.00  0.001468  (-0.029812  0.024044  0.000928)
 57:   1301.32   0.006363   32.16  0.001526  (-0.029814 -0.018818 -0.016823)
 58:   1331.15   0.010655   53.84  0.002498  (-0.007624  0.041462 -0.026842)
 59:   1352.96   0.010274   51.92  0.002370  ( 0.013657  0.040907 -0.022577)
 60:   1365.31   0.001376    6.96  0.000315  (-0.015640  0.001097  0.008293)
 61:   1378.88   0.004519   22.84  0.001023  (-0.028321 -0.008186  0.012393)
 62:   1413.57   0.005130   25.93  0.001133  ( 0.023783 -0.022810  0.006829)
 63:   1436.93   0.031591  159.65  0.006861  (-0.016948  0.070181 -0.040598)
 64:   1449.90   0.011446   57.84  0.002463  ( 0.048173 -0.010879 -0.004947)
 65:   1458.76   0.003471   17.54  0.000743  ( 0.025267  0.005918  0.008317)
 66:   1493.60   0.010918   55.18  0.002281  ( 0.041166  0.004252  0.023843)
 67:   1495.94   0.001068    5.40  0.000223  (-0.008479  0.012280 -0.000311)
 68:   1499.76   0.002708   13.68  0.000563  ( 0.007832  0.020907 -0.008063)
 69:   1502.71   0.002102   10.62  0.000437  ( 0.011502  0.013530 -0.011006)
 70:   1510.80   0.002814   14.22  0.000581  ( 0.001408  0.004630  0.023620)
 71:   1521.86   0.001293    6.54  0.000265  ( 0.002799  0.015986  0.001343)
 72:   1536.40   0.000980    4.95  0.000199  ( 0.001713  0.001072  0.013964)
 73:   1544.65   0.000442    2.23  0.000089  (-0.002552  0.007116 -0.005666)
 74:   1547.78   0.016730   84.54  0.003373  ( 0.055199 -0.018030 -0.001000)
 75:   1560.75   0.009526   48.14  0.001905  (-0.042885  0.007310  0.003462)
 76:   1643.32   0.001231    6.22  0.000234  (-0.005470  0.012743  0.006442)
 77:   1660.76   0.008482   42.86  0.001594  ( 0.038100 -0.011919  0.000370)
 78:   1750.34   0.012337   62.35  0.002200  (-0.030645  0.013023 -0.033029)
 79:   1755.52   0.110520  558.52  0.019646  (-0.119797  0.060772  0.040022)
 80:   3032.98   0.010174   51.42  0.001047  ( 0.019043  0.004786  0.025715)
 81:   3040.32   0.012209   61.70  0.001253  (-0.030191  0.002476  0.018316)
 82:   3070.32   0.000879    4.44  0.000089  (-0.008638 -0.002683  0.002739)
 83:   3089.22   0.007232   36.55  0.000731  (-0.009617 -0.018530  0.017166)
 84:   3102.75   0.002776   14.03  0.000279  ( 0.005638  0.005610 -0.014694)
 85:   3119.45   0.004625   23.37  0.000463  (-0.019152  0.005719 -0.007948)
 86:   3133.12   0.001150    5.81  0.000115  (-0.003928 -0.004914 -0.008659)
 87:   3152.93   0.001684    8.51  0.000167  (-0.010632  0.005130  0.005222)
 88:   3159.40   0.001384    7.00  0.000137  (-0.002637  0.005897  0.009746)
 89:   3174.13   0.002379   12.02  0.000234  ( 0.008904 -0.011064  0.005677)
 90:   3184.13   0.000053    0.27  0.000005  ( 0.000239 -0.002190 -0.000567)
 91:   3188.96   0.000342    1.73  0.000033  (-0.000181 -0.004694 -0.003370)
 92:   3193.25   0.002539   12.83  0.000248  ( 0.012839  0.006775  0.006114)
 93:   3202.87   0.005602   28.31  0.000546  (-0.007645  0.019948  0.009461)
 94:   3211.90   0.002233   11.29  0.000217  (-0.014113 -0.001023 -0.004093)
 95:   3220.48   0.005039   25.47  0.000488  (-0.022051  0.001355 -0.000438)

* The epsilon (eps) is given for a Dirac delta lineshape.
** The dipole moment derivative (T) already includes vibrational overlap.

The first frequency considered to be a vibration is 6
The total number of vibrations considered is 90


--------------------------
THERMOCHEMISTRY AT 298.15K
--------------------------

Temperature         ... 298.15 K
Pressure            ... 1.00 atm
Total Mass          ... 220.27 AMU

Throughout the following assumptions are being made:
  (1) The electronic state is orbitally nondegenerate
  (2) There are no thermally accessible electronically excited states
  (3) Hindered rotations indicated by low frequency modes are not
      treated as such but are treated as vibrations and this may
      cause some error
  (4) All equations used are the standard statistical mechanics
      equations for an ideal gas
  (5) All vibrations are strictly harmonic

freq.      38.61  E(vib)   ...       0.54 
freq.      43.16  E(vib)   ...       0.53 
freq.      60.41  E(vib)   ...       0.51 
freq.      78.22  E(vib)   ...       0.49 
freq.      90.56  E(vib)   ...       0.47 
freq.      96.01  E(vib)   ...       0.47 
freq.     114.83  E(vib)   ...       0.44 
freq.     119.57  E(vib)   ...       0.44 
freq.     135.32  E(vib)   ...       0.42 
freq.     173.68  E(vib)   ...       0.38 
freq.     198.42  E(vib)   ...       0.35 
freq.     230.97  E(vib)   ...       0.32 
freq.     250.38  E(vib)   ...       0.30 
freq.     280.63  E(vib)   ...       0.28 
freq.     355.08  E(vib)   ...       0.22 
freq.     397.71  E(vib)   ...       0.20 
freq.     420.24  E(vib)   ...       0.18 
freq.     424.91  E(vib)   ...       0.18 
freq.     427.07  E(vib)   ...       0.18 
freq.     440.78  E(vib)   ...       0.17 
freq.     492.08  E(vib)   ...       0.14 
freq.     554.67  E(vib)   ...       0.12 
freq.     590.16  E(vib)   ...       0.10 
freq.     606.60  E(vib)   ...       0.10 
freq.     634.82  E(vib)   ...       0.09 
freq.     637.91  E(vib)   ...       0.09 
freq.     679.30  E(vib)   ...       0.08 
freq.     719.62  E(vib)   ...       0.07 
freq.     744.59  E(vib)   ...       0.06 
freq.     791.36  E(vib)   ...       0.05 
freq.     838.78  E(vib)   ...       0.04 
freq.     868.76  E(vib)   ...       0.04 
freq.     922.80  E(vib)   ...       0.03 
freq.     944.79  E(vib)   ...       0.03 
freq.     979.63  E(vib)   ...       0.03 
freq.     983.90  E(vib)   ...       0.02 
freq.    1008.20  E(vib)   ...       0.02 
freq.    1014.26  E(vib)   ...       0.02 
freq.    1021.10  E(vib)   ...       0.02 
freq.    1044.78  E(vib)   ...       0.02 
freq.    1064.16  E(vib)   ...       0.02 
freq.    1068.22  E(vib)   ...       0.02 
freq.    1095.37  E(vib)   ...       0.02 
freq.    1107.41  E(vib)   ...       0.02 
freq.    1133.37  E(vib)   ...       0.01 
freq.    1141.58  E(vib)   ...       0.01 
freq.    1176.14  E(vib)   ...       0.01 
freq.    1185.35  E(vib)   ...       0.01 
freq.    1191.99  E(vib)   ...       0.01 
freq.    1207.23  E(vib)   ...       0.01 
freq.    1262.00  E(vib)   ...       0.01 
freq.    1301.32  E(vib)   ...       0.01 
freq.    1331.15  E(vib)   ...       0.01 
freq.    1352.96  E(vib)   ...       0.01 
freq.    1365.31  E(vib)   ...       0.01 
freq.    1378.88  E(vib)   ...       0.01 
freq.    1413.57  E(vib)   ...       0.00 
freq.    1436.93  E(vib)   ...       0.00 
freq.    1449.90  E(vib)   ...       0.00 
freq.    1458.76  E(vib)   ...       0.00 
freq.    1493.60  E(vib)   ...       0.00 
freq.    1495.94  E(vib)   ...       0.00 
freq.    1499.76  E(vib)   ...       0.00 
freq.    1502.71  E(vib)   ...       0.00 
freq.    1510.80  E(vib)   ...       0.00 
freq.    1521.86  E(vib)   ...       0.00 
freq.    1536.40  E(vib)   ...       0.00 
freq.    1544.65  E(vib)   ...       0.00 
freq.    1547.78  E(vib)   ...       0.00 
freq.    1560.75  E(vib)   ...       0.00 
freq.    1643.32  E(vib)   ...       0.00 
freq.    1660.76  E(vib)   ...       0.00 
freq.    1750.34  E(vib)   ...       0.00 
freq.    1755.52  E(vib)   ...       0.00 
freq.    3032.98  E(vib)   ...       0.00 
freq.    3040.32  E(vib)   ...       0.00 
freq.    3070.32  E(vib)   ...       0.00 
freq.    3089.22  E(vib)   ...       0.00 
freq.    3102.75  E(vib)   ...       0.00 
freq.    3119.45  E(vib)   ...       0.00 
freq.    3133.12  E(vib)   ...       0.00 
freq.    3152.93  E(vib)   ...       0.00 
freq.    3159.40  E(vib)   ...       0.00 
freq.    3174.13  E(vib)   ...       0.00 
freq.    3184.13  E(vib)   ...       0.00 
freq.    3188.96  E(vib)   ...       0.00 
freq.    3193.25  E(vib)   ...       0.00 
freq.    3202.87  E(vib)   ...       0.00 
freq.    3211.90  E(vib)   ...       0.00 
freq.    3220.48  E(vib)   ...       0.00 

------------
INNER ENERGY
------------

The inner energy is: U= E(el) + E(ZPE) + E(vib) + E(rot) + E(trans)
    E(el)   - is the total energy from the electronic structure calculation
              = E(kin-el) + E(nuc-el) + E(el-el) + E(nuc-nuc)
    E(ZPE)  - the the zero temperature vibrational energy from the frequency calculation
    E(vib)  - the the finite temperature correction to E(ZPE) due to population
              of excited vibrational states
    E(rot)  - is the rotational thermal energy
    E(trans)- is the translational thermal energy

Summary of contributions to the inner energy U:
Electronic energy                ...   -726.49577234 Eh
Zero point energy                ...      0.26854281 Eh     168.51 kcal/mol
Thermal vibrational correction   ...      0.01349839 Eh       8.47 kcal/mol
Thermal rotational correction    ...      0.00141627 Eh       0.89 kcal/mol
Thermal translational correction ...      0.00141627 Eh       0.89 kcal/mol
-----------------------------------------------------------------------
Total thermal energy                   -726.21089859 Eh


Summary of corrections to the electronic energy:
(perhaps to be used in another calculation)
Total thermal correction                  0.01633093 Eh      10.25 kcal/mol
Non-thermal (ZPE) correction              0.26854281 Eh     168.51 kcal/mol
-----------------------------------------------------------------------
Total correction                          0.28487375 Eh     178.76 kcal/mol


--------
ENTHALPY
--------

The enthalpy is H = U + kB*T
                kB is Boltzmann's constant
Total free energy                 ...   -726.21089859 Eh 
Thermal Enthalpy correction       ...      0.00094421 Eh       0.59 kcal/mol
-----------------------------------------------------------------------
Total Enthalpy                    ...   -726.20995438 Eh


Note: Only C1 symmetry has been detected, increase convergence thresholds 
      if your molecule has a higher symmetry. Symmetry factor of 1.0 is   
      used for the rotational entropy correction. 
 

Note: Rotational entropy computed according to Herzberg 
Infrared and Raman Spectra, Chapter V,1, Van Nostrand Reinhold, 1945 
Point Group:  C1, Symmetry Number:   1  
Rotational constants in cm-1:     0.034488     0.010803     0.009318 

Vibrational entropy computed according to the QRRHO of S. Grimme
Chem.Eur.J. 2012 18 9955


-------
ENTROPY
-------

The entropy contributions are T*S = T*(S(el)+S(vib)+S(rot)+S(trans))
     S(el)   - electronic entropy
     S(vib)  - vibrational entropy
     S(rot)  - rotational entropy
     S(trans)- translational entropy
The entropies will be listed as multiplied by the temperature to get
units of energy

Electronic entropy                ...      0.00000000 Eh      0.00 kcal/mol
Vibrational entropy               ...      0.02415876 Eh     15.16 kcal/mol
Rotational entropy                ...      0.01544541 Eh      9.69 kcal/mol
Translational entropy             ...      0.01998966 Eh     12.54 kcal/mol
-----------------------------------------------------------------------
Final entropy term                ...      0.05959383 Eh     37.40 kcal/mol

In case the symmetry of your molecule has not been determined correctly
or in case you have a reason to use a different symmetry number we print 
out the resulting rotational entropy values for sn=1,12 :
 --------------------------------------------------------
|  sn= 1 | S(rot)=       0.01544541 Eh      9.69 kcal/mol|
|  sn= 2 | S(rot)=       0.01479095 Eh      9.28 kcal/mol|
|  sn= 3 | S(rot)=       0.01440812 Eh      9.04 kcal/mol|
|  sn= 4 | S(rot)=       0.01413650 Eh      8.87 kcal/mol|
|  sn= 5 | S(rot)=       0.01392581 Eh      8.74 kcal/mol|
|  sn= 6 | S(rot)=       0.01375367 Eh      8.63 kcal/mol|
|  sn= 7 | S(rot)=       0.01360812 Eh      8.54 kcal/mol|
|  sn= 8 | S(rot)=       0.01348204 Eh      8.46 kcal/mol|
|  sn= 9 | S(rot)=       0.01337083 Eh      8.39 kcal/mol|
|  sn=10 | S(rot)=       0.01327135 Eh      8.33 kcal/mol|
|  sn=11 | S(rot)=       0.01318136 Eh      8.27 kcal/mol|
|  sn=12 | S(rot)=       0.01309921 Eh      8.22 kcal/mol|
 --------------------------------------------------------


-------------------
GIBBS FREE ENERGY
-------------------

The Gibbs free energy is G = H - T*S

Total enthalpy                    ...   -726.20995438 Eh 
Total entropy correction          ...     -0.05959383 Eh    -37.40 kcal/mol
-----------------------------------------------------------------------
Final Gibbs free energy         ...   -726.26954821 Eh

For completeness - the Gibbs free energy minus the electronic energy
G-E(el)                           ...      0.22622412 Eh    141.96 kcal/mol


Timings for individual modules:

Sum of individual times         ...     1870.094 sec (=  31.168 min)
GTO integral calculation        ...       25.181 sec (=   0.420 min)   1.3 %
SCF iterations                  ...      974.432 sec (=  16.241 min)  52.1 %
SCF Gradient evaluation         ...      308.477 sec (=   5.141 min)  16.5 %
Geometry relaxation             ...        1.782 sec (=   0.030 min)   0.1 %
Analytical frequency calculation...      560.223 sec (=   9.337 min)  30.0 %
                             ****ORCA TERMINATED NORMALLY****
TOTAL RUN TIME: 0 days 0 hours 31 minutes 18 seconds 166 msec
