
                                 *****************
                                 * O   R   C   A *
                                 *****************

                                            #,                                       
                                            ###                                      
                                            ####                                     
                                            #####                                    
                                            ######                                   
                                           ########,                                 
                                     ,,################,,,,,                         
                               ,,#################################,,                 
                          ,,##########################################,,             
                       ,#########################################, ''#####,          
                    ,#############################################,,   '####,        
                  ,##################################################,,,,####,       
                ,###########''''           ''''###############################       
              ,#####''   ,,,,##########,,,,          '''####'''          '####       
            ,##' ,,,,###########################,,,                        '##       
           ' ,,###''''                  '''############,,,                           
         ,,##''                                '''############,,,,        ,,,,,,###''
      ,#''                                            '''#######################'''  
     '                                                          ''''####''''         
             ,#######,   #######,   ,#######,      ##                                
            ,#'     '#,  ##    ##  ,#'     '#,    #''#        ######   ,####,        
            ##       ##  ##   ,#'  ##            #'  '#       #        #'  '#        
            ##       ##  #######   ##           ,######,      #####,   #    #        
            '#,     ,#'  ##    ##  '#,     ,#' ,#      #,         ##   #,  ,#        
             '#######'   ##     ##  '#######'  #'      '#     #####' # '####'        



                  #######################################################
                  #                        -***-                        #
                  #          Department of theory and spectroscopy      #
                  #    Directorship and core code : Frank Neese         #
                  #        Max Planck Institute fuer Kohlenforschung    #
                  #                Kaiser Wilhelm Platz 1               #
                  #                 D-45470 Muelheim/Ruhr               #
                  #                      Germany                        #
                  #                                                     #
                  #                  All rights reserved                #
                  #                        -***-                        #
                  #######################################################


                         Program Version 5.0.4 -  RELEASE  -


 With contributions from (in alphabetic order):
   Daniel Aravena         : Magnetic Suceptibility
   Michael Atanasov       : Ab Initio Ligand Field Theory (pilot matlab implementation)
   Alexander A. Auer      : GIAO ZORA, VPT2 properties, NMR spectrum
   Ute Becker             : Parallelization
   Giovanni Bistoni       : ED, misc. LED, open-shell LED, HFLD
   Martin Brehm           : Molecular dynamics
   Dmytro Bykov           : SCF Hessian
   Vijay G. Chilkuri      : MRCI spin determinant printing, contributions to CSF-ICE
   Dipayan Datta          : RHF DLPNO-CCSD density
   Achintya Kumar Dutta   : EOM-CC, STEOM-CC
   Dmitry Ganyushin       : Spin-Orbit,Spin-Spin,Magnetic field MRCI
   Miquel Garcia          : C-PCM and meta-GGA Hessian, CC/C-PCM, Gaussian charge scheme
   Yang Guo               : DLPNO-NEVPT2, F12-NEVPT2, CIM, IAO-localization
   Andreas Hansen         : Spin unrestricted coupled pair/coupled cluster methods
   Benjamin Helmich-Paris : MC-RPA, TRAH-SCF, COSX integrals
   Lee Huntington         : MR-EOM, pCC
   Robert Izsak           : Overlap fitted RIJCOSX, COSX-SCS-MP3, EOM
   Marcus Kettner         : VPT2
   Christian Kollmar      : KDIIS, OOCD, Brueckner-CCSD(T), CCSD density, CASPT2, CASPT2-K
   Simone Kossmann        : Meta GGA functionals, TD-DFT gradient, OOMP2, MP2 Hessian
   Martin Krupicka        : Initial AUTO-CI
   Lucas Lang             : DCDCAS
   Marvin Lechner         : AUTO-CI (C++ implementation), FIC-MRCC
   Dagmar Lenk            : GEPOL surface, SMD
   Dimitrios Liakos       : Extrapolation schemes; Compound Job, initial MDCI parallelization
   Dimitrios Manganas     : Further ROCIS development; embedding schemes
   Dimitrios Pantazis     : SARC Basis sets
   Anastasios Papadopoulos: AUTO-CI, single reference methods and gradients
   Taras Petrenko         : DFT Hessian,TD-DFT gradient, ASA, ECA, R-Raman, ABS, FL, XAS/XES, NRVS
   Peter Pinski           : DLPNO-MP2, DLPNO-MP2 Gradient
   Christoph Reimann      : Effective Core Potentials
   Marius Retegan         : Local ZFS, SOC
   Christoph Riplinger    : Optimizer, TS searches, QM/MM, DLPNO-CCSD(T), (RO)-DLPNO pert. Triples
   Tobias Risthaus        : Range-separated hybrids, TD-DFT gradient, RPA, STAB
   Michael Roemelt        : Original ROCIS implementation
   Masaaki Saitow         : Open-shell DLPNO-CCSD energy and density
   Barbara Sandhoefer     : DKH picture change effects
   Avijit Sen             : IP-ROCIS
   Kantharuban Sivalingam : CASSCF convergence, NEVPT2, FIC-MRCI
   Bernardo de Souza      : ESD, SOC TD-DFT
   Georgi Stoychev        : AutoAux, RI-MP2 NMR, DLPNO-MP2 response
   Willem Van den Heuvel  : Paramagnetic NMR
   Boris Wezisla          : Elementary symmetry handling
   Frank Wennmohs         : Technical directorship


 We gratefully acknowledge several colleagues who have allowed us to
 interface, adapt or use parts of their codes:
   Stefan Grimme, W. Hujo, H. Kruse, P. Pracht,  : VdW corrections, initial TS optimization,
                  C. Bannwarth, S. Ehlert          DFT functionals, gCP, sTDA/sTD-DF
   Ed Valeev, F. Pavosevic, A. Kumar             : LibInt (2-el integral package), F12 methods
   Garnet Chan, S. Sharma, J. Yang, R. Olivares  : DMRG
   Ulf Ekstrom                                   : XCFun DFT Library
   Mihaly Kallay                                 : mrcc  (arbitrary order and MRCC methods)
   Jiri Pittner, Ondrej Demel                    : Mk-CCSD
   Frank Weinhold                                : gennbo (NPA and NBO analysis)
   Christopher J. Cramer and Donald G. Truhlar   : smd solvation model
   Lars Goerigk                                  : TD-DFT with DH, B97 family of functionals
   V. Asgeirsson, H. Jonsson                     : NEB implementation
   FAccTs GmbH                                   : IRC, NEB, NEB-TS, DLPNO-Multilevel, CI-OPT
                                                   MM, QMMM, 2- and 3-layer-ONIOM, Crystal-QMMM,
                                                   LR-CPCM, SF, NACMEs, symmetry and pop. for TD-DFT,
                                                   nearIR, NL-DFT gradient (VV10), updates on ESD,
                                                   ML-optimized integration grids
   S Lehtola, MJT Oliveira, MAL Marques          : LibXC Library
   Liviu Ungur et al                             : ANISO software


 Your calculation uses the libint2 library for the computation of 2-el integrals
 For citations please refer to: http://libint.valeyev.net

 Your ORCA version has been built with support for libXC version: 5.1.0
 For citations please refer to: https://tddft.org/programs/libxc/

 This ORCA versions uses:
   CBLAS   interface :  Fast vector & matrix operations
   LAPACKE interface :  Fast linear algebra routines
   SCALAPACK package :  Parallel linear algebra routines
   Shared memory     :  Shared parallel matrices
   BLAS/LAPACK       :  OpenBLAS 0.3.15  USE64BITINT DYNAMIC_ARCH NO_AFFINITY SkylakeX SINGLE_THREADED
        Core in use  :  SkylakeX
   Copyright (c) 2011-2014, The OpenBLAS Project




***************************************
The coordinates will be read from file: /users/fjb15167/WWenergy/structures/Nn.xyz
***************************************


Your calculation utilizes the atom-pairwise dispersion correction
based on tight binding partial charges (D4)
Cite in your paper:
E.Caldeweyher, C.Bannwarth, S.Grimme, J.Chem.Phys., (2017), 147, 034112.
E.Caldeweyher, S.Ehlert, A.Hansen, H.Neugebauer, S.Grimme, J.Chem.Phys., (2018), in progress.
   

================================================================================

----- Orbital basis set information -----
Your calculation utilizes the basis: 6-31G(d)
   H-He, Li-Ne : W. J. Hehre, R. Ditchfield and J.A. Pople, J. Chem. Phys. 56, 2257 (1972).
                 Note: He and Ne are unpublished basis sets taken from the Gaussian program.
                 Note: Li and B from J. D. Dill and J. A. Pople, J. Chem. Phys. 62, 2921 (1975).
   Na - Ar     : M. M. Francl, W. J. Pietro, W. J. Hehre, J. S. Binkley, M. S. Gordon, 
                 D. J. DeFrees and J. A. Pople, J. Chem. Phys. 77, 3654 (1982).
   K - Zn      : V. A. Rassolov, J. A. Pople, M. A. Ratner, and T. L. Windus, J. Chem. Phys. 109, 1223 (1998).

----- AuxJ basis set information -----
Your calculation utilizes the AutoAux generation procedure.
  G. L. Stoychev, A. A. Auer, F. Neese, J. Chem. Theory Comput. 13, 554 (2017)

----- AuxC basis set information -----
Your calculation utilizes the AutoAux generation procedure.
  G. L. Stoychev, A. A. Auer, F. Neese, J. Chem. Theory Comput. 13, 554 (2017)

----- AuxJK basis set information -----
Your calculation utilizes the AutoAux generation procedure.
  G. L. Stoychev, A. A. Auer, F. Neese, J. Chem. Theory Comput. 13, 554 (2017)

================================================================================
                                        WARNINGS
                       Please study these warnings very carefully!
================================================================================


WARNING: Geometry Optimization
  ===> : Switching off AutoStart
         For restart on a previous wavefunction, please use MOREAD

INFO   : the flag for use of the SHARK integral package has been found!

================================================================================
                                       INPUT FILE
================================================================================
NAME = Nn_gas.inp
|  1> ! OPT FREQ B3LYP 6-31G(d) D4 AUTOAUX
|  2> 
|  3> %PAL NPROCS 4 END
|  4> 
|  5> %maxcore 3375
|  6> 
|  7> *xyzfile 0 1 /users/fjb15167/WWenergy/structures/Nn.xyz
|  8> 
|  9>                          ****END OF INPUT****
================================================================================

                       *****************************
                       * Geometry Optimization Run *
                       *****************************

Geometry optimization settings:
Update method            Update   .... BFGS
Choice of coordinates    CoordSys .... Z-matrix Internals
Initial Hessian          InHess   .... Almoef's Model

Convergence Tolerances:
Energy Change            TolE     ....  5.0000e-06 Eh
Max. Gradient            TolMAXG  ....  3.0000e-04 Eh/bohr
RMS Gradient             TolRMSG  ....  1.0000e-04 Eh/bohr
Max. Displacement        TolMAXD  ....  4.0000e-03 bohr
RMS Displacement         TolRMSD  ....  2.0000e-03 bohr
Strict Convergence                ....  False
------------------------------------------------------------------------------
                        ORCA OPTIMIZATION COORDINATE SETUP
------------------------------------------------------------------------------

The optimization will be done in new redundant internal coordinates
Making redundant internal coordinates   ...  (new redundants) done
Evaluating the initial hessian          ...  (Almloef) done
Evaluating the coordinates              ...  done
Calculating the B-matrix                .... done
Calculating the G-matrix                .... done
Diagonalizing the G-matrix              .... done
Small eigenvalue found = 7.663e-03
Small eigenvalue found = 1.051e-02
Small eigenvalue found = 1.356e-02
Small eigenvalue found = 2.212e-02
The first mode is                       ....   49
The number of degrees of freedom        ....   81

    -----------------------------------------------------------------
                    Redundant Internal Coordinates


    -----------------------------------------------------------------
         Definition                    Initial Value    Approx d2E/dq
    -----------------------------------------------------------------
      1. B(O   4,C   0)                  1.2123         1.074944   
      2. B(C   5,H   3)                  1.0923         0.357111   
      3. B(C   5,C   0)                  1.5307         0.372668   
      4. B(C   5,H   1)                  1.0944         0.354303   
      5. B(C   5,H   2)                  1.0898         0.360410   
      6. B(N   6,C   0)                  1.3883         0.563001   
      7. B(C   7,N   6)                  1.4478         0.452500   
      8. B(H   8,C   7)                  1.0932         0.355951   
      9. B(H   9,C   7)                  1.1002         0.346830   
     10. B(C  10,N   6)                  1.4422         0.461939   
     11. B(H  11,C  10)                  1.0931         0.356042   
     12. B(H  12,C  10)                  1.0936         0.355369   
     13. B(C  13,C  10)                  1.5297         0.373954   
     14. B(O  14,C  13)                  1.2300         1.007163   
     15. B(N  15,C  13)                  1.3664         0.610277   
     16. B(H  16,N  15)                  1.0106         0.431683   
     17. B(H  17,N  15)                  1.0117         0.430036   
     18. B(C  18,C   7)                  1.5270         0.377698   
     19. B(O  19,C  18)                  1.2381         0.977740   
     20. B(N  20,C  18)                  1.3688         0.604927   
     21. B(C  21,N  20)                  1.4532         0.443691   
     22. B(H  22,C  21)                  1.0878         0.363068   
     23. B(H  23,C  21)                  1.0982         0.349458   
     24. B(H  24,C  21)                  1.0002         0.500754   
     25. B(C  25,N  20)                  1.4546         0.441397   
     26. B(H  26,C  25)                  1.0953         0.353191   
     27. B(H  27,C  25)                  1.0965         0.351548   
     28. B(H  28,C  25)                  1.0882         0.362523   
     29. A(O   4,C   0,C   5)          121.5897         0.434439   
     30. A(O   4,C   0,N   6)          123.0155         0.465131   
     31. A(C   5,C   0,N   6)          115.3779         0.387399   
     32. A(C   0,C   5,H   2)          106.5162         0.324235   
     33. A(C   0,C   5,H   1)          112.0941         0.323327   
     34. A(C   0,C   5,H   3)          110.9801         0.323746   
     35. A(H   2,C   5,H   3)          109.2257         0.290498   
     36. A(H   1,C   5,H   2)          109.0088         0.290139   
     37. A(H   1,C   5,H   3)          108.9446         0.289720   
     38. A(C   7,N   6,C  10)          116.4684         0.384693   
     39. A(C   0,N   6,C  10)          123.4762         0.399684   
     40. A(C   0,N   6,C   7)          116.1251         0.398235   
     41. A(H   9,C   7,C  18)          110.3413         0.322908   
     42. A(H   8,C   7,C  18)          111.1868         0.324286   
     43. A(N   6,C   7,C  18)          112.0357         0.373865   
     44. A(H   8,C   7,H   9)          107.3013         0.288607   
     45. A(N   6,C   7,H   9)          110.0568         0.330667   
     46. A(N   6,C   7,H   8)          105.7231         0.332091   
     47. A(H  12,C  10,C  13)          111.4143         0.323669   
     48. A(H  11,C  10,C  13)          108.6850         0.323770   
     49. A(N   6,C  10,C  13)          112.1168         0.374554   
     50. A(H  11,C  10,H  12)          106.1240         0.289721   
     51. A(N   6,C  10,H  12)          107.8558         0.333140   
     52. A(N   6,C  10,H  11)          110.4823         0.333244   
     53. A(O  14,C  13,N  15)          123.0460         0.466453   
     54. A(C  10,C  13,N  15)          114.2599         0.393132   
     55. A(C  10,C  13,O  14)          122.6191         0.429649   
     56. A(H  16,N  15,H  17)          117.7331         0.302842   
     57. A(C  13,N  15,H  17)          117.3144         0.357329   
     58. A(C  13,N  15,H  16)          121.1792         0.357561   
     59. A(C   7,C  18,O  19)          121.6173         0.428135   
     60. A(O  19,C  18,N  20)          122.3482         0.463182   
     61. A(C   7,C  18,N  20)          116.0321         0.393212   
     62. A(C  21,N  20,C  25)          115.5050         0.380365   
     63. A(C  18,N  20,C  25)          118.8280         0.401541   
     64. A(C  18,N  20,C  21)          124.8878         0.401908   
     65. A(H  23,C  21,H  24)          109.2174         0.305008   
     66. A(H  22,C  21,H  24)          109.2441         0.306884   
     67. A(N  20,C  21,H  24)          106.7002         0.350450   
     68. A(H  22,C  21,H  23)          108.9063         0.289846   
     69. A(N  20,C  21,H  23)          111.3673         0.330006   
     70. A(N  20,C  21,H  22)          111.3504         0.332099   
     71. A(H  27,C  25,H  28)          109.5816         0.290049   
     72. A(H  26,C  25,H  28)          109.8674         0.290262   
     73. A(N  20,C  25,H  28)          108.2735         0.331731   
     74. A(H  26,C  25,H  27)          108.7085         0.288866   
     75. A(N  20,C  25,H  27)          110.7236         0.330048   
     76. A(N  20,C  25,H  26)          109.6785         0.330303   
     77. D(H   2,C   5,C   0,N   6)   -177.4259         0.010390   
     78. D(H   3,C   5,C   0,O   4)   -117.6670         0.010390   
     79. D(H   1,C   5,C   0,N   6)    -58.2807         0.010390   
     80. D(H   3,C   5,C   0,N   6)     63.7871         0.010390   
     81. D(H   2,C   5,C   0,O   4)      1.1199         0.010390   
     82. D(H   1,C   5,C   0,O   4)    120.2651         0.010390   
     83. D(C   7,N   6,C   0,C   5)   -170.3348         0.025330   
     84. D(C   7,N   6,C   0,O   4)     11.1425         0.025330   
     85. D(C  10,N   6,C   0,C   5)    -13.4865         0.025330   
     86. D(C  10,N   6,C   0,O   4)    167.9907         0.025330   
     87. D(H   9,C   7,N   6,C  10)    -52.7827         0.017470   
     88. D(H   9,C   7,N   6,C   0)    105.7268         0.017470   
     89. D(H   8,C   7,N   6,C  10)   -168.3573         0.017470   
     90. D(C  18,C   7,N   6,C   0)   -131.1126         0.017470   
     91. D(C  18,C   7,N   6,C  10)     70.3780         0.017470   
     92. D(H   8,C   7,N   6,C   0)     -9.8479         0.017470   
     93. D(C  13,C  10,N   6,C   7)     77.1206         0.018218   
     94. D(C  13,C  10,N   6,C   0)    -79.6549         0.018218   
     95. D(H  12,C  10,N   6,C   7)    -45.9020         0.018218   
     96. D(H  11,C  10,N   6,C   7)   -161.4833         0.018218   
     97. D(H  11,C  10,N   6,C   0)     41.7411         0.018218   
     98. D(H  12,C  10,N   6,C   0)    157.3225         0.018218   
     99. D(N  15,C  13,C  10,H  12)    -46.7341         0.010457   
    100. D(N  15,C  13,C  10,H  11)     69.8520         0.010457   
    101. D(N  15,C  13,C  10,N   6)   -167.7250         0.010457   
    102. D(O  14,C  13,C  10,H  12)    136.3283         0.010457   
    103. D(O  14,C  13,C  10,H  11)   -107.0857         0.010457   
    104. D(O  14,C  13,C  10,N   6)     15.3373         0.010457   
    105. D(H  17,N  15,C  13,C  10)    175.0431         0.030085   
    106. D(H  16,N  15,C  13,O  14)   -165.6570         0.030085   
    107. D(H  16,N  15,C  13,C  10)     17.4201         0.030085   
    108. D(H  17,N  15,C  13,O  14)     -8.0340         0.030085   
    109. D(N  20,C  18,C   7,H   9)    -63.5868         0.010653   
    110. D(N  20,C  18,C   7,H   8)     55.3515         0.010653   
    111. D(N  20,C  18,C   7,N   6)    173.4132         0.010653   
    112. D(O  19,C  18,C   7,H   9)    115.8618         0.010653   
    113. D(O  19,C  18,C   7,H   8)   -125.1998         0.010653   
    114. D(O  19,C  18,C   7,N   6)     -7.1382         0.010653   
    115. D(C  25,N  20,C  18,O  19)     -4.5256         0.029521   
    116. D(C  25,N  20,C  18,C   7)    174.9186         0.029521   
    117. D(C  21,N  20,C  18,O  19)   -173.9385         0.029521   
    118. D(C  21,N  20,C  18,C   7)      5.5057         0.029521   
    119. D(H  24,C  21,N  20,C  25)     47.5549         0.016789   
    120. D(H  24,C  21,N  20,C  18)   -142.7182         0.016789   
    121. D(H  23,C  21,N  20,C  25)    -71.5488         0.016789   
    122. D(H  23,C  21,N  20,C  18)     98.1781         0.016789   
    123. D(H  22,C  21,N  20,C  25)    166.6813         0.016789   
    124. D(H  22,C  21,N  20,C  18)    -23.5918         0.016789   
    125. D(H  28,C  25,N  20,C  21)   -179.0934         0.016614   
    126. D(H  28,C  25,N  20,C  18)     10.5190         0.016614   
    127. D(H  27,C  25,N  20,C  21)     60.7547         0.016614   
    128. D(H  27,C  25,N  20,C  18)   -109.6329         0.016614   
    129. D(H  26,C  25,N  20,C  21)    -59.2135         0.016614   
    130. D(H  26,C  25,N  20,C  18)    130.3989         0.016614   
    -----------------------------------------------------------------

Number of atoms                         .... 29
Number of degrees of freedom            .... 130

         *************************************************************
         *                GEOMETRY OPTIMIZATION CYCLE   1            *
         *************************************************************
---------------------------------
CARTESIAN COORDINATES (ANGSTROEM)
---------------------------------
  C      1.539000   -1.736000   -0.689000
  H      2.847000   -0.883000   -2.226000
  H      3.392000   -2.397000   -1.469000
  H      3.528000   -0.861000   -0.582000
  O      1.169000   -2.873000   -0.489000
  C      2.917000   -1.434000   -1.283000
  N      0.746000   -0.626000   -0.431000
  C     -0.464000   -0.869000    0.326000
  H     -0.567000   -1.956000    0.379000
  H     -0.345000   -0.501000    1.356000
  C      1.248000    0.726000   -0.424000
  H      1.941000    0.881000   -1.255000
  H      0.404000    1.398000   -0.603000
  C      1.966000    1.067000    0.883000
  O      2.329000    0.207000    1.684000
  N      2.226000    2.398000    1.050000
  H      1.743000    3.098000    0.504000
  H      2.630000    2.685000    1.932000
  C     -1.687000   -0.230000   -0.328000
  O     -1.582000    0.518000   -1.309000
  N     -2.896000   -0.525000    0.242000
  C     -3.074000   -1.291000    1.464000
  H     -2.221000   -1.939000    1.653000
  H     -3.220000   -0.633000    2.331000
  H     -3.892000   -1.852000    1.335000
  C     -4.089000    0.138000   -0.261000
  H     -4.867000   -0.606000   -0.463000
  H     -4.472000    0.857000    0.473000
  H     -3.828000    0.659000   -1.180000

----------------------------
CARTESIAN COORDINATES (A.U.)
----------------------------
  NO LB      ZA    FRAG     MASS         X           Y           Z
   0 C     6.0000    0    12.011    2.908289   -3.280565   -1.302021
   1 H     1.0000    0     1.008    5.380050   -1.668628   -4.206530
   2 H     1.0000    0     1.008    6.409951   -4.529674   -2.776008
   3 H     1.0000    0     1.008    6.666954   -1.627054   -1.099821
   4 O     8.0000    0    15.999    2.209090   -5.429183   -0.924076
   5 C     6.0000    0    12.011    5.512331   -2.709867   -2.424519
   6 N     7.0000    0    14.007    1.409736   -1.182969   -0.814472
   7 C     6.0000    0    12.011   -0.876833   -1.642172    0.616051
   8 H     1.0000    0     1.008   -1.071475   -3.696304    0.716206
   9 H     1.0000    0     1.008   -0.651956   -0.946753    2.562469
  10 C     6.0000    0    12.011    2.358378    1.371941   -0.801244
  11 H     1.0000    0     1.008    3.667958    1.664849   -2.371606
  12 H     1.0000    0     1.008    0.763449    2.641837   -1.139505
  13 C     6.0000    0    12.011    3.715202    2.016338    1.668628
  14 O     8.0000    0    15.999    4.401172    0.391173    3.182299
  15 N     7.0000    0    14.007    4.206530    4.531563    1.984212
  16 H     1.0000    0     1.008    3.293793    5.854372    0.952422
  17 H     1.0000    0     1.008    4.969980    5.073915    3.650951
  18 C     6.0000    0    12.011   -3.187968   -0.434637   -0.619830
  19 O     8.0000    0    15.999   -2.989547    0.978878   -2.473652
  20 N     7.0000    0    14.007   -5.472647   -0.992106    0.457314
  21 C     6.0000    0    12.011   -5.809018   -2.439636    2.766559
  22 H     1.0000    0     1.008   -4.197082   -3.664179    3.123717
  23 H     1.0000    0     1.008   -6.084918   -1.196197    4.404952
  24 H     1.0000    0     1.008   -7.354814   -3.499773    2.522784
  25 C     6.0000    0    12.011   -7.727090    0.260782   -0.493219
  26 H     1.0000    0     1.008   -9.197297   -1.145174   -0.874943
  27 H     1.0000    0     1.008   -8.450855    1.619495    0.893840
  28 H     1.0000    0     1.008   -7.233872    1.245330   -2.229877

--------------------------------
INTERNAL COORDINATES (ANGSTROEM)
--------------------------------
 C      0   0   0     0.000000000000     0.00000000     0.00000000
 H      1   0   0     2.191082380925     0.00000000     0.00000000
 H      2   1   0     1.778277256223    63.44169869     0.00000000
 H      3   2   1     1.778921302363    60.03727515   284.29099560
 O      1   2   3     1.212299055514   131.53279516   315.64148885
 C      3   2   1     1.089766029935    35.58262432   320.14131740
 N      1   2   3     1.388349019519    99.21151510   163.87578430
 C      7   1   2     1.447825265700   116.12508070   166.16056025
 H      8   7   1     1.093154609376   105.72307242   350.15213503
 H      8   7   1     1.100220432459   110.05677160   105.72675573
 C      7   1   2     1.442205602541   123.47615402   323.00876847
 H     11   7   1     1.093085083605   110.48228296    41.74113992
 H     11   7   1     1.093600018288   107.85577341   157.32245638
 C     11   7   1     1.529723504428   112.11682273   280.34506291
 O     14  11   7     1.230028454955   122.61908802    15.33731836
 N     14  11   7     1.366400380562   114.25990308   192.27499396
 H     16  14  11     1.010645833119   121.17915605    17.42011464
 H     16  14  11     1.011686216176   117.31438253   175.04310862
 C      8   7   1     1.527012115211   112.03570473   228.88742849
 O     19   8   7     1.238099349810   121.61733221   352.86183226
 N     19   8   7     1.368797282288   116.03208183   173.41320692
 C     21  19   8     1.453177208740   124.88784100     5.50569300
 H     22  21  19     1.087765599750   111.35038585   336.40824213
 H     22  21  19     1.098166198715   111.36732800    98.17813655
 H     22  21  19     1.000242970483   106.70019675   217.28178617
 C     21  19   8     1.454588257893   118.82801109   174.91859116
 H     26  21  19     1.095273481830   109.67850647   130.39885655
 H     26  21  19     1.096542748825   110.72362551   250.36706018
 H     26  21  19     1.088174158855   108.27352339    10.51897660

---------------------------
INTERNAL COORDINATES (A.U.)
---------------------------
 C      0   0   0     0.000000000000     0.00000000     0.00000000
 H      1   0   0     4.140545636808     0.00000000     0.00000000
 H      2   1   0     3.360457004442    63.44169869     0.00000000
 H      3   2   1     3.361674075264    60.03727515   284.29099560
 O      1   2   3     2.290913207333   131.53279516   315.64148885
 C      3   2   1     2.059359346628    35.58262432   320.14131740
 N      1   2   3     2.623599425189    99.21151510   163.87578430
 C      7   1   2     2.735993241945   116.12508070   166.16056025
 H      8   7   1     2.065762833754   105.72307242   350.15213503
 H      8   7   1     2.079115304292   110.05677160   105.72675573
 C      7   1   2     2.725373617609   123.47615402   323.00876847
 H     11   7   1     2.065631449088   110.48228296    41.74113992
 H     11   7   1     2.066604534616   107.85577341   157.32245638
 C     11   7   1     2.890758483992   112.11682273   280.34506291
 O     14  11   7     2.324416916796   122.61908802    15.33731836
 N     14  11   7     2.582122508548   114.25990308   192.27499396
 H     16  14  11     1.909843842983   121.17915605    17.42011464
 H     16  14  11     1.911809882035   117.31438253   175.04310862
 C      8   7   1     2.885634700928   112.03570473   228.88742849
 O     19   8   7     2.339668697727   121.61733221   352.86183226
 N     19   8   7     2.586651996381   116.03208183   173.41320692
 C     21  19   8     2.746106948574   124.88784100     5.50569300
 H     22  21  19     2.055579081429   111.35038585   336.40824213
 H     22  21  19     2.075233365101   111.36732800    98.17813655
 H     22  21  19     1.890185281592   106.70019675   217.28178617
 C     21  19   8     2.748773445035   118.82801109   174.91859116
 H     26  21  19     2.069766922405   109.67850647   130.39885655
 H     26  21  19     2.072165489416   110.72362551   250.36706018
 H     26  21  19     2.056351146246   108.27352339    10.51897660

---------------------
BASIS SET INFORMATION
---------------------
There are 4 groups of distinct atoms

 Group   1 Type C   : 10s4p1d contracted to 3s2p1d pattern {631/31/1}
 Group   2 Type H   : 4s contracted to 2s pattern {31}
 Group   3 Type O   : 10s4p1d contracted to 3s2p1d pattern {631/31/1}
 Group   4 Type N   : 10s4p1d contracted to 3s2p1d pattern {631/31/1}

Atom   0C    basis set group =>   1
Atom   1H    basis set group =>   2
Atom   2H    basis set group =>   2
Atom   3H    basis set group =>   2
Atom   4O    basis set group =>   3
Atom   5C    basis set group =>   1
Atom   6N    basis set group =>   4
Atom   7C    basis set group =>   1
Atom   8H    basis set group =>   2
Atom   9H    basis set group =>   2
Atom  10C    basis set group =>   1
Atom  11H    basis set group =>   2
Atom  12H    basis set group =>   2
Atom  13C    basis set group =>   1
Atom  14O    basis set group =>   3
Atom  15N    basis set group =>   4
Atom  16H    basis set group =>   2
Atom  17H    basis set group =>   2
Atom  18C    basis set group =>   1
Atom  19O    basis set group =>   3
Atom  20N    basis set group =>   4
Atom  21C    basis set group =>   1
Atom  22H    basis set group =>   2
Atom  23H    basis set group =>   2
Atom  24H    basis set group =>   2
Atom  25C    basis set group =>   1
Atom  26H    basis set group =>   2
Atom  27H    basis set group =>   2
Atom  28H    basis set group =>   2
---------------------------------
AUXILIARY/J BASIS SET INFORMATION
---------------------------------
There are 4 groups of distinct atoms

 Group   1 Type C   : 13s11p10d2f contracted to 13s11p10d2f pattern {1111111111111/11111111111/1111111111/11}
 Group   2 Type H   : 9s2p contracted to 9s2p pattern {111111111/11}
 Group   3 Type O   : 14s11p10d2f contracted to 14s11p10d2f pattern {11111111111111/11111111111/1111111111/11}
 Group   4 Type N   : 14s11p10d2f contracted to 14s11p10d2f pattern {11111111111111/11111111111/1111111111/11}

Atom   0C    basis set group =>   1
Atom   1H    basis set group =>   2
Atom   2H    basis set group =>   2
Atom   3H    basis set group =>   2
Atom   4O    basis set group =>   3
Atom   5C    basis set group =>   1
Atom   6N    basis set group =>   4
Atom   7C    basis set group =>   1
Atom   8H    basis set group =>   2
Atom   9H    basis set group =>   2
Atom  10C    basis set group =>   1
Atom  11H    basis set group =>   2
Atom  12H    basis set group =>   2
Atom  13C    basis set group =>   1
Atom  14O    basis set group =>   3
Atom  15N    basis set group =>   4
Atom  16H    basis set group =>   2
Atom  17H    basis set group =>   2
Atom  18C    basis set group =>   1
Atom  19O    basis set group =>   3
Atom  20N    basis set group =>   4
Atom  21C    basis set group =>   1
Atom  22H    basis set group =>   2
Atom  23H    basis set group =>   2
Atom  24H    basis set group =>   2
Atom  25C    basis set group =>   1
Atom  26H    basis set group =>   2
Atom  27H    basis set group =>   2
Atom  28H    basis set group =>   2
---------------------------------
AUXILIARY/C BASIS SET INFORMATION
---------------------------------
There are 4 groups of distinct atoms

 Group   1 Type C   : 13s11p10d2f contracted to 13s11p10d2f pattern {1111111111111/11111111111/1111111111/11}
 Group   2 Type H   : 9s2p contracted to 9s2p pattern {111111111/11}
 Group   3 Type O   : 14s11p10d2f contracted to 14s11p10d2f pattern {11111111111111/11111111111/1111111111/11}
 Group   4 Type N   : 14s11p10d2f contracted to 14s11p10d2f pattern {11111111111111/11111111111/1111111111/11}

Atom   0C    basis set group =>   1
Atom   1H    basis set group =>   2
Atom   2H    basis set group =>   2
Atom   3H    basis set group =>   2
Atom   4O    basis set group =>   3
Atom   5C    basis set group =>   1
Atom   6N    basis set group =>   4
Atom   7C    basis set group =>   1
Atom   8H    basis set group =>   2
Atom   9H    basis set group =>   2
Atom  10C    basis set group =>   1
Atom  11H    basis set group =>   2
Atom  12H    basis set group =>   2
Atom  13C    basis set group =>   1
Atom  14O    basis set group =>   3
Atom  15N    basis set group =>   4
Atom  16H    basis set group =>   2
Atom  17H    basis set group =>   2
Atom  18C    basis set group =>   1
Atom  19O    basis set group =>   3
Atom  20N    basis set group =>   4
Atom  21C    basis set group =>   1
Atom  22H    basis set group =>   2
Atom  23H    basis set group =>   2
Atom  24H    basis set group =>   2
Atom  25C    basis set group =>   1
Atom  26H    basis set group =>   2
Atom  27H    basis set group =>   2
Atom  28H    basis set group =>   2
----------------------------------
AUXILIARY/JK BASIS SET INFORMATION
----------------------------------
There are 4 groups of distinct atoms

 Group   1 Type C   : 13s11p10d2f contracted to 13s11p10d2f pattern {1111111111111/11111111111/1111111111/11}
 Group   2 Type H   : 9s2p contracted to 9s2p pattern {111111111/11}
 Group   3 Type O   : 14s11p10d2f contracted to 14s11p10d2f pattern {11111111111111/11111111111/1111111111/11}
 Group   4 Type N   : 14s11p10d2f contracted to 14s11p10d2f pattern {11111111111111/11111111111/1111111111/11}

Atom   0C    basis set group =>   1
Atom   1H    basis set group =>   2
Atom   2H    basis set group =>   2
Atom   3H    basis set group =>   2
Atom   4O    basis set group =>   3
Atom   5C    basis set group =>   1
Atom   6N    basis set group =>   4
Atom   7C    basis set group =>   1
Atom   8H    basis set group =>   2
Atom   9H    basis set group =>   2
Atom  10C    basis set group =>   1
Atom  11H    basis set group =>   2
Atom  12H    basis set group =>   2
Atom  13C    basis set group =>   1
Atom  14O    basis set group =>   3
Atom  15N    basis set group =>   4
Atom  16H    basis set group =>   2
Atom  17H    basis set group =>   2
Atom  18C    basis set group =>   1
Atom  19O    basis set group =>   3
Atom  20N    basis set group =>   4
Atom  21C    basis set group =>   1
Atom  22H    basis set group =>   2
Atom  23H    basis set group =>   2
Atom  24H    basis set group =>   2
Atom  25C    basis set group =>   1
Atom  26H    basis set group =>   2
Atom  27H    basis set group =>   2
Atom  28H    basis set group =>   2


           ************************************************************
           *        Program running with 4 parallel MPI-processes     *
           *              working on a common directory               *
           ************************************************************
------------------------------------------------------------------------------
                           ORCA GTO INTEGRAL CALCULATION
                           -- RI-GTO INTEGRALS CHOSEN --
------------------------------------------------------------------------------
------------------------------------------------------------------------------
                   ___                                                        
                  /   \      - P O W E R E D   B Y -                         
                 /     \                                                     
                 |  |  |   _    _      __       _____    __    __             
                 |  |  |  | |  | |    /  \     |  _  \  |  |  /  |          
                  \  \/   | |  | |   /    \    | | | |  |  | /  /          
                 / \  \   | |__| |  /  /\  \   | |_| |  |  |/  /          
                |  |  |   |  __  | /  /__\  \  |    /   |      \           
                |  |  |   | |  | | |   __   |  |    \   |  |\   \          
                \     /   | |  | | |  |  |  |  | |\  \  |  | \   \       
                 \___/    |_|  |_| |__|  |__|  |_| \__\ |__|  \__/        
                                                                              
                      - O R C A' S   B I G   F R I E N D -                    
                                      &                                       
                       - I N T E G R A L  F E E D E R -                       
                                                                              
 v1 FN, 2020, v2 2021                                                         
------------------------------------------------------------------------------


Reading SHARK input file Nn_gas.SHARKINP.tmp ... ok
----------------------
SHARK INTEGRAL PACKAGE
----------------------

Number of atoms                             ...     29
Number of basis functions                   ...    226
Number of shells                            ...    114
Maximum angular momentum                    ...      2
Integral batch strategy                     ... SHARK/LIBINT Hybrid
RI-J (if used) integral strategy            ... SPLIT-RIJ (Revised 2003 algorithm where possible)
Printlevel                                  ...      1
Contraction scheme used                     ... SEGMENTED contraction
Coulomb Range Separation                    ... NOT USED
Exchange Range Separation                   ... NOT USED
Finite Nucleus Model                        ... NOT USED
Auxiliary Coulomb fitting basis             ... AVAILABLE
   # of basis functions in Aux-J            ...   1771
   # of shells in Aux-J                     ...    675
   Maximum angular momentum in Aux-J        ...      3
Auxiliary J/K fitting basis                 ... AVAILABLE
   # of basis functions in Aux-JK           ...   1771
   # of shells in Aux-JK                    ...    675
   Maximum angular momentum in Aux-JK       ...      3
Auxiliary Correlation fitting basis         ... AVAILABLE
   # of basis functions in Aux-C            ...   1771
   # of shells in Aux-C                     ...    675
   Maximum angular momentum in Aux-C        ...      3
Auxiliary 'external' fitting basis          ... NOT available
Integral threshold                          ...     2.500000e-11
Primitive cut-off                           ...     2.500000e-12
Primitive pair pre-selection threshold      ...     2.500000e-12

Calculating pre-screening integrals         ... done (  0.0 sec) Dimension = 114
Organizing shell pair data                  ... done (  0.0 sec)
Shell pair information
Total number of shell pairs                 ...      6555
Shell pairs after pre-screening             ...      5474
Total number of primitive shell pairs       ...     36924
Primitive shell pairs kept                  ...     18115
          la=0 lb=0:   2093 shell pairs
          la=1 lb=0:   1788 shell pairs
          la=1 lb=1:    385 shell pairs
          la=2 lb=0:    779 shell pairs
          la=2 lb=1:    349 shell pairs
          la=2 lb=2:     80 shell pairs

Calculating one electron integrals          ... done (  0.0 sec)
Calculating RI/J V-Matrix + Cholesky decomp.... done (  0.5 sec)
Calculating RI/JK V-Matrix + Cholesky decomp... done (  0.2 sec)
Calculating RI/C V-Matrix + Cholesky decomp.... done (  0.2 sec)
Calculating Nuclear repulsion               ... done (  0.0 sec) ENN=    957.788331760970 Eh

SHARK setup successfully completed in   1.5 seconds

Maximum memory used throughout the entire GTOINT-calculation: 28.1 MB


           ************************************************************
           *        Program running with 4 parallel MPI-processes     *
           *              working on a common directory               *
           ************************************************************
-------------------------------------------------------------------------------
                                 ORCA SCF
-------------------------------------------------------------------------------

------------
SCF SETTINGS
------------
Hamiltonian:
 Density Functional     Method          .... DFT(GTOs)
 Exchange Functional    Exchange        .... B88
   X-Alpha parameter    XAlpha          ....  0.666667
   Becke's b parameter  XBeta           ....  0.004200
 Correlation Functional Correlation     .... LYP
 LDA part of GGA corr.  LDAOpt          .... VWN-5
 Gradients option       PostSCFGGA      .... off
 Hybrid DFT is turned on
   Fraction HF Exchange ScalHFX         ....  0.200000
   Scaling of DF-GGA-X  ScalDFX         ....  0.720000
   Scaling of DF-GGA-C  ScalDFC         ....  0.810000
   Scaling of DF-LDA-C  ScalLDAC        ....  1.000000
   Perturbative correction              ....  0.000000
   Density functional embedding theory  .... OFF
   NL short-range parameter             ....  4.800000
 RI-approximation to the Coulomb term is turned on
   Number of AuxJ basis functions       .... 1771
   RIJ-COSX (HFX calculated with COS-X)).... on


General Settings:
 Integral files         IntName         .... Nn_gas
 Hartree-Fock type      HFTyp           .... RHF
 Total Charge           Charge          ....    0
 Multiplicity           Mult            ....    1
 Number of Electrons    NEL             ....  108
 Basis Dimension        Dim             ....  226
 Nuclear Repulsion      ENuc            ....    957.7883317610 Eh

Convergence Acceleration:
 DIIS                   CNVDIIS         .... on
   Start iteration      DIISMaxIt       ....    12
   Startup error        DIISStart       ....  0.200000
   # of expansion vecs  DIISMaxEq       ....     5
   Bias factor          DIISBfac        ....   1.050
   Max. coefficient     DIISMaxC        ....  10.000
 Trust-Rad. Augm. Hess. CNVTRAH         .... auto
   Auto Start mean grad. ratio tolernc. ....  1.125000
   Auto Start start iteration           ....    20
   Auto Start num. interpolation iter.  ....    10
   Max. Number of Micro iterations      ....    16
   Max. Number of Macro iterations      .... Maxiter - #DIIS iter
   Number of Davidson start vectors     ....     2
   Converg. threshold I  (grad. norm)   ....   1.000e-05
   Converg. threshold II (energy diff.) ....   1.000e-08
   Grad. Scal. Fac. for Micro threshold ....   0.100
   Minimum threshold for Micro iter.    ....   0.010
   NR start threshold (gradient norm)   ....   0.001
   Initial trust radius                 ....   0.400
   Minimum AH scaling param. (alpha)    ....   1.000
   Maximum AH scaling param. (alpha)    .... 1000.000
   Orbital update algorithm             .... Taylor
   White noise on init. David. guess    .... on
   Maximum white noise                  ....   0.010
   Quad. conv. algorithm                .... NR
 SOSCF                  CNVSOSCF        .... on
   Start iteration      SOSCFMaxIt      ....   150
   Startup grad/error   SOSCFStart      ....  0.003300
 Level Shifting         CNVShift        .... on
   Level shift para.    LevelShift      ....    0.2500
   Turn off err/grad.   ShiftErr        ....    0.0010
 Zerner damping         CNVZerner       .... off
 Static damping         CNVDamp         .... on
   Fraction old density DampFac         ....    0.7000
   Max. Damping (<1)    DampMax         ....    0.9800
   Min. Damping (>=0)   DampMin         ....    0.0000
   Turn off err/grad.   DampErr         ....    0.1000
 Fernandez-Rico         CNVRico         .... off

SCF Procedure:
 Maximum # iterations   MaxIter         ....   125
 SCF integral mode      SCFMode         .... Direct
   Integral package                     .... SHARK and LIBINT hybrid scheme
 Reset frequency        DirectResetFreq ....    20
 Integral Threshold     Thresh          ....  2.500e-11 Eh
 Primitive CutOff       TCut            ....  2.500e-12 Eh

Convergence Tolerance:
 Convergence Check Mode ConvCheckMode   .... Total+1el-Energy
 Convergence forced     ConvForced      .... 0
 Energy Change          TolE            ....  1.000e-08 Eh
 1-El. energy change                    ....  1.000e-05 Eh
 Orbital Gradient       TolG            ....  1.000e-05
 Orbital Rotation angle TolX            ....  1.000e-05
 DIIS Error             TolErr          ....  5.000e-07


Diagonalization of the overlap matrix:
Smallest eigenvalue                        ... 2.558e-03
Time for diagonalization                   ...    0.010 sec
Threshold for overlap eigenvalues          ... 1.000e-08
Number of eigenvalues below threshold      ... 0
Time for construction of square roots      ...    0.005 sec
Total time needed                          ...    0.015 sec

Time for model grid setup =    0.259 sec

------------------------------
INITIAL GUESS: MODEL POTENTIAL
------------------------------
Loading Hartree-Fock densities                     ... done
Calculating cut-offs                               ... done
Initializing the effective Hamiltonian             ... done
Setting up the integral package (SHARK)            ... done
Starting the Coulomb interaction                   ... done (   0.1 sec)
Reading the grid                                   ... done
Mapping shells                                     ... done
Starting the XC term evaluation                    ... done (   0.1 sec)
  promolecular density results
     # of electrons  =    107.990076536
     EX              =    -89.951838127
     EC              =     -3.689011291
     EX+EC           =    -93.640849418
Transforming the Hamiltonian                       ... done (   0.0 sec)
Diagonalizing the Hamiltonian                      ... done (   0.0 sec)
Back transforming the eigenvectors                 ... done (   0.0 sec)
Now organizing SCF variables                       ... done
                      ------------------
                      INITIAL GUESS DONE (   0.6 sec)
                      ------------------
-------------------
DFT GRID GENERATION
-------------------

General Integration Accuracy     IntAcc      ... 4.388
Radial Grid Type                 RadialGrid  ... OptM3 with GC (2021)
Angular Grid (max. ang.)         AngularGrid ... 4 (Lebedev-302)
Angular grid pruning method      GridPruning ... 4 (adaptive)
Weight generation scheme         WeightScheme... Becke
Basis function cutoff            BFCut       ... 1.0000e-11
Integration weight cutoff        WCut        ... 1.0000e-14
Angular grids for H and He will be reduced by one unit
Partially contracted basis set               ... off
Rotationally invariant grid construction     ... off

Total number of grid points                  ...   132075
Total number of batches                      ...     2076
Average number of points per batch           ...       63
Average number of grid points per atom       ...     4554
Time for grid setup =    1.012 sec

--------------------
COSX GRID GENERATION
--------------------

GRIDX 1
-------
General Integration Accuracy     IntAcc      ... 3.816
Radial Grid Type                 RadialGrid  ... OptM3 with GC (2021)
Angular Grid (max. ang.)         AngularGrid ... 1 (Lebedev-50)
Angular grid pruning method      GridPruning ... 4 (adaptive)
Weight generation scheme         WeightScheme... Becke
Basis function cutoff            BFCut       ... 1.0000e-11
Integration weight cutoff        WCut        ... 1.0000e-14
Angular grids for H and He will be reduced by one unit
Partially contracted basis set               ... on
Rotationally invariant grid construction     ... off

Total number of grid points                  ...    16837
Total number of batches                      ...      280
Average number of points per batch           ...       60
Average number of grid points per atom       ...      581
UseSFitting                                  ... on

GRIDX 2
-------
General Integration Accuracy     IntAcc      ... 4.020
Radial Grid Type                 RadialGrid  ... OptM3 with GC (2021)
Angular Grid (max. ang.)         AngularGrid ... 2 (Lebedev-110)
Angular grid pruning method      GridPruning ... 4 (adaptive)
Weight generation scheme         WeightScheme... Becke
Basis function cutoff            BFCut       ... 1.0000e-11
Integration weight cutoff        WCut        ... 1.0000e-14
Angular grids for H and He will be reduced by one unit
Partially contracted basis set               ... on
Rotationally invariant grid construction     ... off

Total number of grid points                  ...    36085
Total number of batches                      ...      577
Average number of points per batch           ...       62
Average number of grid points per atom       ...     1244
UseSFitting                                  ... on

GRIDX 3
-------
General Integration Accuracy     IntAcc      ... 4.338
Radial Grid Type                 RadialGrid  ... OptM3 with GC (2021)
Angular Grid (max. ang.)         AngularGrid ... 3 (Lebedev-194)
Angular grid pruning method      GridPruning ... 4 (adaptive)
Weight generation scheme         WeightScheme... Becke
Basis function cutoff            BFCut       ... 1.0000e-11
Integration weight cutoff        WCut        ... 1.0000e-14
Angular grids for H and He will be reduced by one unit
Partially contracted basis set               ... on
Rotationally invariant grid construction     ... off

Total number of grid points                  ...    78827
Total number of batches                      ...     1245
Average number of points per batch           ...       63
Average number of grid points per atom       ...     2718
UseSFitting                                  ... on

Time for X-Grid setup             =    1.097 sec

--------------
SCF ITERATIONS
--------------
ITER       Energy         Delta-E        Max-DP      RMS-DP      [F,P]     Damp
               ***  Starting incremental Fock matrix formation  ***
  0   -702.9173203748   0.000000000000 0.10054931  0.00268833  0.2739283 0.7000
  1   -703.1593913452  -0.242070970320 0.05732220  0.00171811  0.1093867 0.7000
                               ***Turning on DIIS***
  2   -703.2449704958  -0.085579150675 0.06859256  0.00242303  0.0433493 0.0000
  3   -703.3919034497  -0.146932953901 0.03810604  0.00120975  0.0576504 0.0000
  4   -703.4187004723  -0.026797022519 0.00961205  0.00037389  0.0147243 0.0000
                      *** Initiating the SOSCF procedure ***
                           *** Shutting down DIIS ***
                      *** Re-Reading the Fockian *** 
                      *** Removing any level shift *** 
ITER      Energy       Delta-E        Grad      Rot      Max-DP    RMS-DP
  5   -703.42135652  -0.0026560437  0.000717  0.000717  0.003032  0.000107
               *** Restarting incremental Fock matrix formation ***
  6   -703.42144174  -0.0000852214  0.000518  0.001913  0.002657  0.000068
  7   -703.42142078   0.0000209527  0.001134  0.001293  0.001515  0.000041
  8   -703.42145566  -0.0000348707  0.000138  0.000350  0.000481  0.000014
  9   -703.42145452   0.0000011361  0.000225  0.000228  0.000307  0.000008
 10   -703.42145641  -0.0000018865  0.000009  0.000017  0.000045  0.000001
 11   -703.42145640   0.0000000055  0.000010  0.000011  0.000028  0.000001
                  ***Gradient check signals convergence***
              ***Rediagonalizing the Fockian in SOSCF/NRSCF***

               *****************************************************
               *                     SUCCESS                       *
               *           SCF CONVERGED AFTER  12 CYCLES          *
               *****************************************************

Old exchange energy                            =    -18.293154917 Eh
New exchange energy                            =    -18.293166319 Eh
Exchange energy change after final integration =     -0.000011403 Eh
Total energy after final integration           =   -703.421467812 Eh
Final COS-X integration done in                =     7.848 sec

----------------
TOTAL SCF ENERGY
----------------

Total Energy       :         -703.42146781 Eh          -19141.07125 eV

Components:
Nuclear Repulsion  :          957.78833176 Eh           26062.74551 eV
Electronic Energy  :        -1661.20979957 Eh          -45203.81676 eV
One Electron Energy:        -2860.37429398 Eh          -77834.74158 eV
Two Electron Energy:         1199.16449441 Eh           32630.92482 eV
Max COSX asymmetry :            0.00000424 Eh               0.00012 eV

Virial components:
Potential Energy   :        -1402.85903924 Eh          -38173.73517 eV
Kinetic Energy     :          699.43757142 Eh           19032.66392 eV
Virial Ratio       :            2.00569586


DFT components:
N(Alpha)           :       53.999965280432 electrons
N(Beta)            :       53.999965280432 electrons
N(Total)           :      107.999930560864 electrons
E(X)               :      -72.697199068690 Eh       
E(C)               :       -4.346584143729 Eh       
E(XC)              :      -77.043783212419 Eh       
DFET-embed. en.    :        0.000000000000 Eh       

---------------
SCF CONVERGENCE
---------------

  Last Energy change         ...   -8.7957e-09  Tolerance :   1.0000e-08
  Last MAX-Density change    ...    3.5527e-15  Tolerance :   1.0000e-07
  Last RMS-Density change    ...    5.0116e-17  Tolerance :   5.0000e-09
  Last Orbital Gradient      ...    1.4468e-06  Tolerance :   1.0000e-05
  Last Orbital Rotation      ...    3.9288e-06  Tolerance :   1.0000e-05

             **** THE GBW FILE WAS UPDATED (Nn_gas.gbw) ****
             **** DENSITY Nn_gas.scfp WAS UPDATED ****
             **** ENERGY FILE WAS UPDATED (Nn_gas.en.tmp) ****
             **** THE GBW FILE WAS UPDATED (Nn_gas.gbw) ****
             **** DENSITY Nn_gas.scfp WAS UPDATED ****
----------------
ORBITAL ENERGIES
----------------

  NO   OCC          E(Eh)            E(eV) 
   0   2.0000     -19.115741      -520.1658 
   1   2.0000     -19.103327      -519.8280 
   2   2.0000     -19.097828      -519.6783 
   3   2.0000     -14.359170      -390.7329 
   4   2.0000     -14.357097      -390.6765 
   5   2.0000     -14.346828      -390.3970 
   6   2.0000     -10.289092      -279.9804 
   7   2.0000     -10.277964      -279.6776 
   8   2.0000     -10.270596      -279.4771 
   9   2.0000     -10.218506      -278.0597 
  10   2.0000     -10.208835      -277.7965 
  11   2.0000     -10.208705      -277.7930 
  12   2.0000     -10.203566      -277.6531 
  13   2.0000     -10.166407      -276.6420 
  14   2.0000      -1.035714       -28.1832 
  15   2.0000      -1.027075       -27.9481 
  16   2.0000      -1.021251       -27.7897 
  17   2.0000      -0.933636       -25.4055 
  18   2.0000      -0.926531       -25.2122 
  19   2.0000      -0.910908       -24.7871 
  20   2.0000      -0.760811       -20.7027 
  21   2.0000      -0.732113       -19.9218 
  22   2.0000      -0.730412       -19.8755 
  23   2.0000      -0.710250       -19.3269 
  24   2.0000      -0.665497       -18.1091 
  25   2.0000      -0.603623       -16.4254 
  26   2.0000      -0.559643       -15.2286 
  27   2.0000      -0.551199       -14.9989 
  28   2.0000      -0.521378       -14.1874 
  29   2.0000      -0.507824       -13.8186 
  30   2.0000      -0.497420       -13.5355 
  31   2.0000      -0.482780       -13.1371 
  32   2.0000      -0.473542       -12.8857 
  33   2.0000      -0.470106       -12.7922 
  34   2.0000      -0.458661       -12.4808 
  35   2.0000      -0.432321       -11.7641 
  36   2.0000      -0.429198       -11.6791 
  37   2.0000      -0.415618       -11.3095 
  38   2.0000      -0.413097       -11.2409 
  39   2.0000      -0.406570       -11.0633 
  40   2.0000      -0.404976       -11.0200 
  41   2.0000      -0.397854       -10.8262 
  42   2.0000      -0.382773       -10.4158 
  43   2.0000      -0.381528       -10.3819 
  44   2.0000      -0.379526       -10.3274 
  45   2.0000      -0.363415        -9.8890 
  46   2.0000      -0.346883        -9.4392 
  47   2.0000      -0.345103        -9.3907 
  48   2.0000      -0.276164        -7.5148 
  49   2.0000      -0.260632        -7.0922 
  50   2.0000      -0.252010        -6.8575 
  51   2.0000      -0.239339        -6.5128 
  52   2.0000      -0.237050        -6.4505 
  53   2.0000      -0.228150        -6.2083 
  54   0.0000       0.018062         0.4915 
  55   0.0000       0.028780         0.7831 
  56   0.0000       0.041139         1.1195 
  57   0.0000       0.068057         1.8519 
  58   0.0000       0.089268         2.4291 
  59   0.0000       0.105802         2.8790 
  60   0.0000       0.119181         3.2431 
  61   0.0000       0.126103         3.4314 
  62   0.0000       0.137069         3.7298 
  63   0.0000       0.143346         3.9006 
  64   0.0000       0.154758         4.2112 
  65   0.0000       0.163027         4.4362 
  66   0.0000       0.165002         4.4899 
  67   0.0000       0.169588         4.6147 
  68   0.0000       0.177230         4.8227 
  69   0.0000       0.183447         4.9919 
  70   0.0000       0.193896         5.2762 
  71   0.0000       0.201363         5.4794 
  72   0.0000       0.207134         5.6364 
  73   0.0000       0.209944         5.7129 
  74   0.0000       0.221188         6.0188 
  75   0.0000       0.251842         6.8530 
  76   0.0000       0.257124         6.9967 
  77   0.0000       0.272478         7.4145 
  78   0.0000       0.289170         7.8687 
  79   0.0000       0.339833         9.2473 
  80   0.0000       0.341728         9.2989 
  81   0.0000       0.357139         9.7182 
  82   0.0000       0.370465        10.0809 
  83   0.0000       0.390876        10.6363 
  84   0.0000       0.413873        11.2621 
  85   0.0000       0.492750        13.4084 
  86   0.0000       0.498106        13.5542 
  87   0.0000       0.512419        13.9436 
  88   0.0000       0.516741        14.0612 
  89   0.0000       0.531792        14.4708 
  90   0.0000       0.538158        14.6440 
  91   0.0000       0.547925        14.9098 
  92   0.0000       0.561054        15.2671 
  93   0.0000       0.569417        15.4946 
  94   0.0000       0.597543        16.2600 
  95   0.0000       0.611760        16.6468 
  96   0.0000       0.627119        17.0648 
  97   0.0000       0.632319        17.2063 
  98   0.0000       0.643326        17.5058 
  99   0.0000       0.661727        18.0065 
 100   0.0000       0.665504        18.1093 
 101   0.0000       0.677647        18.4397 
 102   0.0000       0.701888        19.0994 
 103   0.0000       0.708675        19.2840 
 104   0.0000       0.716537        19.4980 
 105   0.0000       0.727340        19.7919 
 106   0.0000       0.732951        19.9446 
 107   0.0000       0.739046        20.1105 
 108   0.0000       0.768445        20.9105 
 109   0.0000       0.776917        21.1410 
 110   0.0000       0.800331        21.7781 
 111   0.0000       0.810124        22.0446 
 112   0.0000       0.820596        22.3296 
 113   0.0000       0.832382        22.6503 
 114   0.0000       0.846383        23.0312 
 115   0.0000       0.859964        23.4008 
 116   0.0000       0.866734        23.5850 
 117   0.0000       0.867576        23.6079 
 118   0.0000       0.874554        23.7978 
 119   0.0000       0.885197        24.0874 
 120   0.0000       0.895431        24.3659 
 121   0.0000       0.902764        24.5655 
 122   0.0000       0.904402        24.6100 
 123   0.0000       0.923451        25.1284 
 124   0.0000       0.927146        25.2289 
 125   0.0000       0.930068        25.3084 
 126   0.0000       0.947047        25.7705 
 127   0.0000       0.954922        25.9847 
 128   0.0000       0.977049        26.5868 
 129   0.0000       0.982156        26.7258 
 130   0.0000       0.990383        26.9497 
 131   0.0000       1.004693        27.3391 
 132   0.0000       1.005950        27.3733 
 133   0.0000       1.009459        27.4688 
 134   0.0000       1.050374        28.5821 
 135   0.0000       1.073001        29.1978 
 136   0.0000       1.099238        29.9118 
 137   0.0000       1.123854        30.5816 
 138   0.0000       1.133685        30.8491 
 139   0.0000       1.141260        31.0553 
 140   0.0000       1.166013        31.7288 
 141   0.0000       1.198700        32.6183 
 142   0.0000       1.217532        33.1307 
 143   0.0000       1.262656        34.3586 
 144   0.0000       1.296105        35.2688 
 145   0.0000       1.319516        35.9059 
 146   0.0000       1.334440        36.3120 
 147   0.0000       1.345762        36.6200 
 148   0.0000       1.363652        37.1069 
 149   0.0000       1.391939        37.8766 
 150   0.0000       1.395067        37.9617 
 151   0.0000       1.415486        38.5173 
 152   0.0000       1.442951        39.2647 
 153   0.0000       1.461199        39.7613 
 154   0.0000       1.481357        40.3098 
 155   0.0000       1.541017        41.9332 
 156   0.0000       1.565047        42.5871 
 157   0.0000       1.582673        43.0667 
 158   0.0000       1.646219        44.7959 
 159   0.0000       1.672009        45.4977 
 160   0.0000       1.691839        46.0373 
 161   0.0000       1.720943        46.8292 
 162   0.0000       1.735262        47.2189 
 163   0.0000       1.746468        47.5238 
 164   0.0000       1.770502        48.1778 
 165   0.0000       1.790995        48.7355 
 166   0.0000       1.800017        48.9810 
 167   0.0000       1.809725        49.2451 
 168   0.0000       1.814192        49.3667 
 169   0.0000       1.833568        49.8939 
 170   0.0000       1.839065        50.0435 
 171   0.0000       1.861823        50.6628 
 172   0.0000       1.886022        51.3213 
 173   0.0000       1.907302        51.9003 
 174   0.0000       1.919642        52.2361 
 175   0.0000       1.934554        52.6419 
 176   0.0000       1.945453        52.9385 
 177   0.0000       1.960349        53.3438 
 178   0.0000       1.966161        53.5020 
 179   0.0000       1.971889        53.6578 
 180   0.0000       2.000655        54.4406 
 181   0.0000       2.020899        54.9915 
 182   0.0000       2.023406        55.0597 
 183   0.0000       2.050060        55.7850 
 184   0.0000       2.060266        56.0627 
 185   0.0000       2.069257        56.3073 
 186   0.0000       2.088825        56.8398 
 187   0.0000       2.104130        57.2563 
 188   0.0000       2.111124        57.4466 
 189   0.0000       2.121995        57.7424 
 190   0.0000       2.148418        58.4614 
 191   0.0000       2.183738        59.4225 
 192   0.0000       2.219214        60.3879 
 193   0.0000       2.225897        60.5697 
 194   0.0000       2.259729        61.4903 
 195   0.0000       2.268568        61.7309 
 196   0.0000       2.288637        62.2770 
 197   0.0000       2.305364        62.7322 
 198   0.0000       2.324470        63.2520 
 199   0.0000       2.344187        63.7886 
 200   0.0000       2.378396        64.7195 
 201   0.0000       2.411380        65.6170 
 202   0.0000       2.425011        65.9879 
 203   0.0000       2.441635        66.4403 
 204   0.0000       2.459555        66.9279 
 205   0.0000       2.487445        67.6868 
 206   0.0000       2.512259        68.3620 
 207   0.0000       2.540806        69.1388 
 208   0.0000       2.585669        70.3596 
 209   0.0000       2.596055        70.6422 
 210   0.0000       2.622531        71.3627 
 211   0.0000       2.635303        71.7102 
 212   0.0000       2.656499        72.2870 
 213   0.0000       2.682667        72.9991 
 214   0.0000       2.693174        73.2850 
 215   0.0000       2.727579        74.2212 
 216   0.0000       2.765236        75.2459 
 217   0.0000       2.847470        77.4836 
 218   0.0000       2.929730        79.7220 
 219   0.0000       2.979818        81.0850 
 220   0.0000       3.009579        81.8948 
 221   0.0000       3.018580        82.1397 
 222   0.0000       3.043969        82.8306 
 223   0.0000       3.082865        83.8890 
 224   0.0000       3.184297        86.6491 
 225   0.0000       3.210589        87.3646 

                    ********************************
                    * MULLIKEN POPULATION ANALYSIS *
                    ********************************

-----------------------
MULLIKEN ATOMIC CHARGES
-----------------------
   0 C :    0.545091
   1 H :    0.165095
   2 H :    0.182042
   3 H :    0.183157
   4 O :   -0.455803
   5 C :   -0.562537
   6 N :   -0.350143
   7 C :   -0.278271
   8 H :    0.215306
   9 H :    0.173085
  10 C :   -0.271142
  11 H :    0.185644
  12 H :    0.195025
  13 C :    0.533981
  14 O :   -0.460201
  15 N :   -0.733483
  16 H :    0.339665
  17 H :    0.346007
  18 C :    0.542443
  19 O :   -0.488598
  20 N :   -0.386223
  21 C :   -0.315403
  22 H :    0.182147
  23 H :    0.153535
  24 H :    0.176998
  25 C :   -0.324334
  26 H :    0.153252
  27 H :    0.148865
  28 H :    0.204800
Sum of atomic charges:   -0.0000000

--------------------------------
MULLIKEN REDUCED ORBITAL CHARGES
--------------------------------
  0 C s       :     2.969974  s :     2.969974
      pz      :     0.791849  p :     2.373990
      px      :     0.823069
      py      :     0.759073
      dz2     :     0.007945  d :     0.110944
      dxz     :     0.008137
      dyz     :     0.026814
      dx2y2   :     0.030413
      dxy     :     0.037636
  1 H s       :     0.834905  s :     0.834905
  2 H s       :     0.817958  s :     0.817958
  3 H s       :     0.816843  s :     0.816843
  4 O s       :     3.852995  s :     3.852995
      pz      :     1.483434  p :     4.575024
      px      :     1.680724
      py      :     1.410866
      dz2     :     0.002883  d :     0.027785
      dxz     :     0.000986
      dyz     :     0.008968
      dx2y2   :     0.007588
      dxy     :     0.007361
  5 C s       :     3.321842  s :     3.321842
      pz      :     1.061734  p :     3.208889
      px      :     1.025291
      py      :     1.121865
      dz2     :     0.005169  d :     0.031806
      dxz     :     0.006043
      dyz     :     0.007804
      dx2y2   :     0.005904
      dxy     :     0.006886
  6 N s       :     3.525264  s :     3.525264
      pz      :     1.528334  p :     3.787912
      px      :     1.192056
      py      :     1.067521
      dz2     :     0.004677  d :     0.036967
      dxz     :     0.006073
      dyz     :     0.005726
      dx2y2   :     0.009144
      dxy     :     0.011346
  7 C s       :     3.232227  s :     3.232227
      pz      :     1.000996  p :     2.993416
      px      :     0.860164
      py      :     1.132256
      dz2     :     0.014265  d :     0.052628
      dxz     :     0.012526
      dyz     :     0.004614
      dx2y2   :     0.014293
      dxy     :     0.006931
  8 H s       :     0.784694  s :     0.784694
  9 H s       :     0.826915  s :     0.826915
 10 C s       :     3.231204  s :     3.231204
      pz      :     1.016163  p :     2.986595
      px      :     1.069964
      py      :     0.900469
      dz2     :     0.009123  d :     0.053343
      dxz     :     0.011352
      dyz     :     0.009741
      dx2y2   :     0.009356
      dxy     :     0.013770
 11 H s       :     0.814356  s :     0.814356
 12 H s       :     0.804975  s :     0.804975
 13 C s       :     2.990126  s :     2.990126
      pz      :     0.839940  p :     2.366887
      px      :     0.801600
      py      :     0.725347
      dz2     :     0.026098  d :     0.109006
      dxz     :     0.013025
      dyz     :     0.024148
      dx2y2   :     0.023577
      dxy     :     0.022158
 14 O s       :     3.871385  s :     3.871385
      pz      :     1.523089  p :     4.561831
      px      :     1.474552
      py      :     1.564191
      dz2     :     0.005975  d :     0.026985
      dxz     :     0.004030
      dyz     :     0.007375
      dx2y2   :     0.004165
      dxy     :     0.005439
 15 N s       :     3.588613  s :     3.588613
      pz      :     1.369346  p :     4.119771
      px      :     1.592107
      py      :     1.158318
      dz2     :     0.004736  d :     0.025098
      dxz     :     0.003566
      dyz     :     0.007311
      dx2y2   :     0.003094
      dxy     :     0.006391
 16 H s       :     0.660335  s :     0.660335
 17 H s       :     0.653993  s :     0.653993
 18 C s       :     2.977368  s :     2.977368
      pz      :     0.774270  p :     2.372397
      px      :     0.802151
      py      :     0.795976
      dz2     :     0.022739  d :     0.107793
      dxz     :     0.032143
      dyz     :     0.014469
      dx2y2   :     0.015696
      dxy     :     0.022745
 19 O s       :     3.875207  s :     3.875207
      pz      :     1.388085  p :     4.587250
      px      :     1.776866
      py      :     1.422299
      dz2     :     0.008791  d :     0.026141
      dxz     :     0.004213
      dyz     :     0.007473
      dx2y2   :     0.003299
      dxy     :     0.002365
 20 N s       :     3.535390  s :     3.535390
      pz      :     1.262799  p :     3.813702
      px      :     1.104199
      py      :     1.446705
      dz2     :     0.007702  d :     0.037131
      dxz     :     0.008676
      dyz     :     0.005521
      dx2y2   :     0.006660
      dxy     :     0.008573
 21 C s       :     3.233033  s :     3.233033
      pz      :     0.894677  p :     3.032482
      px      :     1.116784
      py      :     1.021020
      dz2     :     0.015530  d :     0.049888
      dxz     :     0.003837
      dyz     :     0.014646
      dx2y2   :     0.003260
      dxy     :     0.012615
 22 H s       :     0.817853  s :     0.817853
 23 H s       :     0.846465  s :     0.846465
 24 H s       :     0.823002  s :     0.823002
 25 C s       :     3.255703  s :     3.255703
      pz      :     1.095947  p :     3.020377
      px      :     0.892680
      py      :     1.031750
      dz2     :     0.006905  d :     0.048254
      dxz     :     0.008967
      dyz     :     0.010187
      dx2y2   :     0.006053
      dxy     :     0.016142
 26 H s       :     0.846748  s :     0.846748
 27 H s       :     0.851135  s :     0.851135
 28 H s       :     0.795200  s :     0.795200


                     *******************************
                     * LOEWDIN POPULATION ANALYSIS *
                     *******************************

----------------------
LOEWDIN ATOMIC CHARGES
----------------------
   0 C :    0.122720
   1 H :    0.139106
   2 H :    0.150229
   3 H :    0.149369
   4 O :   -0.257987
   5 C :   -0.396427
   6 N :   -0.067979
   7 C :   -0.196109
   8 H :    0.168289
   9 H :    0.138236
  10 C :   -0.199154
  11 H :    0.153083
  12 H :    0.154649
  13 C :    0.093579
  14 O :   -0.271055
  15 N :   -0.371187
  16 H :    0.254530
  17 H :    0.259321
  18 C :    0.106212
  19 O :   -0.295024
  20 N :   -0.087485
  21 C :   -0.280271
  22 H :    0.145713
  23 H :    0.123647
  24 H :    0.138139
  25 C :   -0.278167
  26 H :    0.125320
  27 H :    0.120900
  28 H :    0.157804

-------------------------------
LOEWDIN REDUCED ORBITAL CHARGES
-------------------------------
  0 C s       :     2.845914  s :     2.845914
      pz      :     0.826780  p :     2.769358
      px      :     0.961235
      py      :     0.981344
      dz2     :     0.018275  d :     0.262008
      dxz     :     0.016612
      dyz     :     0.058558
      dx2y2   :     0.075849
      dxy     :     0.092714
  1 H s       :     0.860894  s :     0.860894
  2 H s       :     0.849771  s :     0.849771
  3 H s       :     0.850631  s :     0.850631
  4 O s       :     3.549670  s :     3.549670
      pz      :     1.474868  p :     4.652056
      px      :     1.686507
      py      :     1.490681
      dz2     :     0.006727  d :     0.056261
      dxz     :     0.001832
      dyz     :     0.013988
      dx2y2   :     0.018097
      dxy     :     0.015616
  5 C s       :     2.986763  s :     2.986763
      pz      :     1.117972  p :     3.347574
      px      :     1.080926
      py      :     1.148675
      dz2     :     0.009814  d :     0.062090
      dxz     :     0.012537
      dyz     :     0.014001
      dx2y2   :     0.012086
      dxy     :     0.013652
  6 N s       :     3.088211  s :     3.088211
      pz      :     1.510394  p :     3.883345
      px      :     1.228384
      py      :     1.144566
      dz2     :     0.010808  d :     0.096422
      dxz     :     0.013278
      dyz     :     0.013854
      dx2y2   :     0.026192
      dxy     :     0.032291
  7 C s       :     2.924453  s :     2.924453
      pz      :     1.060069  p :     3.160173
      px      :     0.958549
      py      :     1.141555
      dz2     :     0.028852  d :     0.111483
      dxz     :     0.028775
      dyz     :     0.008773
      dx2y2   :     0.030420
      dxy     :     0.014664
  8 H s       :     0.831711  s :     0.831711
  9 H s       :     0.861764  s :     0.861764
 10 C s       :     2.925584  s :     2.925584
      pz      :     1.080727  p :     3.159284
      px      :     1.104511
      py      :     0.974045
      dz2     :     0.020279  d :     0.114286
      dxz     :     0.024534
      dyz     :     0.021497
      dx2y2   :     0.019896
      dxy     :     0.028080
 11 H s       :     0.846917  s :     0.846917
 12 H s       :     0.845351  s :     0.845351
 13 C s       :     2.858539  s :     2.858539
      pz      :     0.975536  p :     2.788319
      px      :     0.846996
      py      :     0.965788
      dz2     :     0.062751  d :     0.259563
      dxz     :     0.030048
      dyz     :     0.057341
      dx2y2   :     0.060891
      dxy     :     0.048531
 14 O s       :     3.566004  s :     3.566004
      pz      :     1.562197  p :     4.650877
      px      :     1.479664
      py      :     1.609016
      dz2     :     0.010266  d :     0.054174
      dxz     :     0.007671
      dyz     :     0.018402
      dx2y2   :     0.008505
      dxy     :     0.009330
 15 N s       :     3.186171  s :     3.186171
      pz      :     1.357547  p :     4.127667
      px      :     1.572209
      py      :     1.197911
      dz2     :     0.010253  d :     0.057349
      dxz     :     0.005274
      dyz     :     0.017897
      dx2y2   :     0.009847
      dxy     :     0.014079
 16 H s       :     0.745470  s :     0.745470
 17 H s       :     0.740679  s :     0.740679
 18 C s       :     2.851021  s :     2.851021
      pz      :     0.928857  p :     2.787232
      px      :     0.969092
      py      :     0.889283
      dz2     :     0.049175  d :     0.255535
      dxz     :     0.080512
      dyz     :     0.035805
      dx2y2   :     0.036165
      dxy     :     0.053878
 19 O s       :     3.567301  s :     3.567301
      pz      :     1.448152  p :     4.674608
      px      :     1.769411
      py      :     1.457045
      dz2     :     0.015035  d :     0.053116
      dxz     :     0.008136
      dyz     :     0.019116
      dx2y2   :     0.006159
      dxy     :     0.004669
 20 N s       :     3.089633  s :     3.089633
      pz      :     1.294221  p :     3.901140
      px      :     1.172732
      py      :     1.434187
      dz2     :     0.019832  d :     0.096711
      dxz     :     0.024248
      dyz     :     0.012752
      dx2y2   :     0.019014
      dxy     :     0.020865
 21 C s       :     2.945363  s :     2.945363
      pz      :     0.994038  p :     3.235238
      px      :     1.154904
      py      :     1.086297
      dz2     :     0.032368  d :     0.099670
      dxz     :     0.007467
      dyz     :     0.030123
      dx2y2   :     0.005992
      dxy     :     0.023720
 22 H s       :     0.854287  s :     0.854287
 23 H s       :     0.876353  s :     0.876353
 24 H s       :     0.861861  s :     0.861861
 25 C s       :     2.961762  s :     2.961762
      pz      :     1.136233  p :     3.220355
      px      :     0.986956
      py      :     1.097167
      dz2     :     0.012955  d :     0.096050
      dxz     :     0.018408
      dyz     :     0.019156
      dx2y2   :     0.012531
      dxy     :     0.032999
 26 H s       :     0.874680  s :     0.874680
 27 H s       :     0.879100  s :     0.879100
 28 H s       :     0.842196  s :     0.842196


                      *****************************
                      * MAYER POPULATION ANALYSIS *
                      *****************************

  NA   - Mulliken gross atomic population
  ZA   - Total nuclear charge
  QA   - Mulliken gross atomic charge
  VA   - Mayer's total valence
  BVA  - Mayer's bonded valence
  FA   - Mayer's free valence

  ATOM       NA         ZA         QA         VA         BVA        FA
  0 C      5.4549     6.0000     0.5451     3.9753     3.9753     0.0000
  1 H      0.8349     1.0000     0.1651     0.9300     0.9300     0.0000
  2 H      0.8180     1.0000     0.1820     0.9397     0.9397    -0.0000
  3 H      0.8168     1.0000     0.1832     0.9346     0.9346    -0.0000
  4 O      8.4558     8.0000    -0.4558     2.1099     2.1099    -0.0000
  5 C      6.5625     6.0000    -0.5625     3.7957     3.7957     0.0000
  6 N      7.3501     7.0000    -0.3501     3.1262     3.1262     0.0000
  7 C      6.2783     6.0000    -0.2783     3.7509     3.7509    -0.0000
  8 H      0.7847     1.0000     0.2153     0.9491     0.9491     0.0000
  9 H      0.8269     1.0000     0.1731     0.9301     0.9301    -0.0000
 10 C      6.2711     6.0000    -0.2711     3.7616     3.7616    -0.0000
 11 H      0.8144     1.0000     0.1856     0.9304     0.9304    -0.0000
 12 H      0.8050     1.0000     0.1950     0.9461     0.9461     0.0000
 13 C      5.4660     6.0000     0.5340     3.9030     3.9030    -0.0000
 14 O      8.4602     8.0000    -0.4602     2.0794     2.0794    -0.0000
 15 N      7.7335     7.0000    -0.7335     2.8623     2.8623    -0.0000
 16 H      0.6603     1.0000     0.3397     0.8539     0.8539    -0.0000
 17 H      0.6540     1.0000     0.3460     0.8604     0.8604    -0.0000
 18 C      5.4576     6.0000     0.5424     3.8944     3.8944     0.0000
 19 O      8.4886     8.0000    -0.4886     2.0580     2.0580     0.0000
 20 N      7.3862     7.0000    -0.3862     3.1269     3.1269     0.0000
 21 C      6.3154     6.0000    -0.3154     3.8116     3.8116     0.0000
 22 H      0.8179     1.0000     0.1821     0.9356     0.9356     0.0000
 23 H      0.8465     1.0000     0.1535     0.9270     0.9270     0.0000
 24 H      0.8230     1.0000     0.1770     0.9179     0.9179    -0.0000
 25 C      6.3243     6.0000    -0.3243     3.7909     3.7909    -0.0000
 26 H      0.8467     1.0000     0.1533     0.9309     0.9309    -0.0000
 27 H      0.8511     1.0000     0.1489     0.9293     0.9293    -0.0000
 28 H      0.7952     1.0000     0.2048     0.9471     0.9471    -0.0000

  Mayer bond orders larger than 0.100000
B(  0-C ,  4-O ) :   1.8730 B(  0-C ,  5-C ) :   0.9738 B(  0-C ,  6-N ) :   1.0885 
[...]
      2      -0.000001   0.000024   0.000014
      3       0.000002  -0.000017  -0.000008
      4      -0.000068  -0.000018  -0.000011
      5       0.000104   0.000115  -0.000012
      6      -0.000006   0.000030  -0.000003
      7      -0.000029  -0.000321  -0.000024
      8      -0.000002  -0.000097  -0.000020
      9      -0.000018  -0.000357  -0.000082
     10      -0.000006   0.000081  -0.000025
     11      -0.000013   0.000091   0.000010
     12      -0.000006  -0.000016  -0.000008
     13       0.000007  -0.000034   0.000007
     14       0.000006  -0.000003  -0.000002
     15      -0.000002   0.000013  -0.000001
     16       0.000010   0.000014   0.000003
     17      -0.000006  -0.000000   0.000001
     18      -0.000005   0.000002  -0.000079
     19       0.000003   0.000044  -0.000018
     20       0.000007   0.000046  -0.000007
     21       0.000016   0.000003  -0.000004
     22       0.000404   0.000005  -0.000004
     23       0.000092   0.000020   0.000006
     24      -0.000690  -0.000099   0.000038
     25      -0.004088  -0.000159   0.000092
     26       0.000161   0.000005  -0.000006
     27      -0.000117   0.000194   0.000112
     28      -0.000337  -0.000012  -0.000033
     29      -0.001114  -0.000315  -0.000001
     30       0.000100  -0.000369   0.000010
     31      -0.000041   0.000409  -0.000156
     32      -0.000021  -0.000754  -0.000464
     33      -0.000403  -0.002117  -0.001154
     34      -0.000102  -0.000959  -0.000556
     35       0.000489   0.002297   0.001000
     36      -0.000906   0.004575  -0.001163
     37       0.000566  -0.005569   0.000975
     38      -0.000202   0.001000  -0.000729
     39       0.000000  -0.000685   0.000902
     40       0.000010  -0.001458   0.000161
     41      -0.000003  -0.000093   0.001411
     42      -0.000001   0.000268  -0.000213
     43      -0.000004  -0.000677   0.000399
     44       0.000002   0.000443  -0.000420
     45      -0.000001   0.004158   0.045278
     46      -0.000004   0.051373  -0.020540
     47      -0.000003   0.013949   0.070744
     48       0.000000   0.295017  -0.316640
     49      -0.000009  -0.458912   0.497542
     50       0.000028   0.407121  -0.430175
     51      -0.000015  -0.346973  -0.317091
     52      -0.000002  -0.225638  -0.218874
     53      -0.000021  -0.601993  -0.557854
     54      -0.000206   0.000073   0.000003
     55       0.000551  -0.000006   0.000021
     56      -0.000781  -0.000010  -0.000026
     57       0.000818  -0.000039   0.000005
     58      -0.000236   0.000001  -0.000016
     59       0.000163  -0.000008   0.000015
     60       0.000062  -0.000034  -0.000004
     61       0.000263   0.000004  -0.000005
     62      -0.000265   0.000007   0.000008
     63      -0.002791   0.000017   0.000001
     64      -0.000089   0.000006   0.000006
     65      -0.001206  -0.000005  -0.000006
     66       0.030460  -0.000044   0.000032
     67      -0.005112   0.000035  -0.000010
     68       0.018963  -0.000081   0.000017
     69       0.004006  -0.000114  -0.000022
     70      -0.002829   0.000049   0.000006
     71      -0.002503   0.000084   0.000016
     72       0.001486  -0.000032  -0.000016
     73       0.005061  -0.000091  -0.000040
     74       0.002598  -0.000028  -0.000001
     75       0.034549   0.000019   0.000001
     76       0.052316  -0.000011   0.000002
     77      -0.063772   0.000008  -0.000000
     78      -0.076404  -0.000102  -0.000014
     79      -0.107702  -0.000062  -0.000030
     80      -0.067767  -0.000055  -0.000008
     81      -0.096474  -0.000114   0.000012
     82       0.100190   0.000065   0.000007
     83       0.137293   0.000097  -0.000005
     84      -0.251965   0.000059   0.000012
     85      -0.618755   0.000017   0.000019
     86       0.695719  -0.000054   0.000009


-----------
IR SPECTRUM
-----------

 Mode   freq       eps      Int      T**2         TX        TY        TZ
       cm**-1   L/(mol*cm) km/mol    a.u.
----------------------------------------------------------------------------
  6:     28.47   0.000406    2.05  0.004454  (-0.042012  0.031524  0.041174)
  7:     33.19   0.000665    3.36  0.006256  ( 0.072147 -0.004598 -0.032091)
  8:     41.36   0.000812    4.10  0.006126  (-0.026953 -0.057840 -0.045328)
  9:     59.93   0.000351    1.77  0.001828  ( 0.038264 -0.014939 -0.011848)
 10:     73.88   0.000483    2.44  0.002041  ( 0.029961  0.023043  0.024742)
 11:     89.41   0.000496    2.51  0.001732  ( 0.033784 -0.015408 -0.018786)
 12:     98.17   0.001085    5.48  0.003449  ( 0.027485 -0.002561  0.051837)
 13:    130.09   0.002740   13.85  0.006574  (-0.078807 -0.013895 -0.013054)
 14:    142.51   0.000360    1.82  0.000788  (-0.026041 -0.007376 -0.007440)
 15:    178.47   0.044613  225.46  0.078009  (-0.232512 -0.054641  0.144779)
 16:    199.81   0.000965    4.87  0.001506  ( 0.010871 -0.022688 -0.029556)
 17:    204.87   0.000064    0.33  0.000098  ( 0.002581 -0.001968 -0.009356)
 18:    221.98   0.002065   10.44  0.002904  ( 0.022610 -0.026693 -0.040986)
 19:    261.08   0.000229    1.16  0.000273  (-0.016265  0.001365  0.002648)
 20:    298.90   0.001914    9.67  0.001998  ( 0.041210 -0.014205 -0.009901)
 21:    341.52   0.000936    4.73  0.000855  ( 0.017285 -0.019640 -0.013060)
 22:    392.01   0.000263    1.33  0.000209  (-0.008421  0.002088 -0.011583)
 23:    397.26   0.002141   10.82  0.001682  (-0.040904 -0.002925 -0.000273)
 24:    416.91   0.000526    2.66  0.000394  (-0.019280  0.001891  0.004314)
 25:    440.19   0.000196    0.99  0.000139  (-0.007134  0.003795 -0.008572)
 26:    486.47   0.001179    5.96  0.000757  (-0.026271 -0.000453 -0.008138)
 27:    541.52   0.005543   28.01  0.003194  ( 0.052219  0.012243 -0.017823)
 28:    571.32   0.002734   13.82  0.001494  ( 0.014236  0.029130  0.021033)
 29:    580.94   0.003295   16.65  0.001770  ( 0.010680 -0.030146 -0.027332)
 30:    591.24   0.000780    3.94  0.000412  ( 0.009303  0.007237 -0.016511)
 31:    632.60   0.001079    5.45  0.000532  ( 0.019715  0.007973  0.008943)
 32:    639.83   0.001699    8.59  0.000829  ( 0.022076  0.010604 -0.015128)
 33:    695.40   0.002535   12.81  0.001138  (-0.027582  0.008231 -0.017580)
 34:    801.38   0.000733    3.71  0.000286  (-0.005771  0.007865 -0.013801)
 35:    828.61   0.000187    0.94  0.000070  (-0.007306  0.003611  0.001969)
 36:    859.10   0.001799    9.09  0.000653  ( 0.019579 -0.013306  0.009649)
 37:    964.90   0.000623    3.15  0.000202  (-0.001148  0.007513  0.011992)
 38:    990.61   0.001806    9.13  0.000569  (-0.021760 -0.004532  0.008649)
 39:   1006.05   0.010338   52.24  0.003207  (-0.044733  0.024590  0.024514)
 40:   1013.61   0.004684   23.67  0.001442  ( 0.001750 -0.036562 -0.010109)
 41:   1067.21   0.001612    8.14  0.000471  ( 0.010089  0.008318  0.017328)
 42:   1091.08   0.001318    6.66  0.000377  ( 0.007920 -0.014372  0.010371)
 43:   1096.63   0.001335    6.75  0.000380  ( 0.017582 -0.002598 -0.007996)
 44:   1117.86   0.001790    9.05  0.000500  ( 0.021927 -0.002777 -0.003361)
 45:   1136.52   0.000442    2.23  0.000121  (-0.001868 -0.007203  0.008126)
 46:   1164.57   0.035756  180.70  0.009581  (-0.092422 -0.012611  0.029673)
 47:   1185.72   0.001967    9.94  0.000518  ( 0.021826  0.001788  0.006178)
 48:   1246.23   0.005189   26.22  0.001299  (-0.033506  0.005625  0.012044)
 49:   1264.89   0.039545  199.84  0.009756  ( 0.056195 -0.074016 -0.033467)
 50:   1295.67   0.007959   40.22  0.001917  (-0.041538  0.002963 -0.013522)
 51:   1314.23   0.013357   67.50  0.003172  ( 0.011795  0.051930  0.018322)
 52:   1336.67   0.011663   58.94  0.002723  ( 0.049272  0.014557 -0.009127)
 53:   1377.70   0.000405    2.05  0.000092  (-0.000476  0.001783  0.009403)
 54:   1409.80   0.003983   20.13  0.000882  (-0.008261 -0.023811 -0.015698)
 55:   1412.94   0.011299   57.10  0.002496  ( 0.037988  0.030909  0.009854)
 56:   1447.83   0.014686   74.21  0.003165  ( 0.047988  0.012600 -0.026527)
 57:   1458.54   0.020934  105.79  0.004479  ( 0.064510 -0.013348 -0.011800)
 58:   1466.30   0.023023  116.35  0.004900  ( 0.024841 -0.058533 -0.029270)
 59:   1493.01   0.005450   27.54  0.001139  (-0.023753 -0.012102  0.020698)
 60:   1497.78   0.004065   20.54  0.000847  ( 0.010722 -0.026889  0.002983)
 61:   1501.49   0.003012   15.22  0.000626  (-0.000404  0.007524 -0.023857)
 62:   1521.90   0.002328   11.77  0.000477  (-0.017702  0.009142 -0.008972)
 63:   1522.32   0.001670    8.44  0.000342  ( 0.001300 -0.004177  0.017976)
 64:   1525.57   0.001318    6.66  0.000270  (-0.009529  0.013264 -0.001708)
 65:   1528.96   0.002462   12.44  0.000502  ( 0.011038 -0.019235  0.003252)
 66:   1532.18   0.002883   14.57  0.000587  ( 0.001778  0.010520  0.021756)
 67:   1563.27   0.007721   39.02  0.001541  ( 0.037951  0.003230 -0.009523)
 68:   1646.22   0.021370  108.00  0.004051  ( 0.015251  0.058216  0.020722)
 69:   1756.36   0.062250  314.59  0.011060  ( 0.053041  0.061932 -0.066419)
 70:   1773.12   0.036612  185.02  0.006444  ( 0.001440  0.078200  0.018062)
 71:   1811.84   0.056432  285.19  0.009720  ( 0.013558 -0.090794  0.035947)
 72:   3018.47   0.006402   32.35  0.000662  (-0.017107  0.004670  0.018640)
 73:   3024.65   0.006041   30.53  0.000623  ( 0.004717 -0.020993  0.012660)
 74:   3031.84   0.016796   84.88  0.001729  (-0.038769 -0.014812  0.002518)
 75:   3058.32   0.000973    4.92  0.000099  (-0.005206 -0.005113  0.006783)
 76:   3080.29   0.008466   42.78  0.000858  (-0.006281  0.020285  0.020167)
 77:   3089.27   0.004585   23.17  0.000463  (-0.009822  0.008527  0.017147)
 78:   3094.71   0.004844   24.48  0.000488  ( 0.013590  0.017058 -0.003581)
 79:   3125.00   0.001367    6.91  0.000137  ( 0.004810 -0.002986  0.010220)
 80:   3134.28   0.005311   26.84  0.000529  ( 0.020708 -0.009424 -0.003333)
 81:   3134.65   0.000637    3.22  0.000063  ( 0.004321  0.003645  0.005610)
 82:   3176.10   0.001540    7.78  0.000151  (-0.004279  0.011221  0.002669)
 83:   3176.80   0.001859    9.39  0.000183  (-0.011737  0.000197 -0.006695)
 84:   3189.90   0.000293    1.48  0.000029  (-0.003192  0.002866 -0.003207)
 85:   3584.93   0.007419   37.49  0.000646  (-0.004069 -0.024019 -0.007236)
 86:   3711.21   0.006650   33.61  0.000559  (-0.012672  0.004386 -0.019478)

* The epsilon (eps) is given for a Dirac delta lineshape.
** The dipole moment derivative (T) already includes vibrational overlap.

The first frequency considered to be a vibration is 6
The total number of vibrations considered is 81


--------------------------
THERMOCHEMISTRY AT 298.15K
--------------------------

Temperature         ... 298.15 K
Pressure            ... 1.00 atm
Total Mass          ... 201.23 AMU

Throughout the following assumptions are being made:
  (1) The electronic state is orbitally nondegenerate
  (2) There are no thermally accessible electronically excited states
  (3) Hindered rotations indicated by low frequency modes are not
      treated as such but are treated as vibrations and this may
      cause some error
  (4) All equations used are the standard statistical mechanics
      equations for an ideal gas
  (5) All vibrations are strictly harmonic

freq.      28.47  E(vib)   ...       0.55 
freq.      33.19  E(vib)   ...       0.55 
freq.      41.36  E(vib)   ...       0.54 
freq.      59.93  E(vib)   ...       0.51 
freq.      73.88  E(vib)   ...       0.49 
freq.      89.41  E(vib)   ...       0.47 
freq.      98.17  E(vib)   ...       0.46 
freq.     130.09  E(vib)   ...       0.43 
freq.     142.51  E(vib)   ...       0.41 
freq.     178.47  E(vib)   ...       0.37 
freq.     199.81  E(vib)   ...       0.35 
freq.     204.87  E(vib)   ...       0.35 
freq.     221.98  E(vib)   ...       0.33 
freq.     261.08  E(vib)   ...       0.30 
freq.     298.90  E(vib)   ...       0.26 
freq.     341.52  E(vib)   ...       0.23 
freq.     392.01  E(vib)   ...       0.20 
freq.     397.26  E(vib)   ...       0.20 
freq.     416.91  E(vib)   ...       0.18 
freq.     440.19  E(vib)   ...       0.17 
freq.     486.47  E(vib)   ...       0.15 
freq.     541.52  E(vib)   ...       0.12 
freq.     571.32  E(vib)   ...       0.11 
freq.     580.94  E(vib)   ...       0.11 
freq.     591.24  E(vib)   ...       0.10 
freq.     632.60  E(vib)   ...       0.09 
freq.     639.83  E(vib)   ...       0.09 
freq.     695.40  E(vib)   ...       0.07 
freq.     801.38  E(vib)   ...       0.05 
freq.     828.61  E(vib)   ...       0.04 
freq.     859.10  E(vib)   ...       0.04 
freq.     964.90  E(vib)   ...       0.03 
freq.     990.61  E(vib)   ...       0.02 
freq.    1006.05  E(vib)   ...       0.02 
freq.    1013.61  E(vib)   ...       0.02 
freq.    1067.21  E(vib)   ...       0.02 
freq.    1091.08  E(vib)   ...       0.02 
freq.    1096.63  E(vib)   ...       0.02 
freq.    1117.86  E(vib)   ...       0.01 
freq.    1136.52  E(vib)   ...       0.01 
freq.    1164.57  E(vib)   ...       0.01 
freq.    1185.72  E(vib)   ...       0.01 
freq.    1246.23  E(vib)   ...       0.01 
freq.    1264.89  E(vib)   ...       0.01 
freq.    1295.67  E(vib)   ...       0.01 
freq.    1314.23  E(vib)   ...       0.01 
freq.    1336.67  E(vib)   ...       0.01 
freq.    1377.70  E(vib)   ...       0.01 
freq.    1409.80  E(vib)   ...       0.00 
freq.    1412.94  E(vib)   ...       0.00 
freq.    1447.83  E(vib)   ...       0.00 
freq.    1458.54  E(vib)   ...       0.00 
freq.    1466.30  E(vib)   ...       0.00 
freq.    1493.01  E(vib)   ...       0.00 
freq.    1497.78  E(vib)   ...       0.00 
freq.    1501.49  E(vib)   ...       0.00 
freq.    1521.90  E(vib)   ...       0.00 
freq.    1522.32  E(vib)   ...       0.00 
freq.    1525.57  E(vib)   ...       0.00 
freq.    1528.96  E(vib)   ...       0.00 
freq.    1532.18  E(vib)   ...       0.00 
freq.    1563.27  E(vib)   ...       0.00 
freq.    1646.22  E(vib)   ...       0.00 
freq.    1756.36  E(vib)   ...       0.00 
freq.    1773.12  E(vib)   ...       0.00 
freq.    1811.84  E(vib)   ...       0.00 
freq.    3018.47  E(vib)   ...       0.00 
freq.    3024.65  E(vib)   ...       0.00 
freq.    3031.84  E(vib)   ...       0.00 
freq.    3058.32  E(vib)   ...       0.00 
freq.    3080.29  E(vib)   ...       0.00 
freq.    3089.27  E(vib)   ...       0.00 
freq.    3094.71  E(vib)   ...       0.00 
freq.    3125.00  E(vib)   ...       0.00 
freq.    3134.28  E(vib)   ...       0.00 
freq.    3134.65  E(vib)   ...       0.00 
freq.    3176.10  E(vib)   ...       0.00 
freq.    3176.80  E(vib)   ...       0.00 
freq.    3189.90  E(vib)   ...       0.00 
freq.    3584.93  E(vib)   ...       0.00 
freq.    3711.21  E(vib)   ...       0.00 

------------
INNER ENERGY
------------

The inner energy is: U= E(el) + E(ZPE) + E(vib) + E(rot) + E(trans)
    E(el)   - is the total energy from the electronic structure calculation
              = E(kin-el) + E(nuc-el) + E(el-el) + E(nuc-nuc)
    E(ZPE)  - the the zero temperature vibrational energy from the frequency calculation
    E(vib)  - the the finite temperature correction to E(ZPE) due to population
              of excited vibrational states
    E(rot)  - is the rotational thermal energy
    E(trans)- is the translational thermal energy

Summary of contributions to the inner energy U:
Electronic energy                ...   -703.47625933 Eh
Zero point energy                ...      0.24250742 Eh     152.18 kcal/mol
Thermal vibrational correction   ...      0.01373686 Eh       8.62 kcal/mol
Thermal rotational correction    ...      0.00141627 Eh       0.89 kcal/mol
Thermal translational correction ...      0.00141627 Eh       0.89 kcal/mol
-----------------------------------------------------------------------
Total thermal energy                   -703.21718251 Eh


Summary of corrections to the electronic energy:
(perhaps to be used in another calculation)
Total thermal correction                  0.01656941 Eh      10.40 kcal/mol
Non-thermal (ZPE) correction              0.24250742 Eh     152.18 kcal/mol
-----------------------------------------------------------------------
Total correction                          0.25907683 Eh     162.57 kcal/mol


--------
ENTHALPY
--------

The enthalpy is H = U + kB*T
                kB is Boltzmann's constant
Total free energy                 ...   -703.21718251 Eh 
Thermal Enthalpy correction       ...      0.00094421 Eh       0.59 kcal/mol
-----------------------------------------------------------------------
Total Enthalpy                    ...   -703.21623830 Eh


Note: Only C1 symmetry has been detected, increase convergence thresholds 
      if your molecule has a higher symmetry. Symmetry factor of 1.0 is   
      used for the rotational entropy correction. 
 

Note: Rotational entropy computed according to Herzberg 
Infrared and Raman Spectra, Chapter V,1, Van Nostrand Reinhold, 1945 
Point Group:  C1, Symmetry Number:   1  
Rotational constants in cm-1:     0.030790     0.014152     0.011758 

Vibrational entropy computed according to the QRRHO of S. Grimme
Chem.Eur.J. 2012 18 9955


-------
ENTROPY
-------

The entropy contributions are T*S = T*(S(el)+S(vib)+S(rot)+S(trans))
     S(el)   - electronic entropy
     S(vib)  - vibrational entropy
     S(rot)  - rotational entropy
     S(trans)- translational entropy
The entropies will be listed as multiplied by the temperature to get
units of energy

Electronic entropy                ...      0.00000000 Eh      0.00 kcal/mol
Vibrational entropy               ...      0.02504302 Eh     15.71 kcal/mol
Rotational entropy                ...      0.01526166 Eh      9.58 kcal/mol
Translational entropy             ...      0.01986158 Eh     12.46 kcal/mol
-----------------------------------------------------------------------
Final entropy term                ...      0.06016626 Eh     37.75 kcal/mol

In case the symmetry of your molecule has not been determined correctly
or in case you have a reason to use a different symmetry number we print 
out the resulting rotational entropy values for sn=1,12 :
 --------------------------------------------------------
|  sn= 1 | S(rot)=       0.01526166 Eh      9.58 kcal/mol|
|  sn= 2 | S(rot)=       0.01460720 Eh      9.17 kcal/mol|
|  sn= 3 | S(rot)=       0.01422437 Eh      8.93 kcal/mol|
|  sn= 4 | S(rot)=       0.01395275 Eh      8.76 kcal/mol|
|  sn= 5 | S(rot)=       0.01374206 Eh      8.62 kcal/mol|
|  sn= 6 | S(rot)=       0.01356991 Eh      8.52 kcal/mol|
|  sn= 7 | S(rot)=       0.01342437 Eh      8.42 kcal/mol|
|  sn= 8 | S(rot)=       0.01329829 Eh      8.34 kcal/mol|
|  sn= 9 | S(rot)=       0.01318708 Eh      8.28 kcal/mol|
|  sn=10 | S(rot)=       0.01308760 Eh      8.21 kcal/mol|
|  sn=11 | S(rot)=       0.01299761 Eh      8.16 kcal/mol|
|  sn=12 | S(rot)=       0.01291546 Eh      8.10 kcal/mol|
 --------------------------------------------------------


-------------------
GIBBS FREE ENERGY
-------------------

The Gibbs free energy is G = H - T*S

Total enthalpy                    ...   -703.21623830 Eh 
Total entropy correction          ...     -0.06016626 Eh    -37.75 kcal/mol
-----------------------------------------------------------------------
Final Gibbs free energy         ...   -703.27640456 Eh

For completeness - the Gibbs free energy minus the electronic energy
G-E(el)                           ...      0.19985478 Eh    125.41 kcal/mol


Timings for individual modules:

Sum of individual times         ...     2174.546 sec (=  36.242 min)
GTO integral calculation        ...       38.040 sec (=   0.634 min)   1.7 %
SCF iterations                  ...     1411.944 sec (=  23.532 min)  64.9 %
SCF Gradient evaluation         ...      437.684 sec (=   7.295 min)  20.1 %
Geometry relaxation             ...        2.500 sec (=   0.042 min)   0.1 %
Analytical frequency calculation...      284.378 sec (=   4.740 min)  13.1 %
                             ****ORCA TERMINATED NORMALLY****
TOTAL RUN TIME: 0 days 0 hours 36 minutes 28 seconds 117 msec
