
                                 *****************
                                 * O   R   C   A *
                                 *****************

                                            #,                                       
                                            ###                                      
                                            ####                                     
                                            #####                                    
                                            ######                                   
                                           ########,                                 
                                     ,,################,,,,,                         
                               ,,#################################,,                 
                          ,,##########################################,,             
                       ,#########################################, ''#####,          
                    ,#############################################,,   '####,        
                  ,##################################################,,,,####,       
                ,###########''''           ''''###############################       
              ,#####''   ,,,,##########,,,,          '''####'''          '####       
            ,##' ,,,,###########################,,,                        '##       
           ' ,,###''''                  '''############,,,                           
         ,,##''                                '''############,,,,        ,,,,,,###''
      ,#''                                            '''#######################'''  
     '                                                          ''''####''''         
             ,#######,   #######,   ,#######,      ##                                
            ,#'     '#,  ##    ##  ,#'     '#,    #''#        ######   ,####,        
            ##       ##  ##   ,#'  ##            #'  '#       #        #'  '#        
            ##       ##  #######   ##           ,######,      #####,   #    #        
            '#,     ,#'  ##    ##  '#,     ,#' ,#      #,         ##   #,  ,#        
             '#######'   ##     ##  '#######'  #'      '#     #####' # '####'        



                  #######################################################
                  #                        -***-                        #
                  #          Department of theory and spectroscopy      #
                  #    Directorship and core code : Frank Neese         #
                  #        Max Planck Institute fuer Kohlenforschung    #
                  #                Kaiser Wilhelm Platz 1               #
                  #                 D-45470 Muelheim/Ruhr               #
                  #                      Germany                        #
                  #                                                     #
                  #                  All rights reserved                #
                  #                        -***-                        #
                  #######################################################


                         Program Version 5.0.4 -  RELEASE  -


 With contributions from (in alphabetic order):
   Daniel Aravena         : Magnetic Suceptibility
   Michael Atanasov       : Ab Initio Ligand Field Theory (pilot matlab implementation)
   Alexander A. Auer      : GIAO ZORA, VPT2 properties, NMR spectrum
   Ute Becker             : Parallelization
   Giovanni Bistoni       : ED, misc. LED, open-shell LED, HFLD
   Martin Brehm           : Molecular dynamics
   Dmytro Bykov           : SCF Hessian
   Vijay G. Chilkuri      : MRCI spin determinant printing, contributions to CSF-ICE
   Dipayan Datta          : RHF DLPNO-CCSD density
   Achintya Kumar Dutta   : EOM-CC, STEOM-CC
   Dmitry Ganyushin       : Spin-Orbit,Spin-Spin,Magnetic field MRCI
   Miquel Garcia          : C-PCM and meta-GGA Hessian, CC/C-PCM, Gaussian charge scheme
   Yang Guo               : DLPNO-NEVPT2, F12-NEVPT2, CIM, IAO-localization
   Andreas Hansen         : Spin unrestricted coupled pair/coupled cluster methods
   Benjamin Helmich-Paris : MC-RPA, TRAH-SCF, COSX integrals
   Lee Huntington         : MR-EOM, pCC
   Robert Izsak           : Overlap fitted RIJCOSX, COSX-SCS-MP3, EOM
   Marcus Kettner         : VPT2
   Christian Kollmar      : KDIIS, OOCD, Brueckner-CCSD(T), CCSD density, CASPT2, CASPT2-K
   Simone Kossmann        : Meta GGA functionals, TD-DFT gradient, OOMP2, MP2 Hessian
   Martin Krupicka        : Initial AUTO-CI
   Lucas Lang             : DCDCAS
   Marvin Lechner         : AUTO-CI (C++ implementation), FIC-MRCC
   Dagmar Lenk            : GEPOL surface, SMD
   Dimitrios Liakos       : Extrapolation schemes; Compound Job, initial MDCI parallelization
   Dimitrios Manganas     : Further ROCIS development; embedding schemes
   Dimitrios Pantazis     : SARC Basis sets
   Anastasios Papadopoulos: AUTO-CI, single reference methods and gradients
   Taras Petrenko         : DFT Hessian,TD-DFT gradient, ASA, ECA, R-Raman, ABS, FL, XAS/XES, NRVS
   Peter Pinski           : DLPNO-MP2, DLPNO-MP2 Gradient
   Christoph Reimann      : Effective Core Potentials
   Marius Retegan         : Local ZFS, SOC
   Christoph Riplinger    : Optimizer, TS searches, QM/MM, DLPNO-CCSD(T), (RO)-DLPNO pert. Triples
   Tobias Risthaus        : Range-separated hybrids, TD-DFT gradient, RPA, STAB
   Michael Roemelt        : Original ROCIS implementation
   Masaaki Saitow         : Open-shell DLPNO-CCSD energy and density
   Barbara Sandhoefer     : DKH picture change effects
   Avijit Sen             : IP-ROCIS
   Kantharuban Sivalingam : CASSCF convergence, NEVPT2, FIC-MRCI
   Bernardo de Souza      : ESD, SOC TD-DFT
   Georgi Stoychev        : AutoAux, RI-MP2 NMR, DLPNO-MP2 response
   Willem Van den Heuvel  : Paramagnetic NMR
   Boris Wezisla          : Elementary symmetry handling
   Frank Wennmohs         : Technical directorship


 We gratefully acknowledge several colleagues who have allowed us to
 interface, adapt or use parts of their codes:
   Stefan Grimme, W. Hujo, H. Kruse, P. Pracht,  : VdW corrections, initial TS optimization,
                  C. Bannwarth, S. Ehlert          DFT functionals, gCP, sTDA/sTD-DF
   Ed Valeev, F. Pavosevic, A. Kumar             : LibInt (2-el integral package), F12 methods
   Garnet Chan, S. Sharma, J. Yang, R. Olivares  : DMRG
   Ulf Ekstrom                                   : XCFun DFT Library
   Mihaly Kallay                                 : mrcc  (arbitrary order and MRCC methods)
   Jiri Pittner, Ondrej Demel                    : Mk-CCSD
   Frank Weinhold                                : gennbo (NPA and NBO analysis)
   Christopher J. Cramer and Donald G. Truhlar   : smd solvation model
   Lars Goerigk                                  : TD-DFT with DH, B97 family of functionals
   V. Asgeirsson, H. Jonsson                     : NEB implementation
   FAccTs GmbH                                   : IRC, NEB, NEB-TS, DLPNO-Multilevel, CI-OPT
                                                   MM, QMMM, 2- and 3-layer-ONIOM, Crystal-QMMM,
                                                   LR-CPCM, SF, NACMEs, symmetry and pop. for TD-DFT,
                                                   nearIR, NL-DFT gradient (VV10), updates on ESD,
                                                   ML-optimized integration grids
   S Lehtola, MJT Oliveira, MAL Marques          : LibXC Library
   Liviu Ungur et al                             : ANISO software


 Your calculation uses the libint2 library for the computation of 2-el integrals
 For citations please refer to: http://libint.valeyev.net

 Your ORCA version has been built with support for libXC version: 5.1.0
 For citations please refer to: https://tddft.org/programs/libxc/

 This ORCA versions uses:
   CBLAS   interface :  Fast vector & matrix operations
   LAPACKE interface :  Fast linear algebra routines
   SCALAPACK package :  Parallel linear algebra routines
   Shared memory     :  Shared parallel matrices
   BLAS/LAPACK       :  OpenBLAS 0.3.15  USE64BITINT DYNAMIC_ARCH NO_AFFINITY SkylakeX SINGLE_THREADED
        Core in use  :  SkylakeX
   Copyright (c) 2011-2014, The OpenBLAS Project




***************************************
The coordinates will be read from file: /users/fjb15167/WWenergy/structures/Nw.xyz
***************************************


Your calculation utilizes the atom-pairwise dispersion correction
based on tight binding partial charges (D4)
Cite in your paper:
E.Caldeweyher, C.Bannwarth, S.Grimme, J.Chem.Phys., (2017), 147, 034112.
E.Caldeweyher, S.Ehlert, A.Hansen, H.Neugebauer, S.Grimme, J.Chem.Phys., (2018), in progress.
   

================================================================================

----- Orbital basis set information -----
Your calculation utilizes the basis: 6-31G(d)
   H-He, Li-Ne : W. J. Hehre, R. Ditchfield and J.A. Pople, J. Chem. Phys. 56, 2257 (1972).
                 Note: He and Ne are unpublished basis sets taken from the Gaussian program.
                 Note: Li and B from J. D. Dill and J. A. Pople, J. Chem. Phys. 62, 2921 (1975).
   Na - Ar     : M. M. Francl, W. J. Pietro, W. J. Hehre, J. S. Binkley, M. S. Gordon, 
                 D. J. DeFrees and J. A. Pople, J. Chem. Phys. 77, 3654 (1982).
   K - Zn      : V. A. Rassolov, J. A. Pople, M. A. Ratner, and T. L. Windus, J. Chem. Phys. 109, 1223 (1998).

----- AuxJ basis set information -----
Your calculation utilizes the AutoAux generation procedure.
  G. L. Stoychev, A. A. Auer, F. Neese, J. Chem. Theory Comput. 13, 554 (2017)

----- AuxC basis set information -----
Your calculation utilizes the AutoAux generation procedure.
  G. L. Stoychev, A. A. Auer, F. Neese, J. Chem. Theory Comput. 13, 554 (2017)

----- AuxJK basis set information -----
Your calculation utilizes the AutoAux generation procedure.
  G. L. Stoychev, A. A. Auer, F. Neese, J. Chem. Theory Comput. 13, 554 (2017)

================================================================================
                                        WARNINGS
                       Please study these warnings very carefully!
================================================================================


WARNING: Geometry Optimization
  ===> : Switching off AutoStart
         For restart on a previous wavefunction, please use MOREAD

INFO   : the flag for use of the SHARK integral package has been found!

================================================================================
                                       INPUT FILE
================================================================================
NAME = Nw_gas.inp
|  1> ! OPT FREQ B3LYP 6-31G(d) D4 AUTOAUX
|  2> 
|  3> %PAL NPROCS 4 END
|  4> 
|  5> %maxcore 3375
|  6> 
|  7> *xyzfile 0 1 /users/fjb15167/WWenergy/structures/Nw.xyz
|  8> 
|  9>                          ****END OF INPUT****
================================================================================

                       *****************************
                       * Geometry Optimization Run *
                       *****************************

Geometry optimization settings:
Update method            Update   .... BFGS
Choice of coordinates    CoordSys .... Z-matrix Internals
Initial Hessian          InHess   .... Almoef's Model

Convergence Tolerances:
Energy Change            TolE     ....  5.0000e-06 Eh
Max. Gradient            TolMAXG  ....  3.0000e-04 Eh/bohr
RMS Gradient             TolRMSG  ....  1.0000e-04 Eh/bohr
Max. Displacement        TolMAXD  ....  4.0000e-03 bohr
RMS Displacement         TolRMSD  ....  2.0000e-03 bohr
Strict Convergence                ....  False
------------------------------------------------------------------------------
                        ORCA OPTIMIZATION COORDINATE SETUP
------------------------------------------------------------------------------

The optimization will be done in new redundant internal coordinates
Making redundant internal coordinates   ...  (new redundants) done
Evaluating the initial hessian          ...  (Almloef) done
Evaluating the coordinates              ...  done
Calculating the B-matrix                .... done
Calculating the G-matrix                .... done
Diagonalizing the G-matrix              .... done
Small eigenvalue found = 2.717e-03
Small eigenvalue found = 9.632e-03
Small eigenvalue found = 1.079e-02
Small eigenvalue found = 1.465e-02
Small eigenvalue found = 2.332e-02
Small eigenvalue found = 2.969e-02
The first mode is                       ....   89
The number of degrees of freedom        ....  111

    -----------------------------------------------------------------
                    Redundant Internal Coordinates


    -----------------------------------------------------------------
         Definition                    Initial Value    Approx d2E/dq
    -----------------------------------------------------------------
      1. B(O   4,C   0)                  1.2382         0.977244   
      2. B(C   5,C   0)                  1.5171         0.391642   
      3. B(C   5,H   3)                  1.0894         0.360933   
      4. B(C   5,H   1)                  1.0934         0.355677   
      5. B(C   5,H   2)                  1.0945         0.354244   
      6. B(N   6,C   0)                  1.3780         0.584786   
      7. B(C   7,N   6)                  1.4624         0.428876   
      8. B(H   8,C   7)                  1.0961         0.352125   
      9. B(H   9,C   7)                  1.0936         0.355400   
     10. B(C  10,N   6)                  1.4703         0.416593   
     11. B(H  11,C  10)                  1.1013         0.345455   
     12. B(H  12,C  10)                  1.0907         0.359147   
     13. B(C  13,C  10)                  1.4900         0.432639   
     14. B(C  14,C  13)                  1.3769         0.655496   
     15. B(H  15,C  14)                  1.0828         0.369765   
     16. B(N  16,C  14)                  1.3737         0.594195   
     17. B(H  17,N  16)                  1.0104         0.432131   
     18. B(C  18,N  16)                  1.3808         0.578910   
     19. B(C  19,C  18)                  1.4229         0.553645   
     20. B(C  19,C  13)                  1.4324         0.534632   
     21. B(C  20,C  19)                  1.4086         0.583518   
     22. B(H  21,C  20)                  1.0880         0.362708   
     23. B(C  22,C  20)                  1.3895         0.625862   
     24. B(H  23,C  22)                  1.0879         0.362945   
     25. B(C  24,C  18)                  1.4002         0.601896   
     26. B(H  25,C  24)                  1.0883         0.362312   
     27. B(C  26,C  24)                  1.3896         0.625698   
     28. B(C  26,C  22)                  1.4121         0.576073   
     29. B(H  27,C  26)                  1.0873         0.363684   
     30. B(C  28,C   7)                  1.5319         0.370930   
     31. B(O  29,C  28)                  1.2406         0.968807   
     32. B(N  30,C  28)                  1.3608         0.622989   
     33. B(C  31,N  30)                  1.4526         0.444583   
     34. B(H  32,C  31)                  1.0962         0.351927   
     35. B(H  33,C  31)                  1.0959         0.352345   
     36. B(H  34,C  31)                  1.0874         0.363572   
     37. B(C  35,N  30)                  1.4535         0.443197   
     38. B(H  36,C  26)                  3.0559         0.000263   
     39. B(H  36,C  35)                  1.0952         0.353263   
     40. B(H  37,C  35)                  1.0884         0.362200   
     41. B(H  38,C  35)                  1.0963         0.351911   
     42. A(C   5,C   0,N   6)          118.0110         0.393376   
     43. A(O   4,C   0,C   5)          120.2192         0.430889   
     44. A(O   4,C   0,N   6)          121.7427         0.460282   
     45. A(H   2,C   5,H   3)          109.1369         0.290197   
     46. A(C   0,C   5,H   3)          106.6231         0.326972   
     47. A(H   1,C   5,H   3)          109.0560         0.290381   
     48. A(C   0,C   5,H   2)          111.9522         0.325967   
     49. A(C   0,C   5,H   1)          111.8029         0.326183   
     50. A(H   1,C   5,H   2)          108.2081         0.289530   
     51. A(C   0,N   6,C  10)          123.3831         0.395121   
     52. A(C   7,N   6,C  10)          115.3295         0.374374   
     53. A(C   0,N   6,C   7)          118.1128         0.397141   
     54. A(N   6,C   7,H   8)          109.5414         0.328572   
     55. A(H   8,C   7,H   9)          108.4523         0.289223   
     56. A(N   6,C   7,C  28)          116.0395         0.369279   
     57. A(H   9,C   7,C  28)          110.8000         0.323243   
     58. A(N   6,C   7,H   9)          107.1134         0.329075   
     59. A(H   8,C   7,C  28)          104.7007         0.322753   
     60. A(H  12,C  10,C  13)          110.3344         0.332122   
     61. A(H  11,C  10,C  13)          109.4853         0.329993   
     62. A(N   6,C  10,C  13)          111.6497         0.377311   
     63. A(H  11,C  10,H  12)          107.3208         0.288832   
     64. A(N   6,C  10,H  12)          108.7017         0.328068   
     65. A(N   6,C  10,H  11)          109.2427         0.325974   
     66. A(C  10,C  13,C  19)          126.9971         0.396589   
     67. A(C  14,C  13,C  19)          106.7009         0.426919   
     68. A(C  10,C  13,C  14)          126.1242         0.411111   
     69. A(H  15,C  14,N  16)          120.5659         0.349790   
     70. A(C  13,C  14,N  16)          109.7770         0.432248   
     71. A(C  13,C  14,H  15)          129.6116         0.357862   
     72. A(H  17,N  16,C  18)          125.1016         0.354435   
     73. A(C  14,N  16,C  18)          109.3142         0.419983   
     74. A(C  14,N  16,H  17)          124.7872         0.356006   
     75. A(N  16,C  18,C  19)          107.0717         0.417433   
     76. A(C  19,C  18,C  24)          122.5214         0.423089   
     77. A(N  16,C  18,C  24)          130.3731         0.423704   
     78. A(C  18,C  19,C  20)          118.8010         0.420753   
     79. A(C  13,C  19,C  20)          134.1014         0.418139   
     80. A(C  13,C  19,C  18)          107.0964         0.414247   
     81. A(H  21,C  20,C  22)          120.4342         0.353904   
     82. A(C  19,C  20,C  22)          118.8568         0.430088   
     83. A(C  19,C  20,H  21)          120.7043         0.349737   
     84. A(H  23,C  22,C  26)          119.1456         0.349019   
     85. A(C  20,C  22,C  26)          121.2504         0.429098   
     86. A(C  20,C  22,H  23)          119.6040         0.353943   
     87. A(H  25,C  24,C  26)          121.1649         0.353823   
     88. A(C  18,C  24,C  26)          117.2651         0.432470   
     89. A(C  18,C  24,H  25)          121.5643         0.351508   
     90. A(C  24,C  26,H  27)          119.4036         0.354049   
     91. A(C  22,C  26,H  27)          119.2940         0.349138   
     92. A(C  22,C  26,C  24)          121.2924         0.429078   
     93. A(O  29,C  28,N  30)          122.9174         0.464900   
     94. A(C   7,C  28,N  30)          118.0532         0.393994   
     95. A(C   7,C  28,O  29)          119.0103         0.426049   
     96. A(C  28,N  30,C  35)          118.9026         0.403919   
     97. A(C  31,N  30,C  35)          115.4060         0.380766   
     98. A(C  28,N  30,C  31)          125.6319         0.404142   
     99. A(H  33,C  31,H  34)          108.1635         0.290284   
    100. A(H  32,C  31,H  34)          109.5990         0.290230   
    101. A(N  30,C  31,H  34)          111.5690         0.332286   
    102. A(H  32,C  31,H  33)          108.4745         0.288806   
    103. A(N  30,C  31,H  33)          108.2441         0.330565   
    104. A(N  30,C  31,H  32)          110.6959         0.330500   
    105. A(H  37,C  35,H  38)          109.5066         0.290056   
    106. A(H  36,C  35,H  38)          109.2039         0.288922   
    107. A(N  30,C  35,H  38)          110.2190         0.330327   
    108. A(H  36,C  35,H  37)          109.9974         0.290230   
    109. A(N  30,C  35,H  37)          108.2149         0.331906   
    110. A(N  30,C  35,H  36)          109.6868         0.330536   
    111. D(H   1,C   5,C   0,N   6)    -65.2372         0.011406   
    112. D(H   2,C   5,C   0,N   6)     56.3696         0.011406   
    113. D(H   1,C   5,C   0,O   4)    116.6220         0.011406   
    114. D(H   2,C   5,C   0,O   4)   -121.7712         0.011406   
    115. D(H   3,C   5,C   0,N   6)    175.6577         0.011406   
    116. D(H   3,C   5,C   0,O   4)     -2.4831         0.011406   
    117. D(C   7,N   6,C   0,O   4)    -10.8439         0.027458   
    118. D(C  10,N   6,C   0,C   5)     12.1492         0.027458   
    119. D(C  10,N   6,C   0,O   4)   -169.7399         0.027458   
    120. D(C   7,N   6,C   0,C   5)    171.0452         0.027458   
    121. D(C  28,C   7,N   6,C   0)    125.6817         0.015682   
    122. D(H   9,C   7,N   6,C   0)      1.3510         0.015682   
    123. D(H   9,C   7,N   6,C  10)    161.9222         0.015682   
    124. D(H   8,C   7,N   6,C   0)   -116.0815         0.015682   
    125. D(C  28,C   7,N   6,C  10)    -73.7470         0.015682   
    126. D(H   8,C   7,N   6,C  10)     44.4898         0.015682   
    127. D(C  13,C  10,N   6,C   7)     60.7083         0.014800   
    128. D(C  13,C  10,N   6,C   0)   -139.8623         0.014800   
    129. D(H  12,C  10,N   6,C   7)   -177.3484         0.014800   
    130. D(H  12,C  10,N   6,C   0)    -17.9190         0.014800   
    131. D(H  11,C  10,N   6,C   0)     98.8942         0.014800   
    132. D(H  11,C  10,N   6,C   7)    -60.5352         0.014800   
    133. D(C  19,C  13,C  10,H  12)    -52.0104         0.013820   
    134. D(C  19,C  13,C  10,H  11)   -169.9101         0.013820   
    135. D(C  19,C  13,C  10,N   6)     68.9873         0.013820   
    136. D(C  14,C  13,C  10,H  12)    133.4923         0.013820   
    137. D(C  14,C  13,C  10,H  11)     15.5926         0.013820   
    138. D(C  14,C  13,C  10,N   6)   -105.5100         0.013820   
    139. D(N  16,C  14,C  13,C  10)    176.5587         0.029953   
    140. D(H  15,C  14,C  13,C  19)   -176.3690         0.029953   
    141. D(H  15,C  14,C  13,C  10)     -0.9552         0.029953   
    142. D(N  16,C  14,C  13,C  19)      1.1449         0.029953   
    143. D(C  18,N  16,C  14,H  15)    175.7845         0.028410   
    144. D(C  18,N  16,C  14,C  13)     -1.9913         0.028410   
    145. D(H  17,N  16,C  14,H  15)      5.5910         0.028410   
    146. D(H  17,N  16,C  14,C  13)   -172.1847         0.028410   
    147. D(C  24,C  18,N  16,H  17)     -9.9706         0.026873   
    148. D(C  24,C  18,N  16,C  14)    179.8741         0.026873   
    149. D(C  19,C  18,N  16,H  17)    172.1445         0.026873   
    150. D(C  19,C  18,N  16,C  14)      1.9892         0.026873   
    151. D(C  20,C  19,C  18,C  24)      0.3185         0.020979   
    152. D(C  13,C  19,C  18,C  24)   -179.3500         0.020979   
    153. D(C  13,C  19,C  18,N  16)     -1.2610         0.020979   
    154. D(C  20,C  19,C  13,C  14)   -179.5091         0.019519   
    155. D(C  20,C  19,C  13,C  10)      5.1293         0.019519   
    156. D(C  20,C  19,C  18,N  16)    178.4075         0.020979   
    157. D(C  18,C  19,C  13,C  14)      0.0864         0.019519   
    158. D(C  18,C  19,C  13,C  10)   -175.2752         0.019519   
    159. D(C  22,C  20,C  19,C  18)      0.2026         0.023406   
    160. D(C  22,C  20,C  19,C  13)    179.7614         0.023406   
    161. D(H  21,C  20,C  19,C  18)   -179.0108         0.023406   
    162. D(H  21,C  20,C  19,C  13)      0.5480         0.023406   
    163. D(C  26,C  22,C  20,H  21)    179.3024         0.027136   
    164. D(C  26,C  22,C  20,C  19)      0.0868         0.027136   
    165. D(H  23,C  22,C  20,H  21)     -0.7763         0.027136   
    166. D(H  23,C  22,C  20,C  19)   -179.9919         0.027136   
    167. D(C  26,C  24,C  18,C  19)     -1.0993         0.024983   
    168. D(C  26,C  24,C  18,N  16)   -178.7012         0.024983   
    169. D(H  25,C  24,C  18,C  19)    179.7589         0.024983   
    170. D(H  25,C  24,C  18,N  16)      2.1570         0.024983   
    171. D(H  27,C  26,C  22,C  20)   -179.7627         0.024741   
    172. D(C  24,C  26,C  22,H  23)    179.1610         0.024741   
    173. D(C  24,C  26,C  22,C  20)     -0.9174         0.024741   
    174. D(H  27,C  26,C  24,H  25)     -0.6275         0.029474   
    175. D(H  27,C  26,C  24,C  18)   -179.7729         0.029474   
    176. D(C  22,C  26,C  24,H  25)   -179.4716         0.029474   
    177. D(C  22,C  26,C  24,C  18)      1.3830         0.029474   
    178. D(H  27,C  26,C  22,H  23)      0.3157         0.024741   
    179. D(N  30,C  28,C   7,H   9)     65.6435         0.010300   
    180. D(N  30,C  28,C   7,H   8)   -177.6320         0.010300   
    181. D(N  30,C  28,C   7,N   6)    -56.7641         0.010300   
    182. D(O  29,C  28,C   7,H   9)   -112.8138         0.010300   
    183. D(O  29,C  28,C   7,H   8)      3.9107         0.010300   
    184. D(O  29,C  28,C   7,N   6)    124.7786         0.010300   
    185. D(C  35,N  30,C  28,O  29)     -9.7597         0.031451   
    186. D(C  35,N  30,C  28,C   7)    171.8475         0.031451   
    187. D(C  31,N  30,C  28,O  29)    173.1818         0.031451   
    188. D(C  31,N  30,C  28,C   7)     -5.2110         0.031451   
    189. D(H  34,C  31,N  30,C  35)    165.6520         0.016857   
    190. D(H  34,C  31,N  30,C  28)    -17.1988         0.016857   
    191. D(H  33,C  31,N  30,C  35)     46.7541         0.016857   
    192. D(H  33,C  31,N  30,C  28)   -136.0967         0.016857   
    193. D(H  32,C  31,N  30,C  35)    -72.0100         0.016857   
    194. D(H  32,C  31,N  30,C  28)    105.1392         0.016857   
    195. D(H  38,C  35,N  30,C  31)    -62.3580         0.016751   
    196. D(H  38,C  35,N  30,C  28)    120.2885         0.016751   
    197. D(H  37,C  35,N  30,C  31)    177.9186         0.016751   
    198. D(H  37,C  35,N  30,C  28)      0.5651         0.016751   
    199. D(H  36,C  35,N  30,C  31)     57.9115         0.016751   
    200. D(H  36,C  35,N  30,C  28)   -119.4419         0.016751   
    -----------------------------------------------------------------

Number of atoms                         .... 39
Number of degrees of freedom            .... 200

         *************************************************************
         *                GEOMETRY OPTIMIZATION CYCLE   1            *
         *************************************************************
---------------------------------
CARTESIAN COORDINATES (ANGSTROEM)
---------------------------------
  C      3.318000    0.024000   -0.235000
  H      3.980000    0.956000   -2.085000
  H      3.118000    2.055000   -0.994000
  H      4.764000    1.513000   -0.590000
  O      4.002000   -0.436000    0.689000
  C      3.816000    1.213000   -1.035000
  N      2.078000   -0.491000   -0.545000
  C      1.679000   -1.751000    0.081000
  H      1.554000   -2.520000   -0.690000
  H      2.495000   -2.054000    0.743000
  C      1.331000   -0.127000   -1.758000
  H      1.475000   -0.908000   -2.521000
  H      1.745000    0.799000   -2.159000
  C     -0.124000    0.034000   -1.480000
  C     -1.120000   -0.850000   -1.830000
  H     -1.053000   -1.789000   -2.365000
  N     -2.326000   -0.408000   -1.343000
  H     -3.187000   -0.936000   -1.370000
  C     -2.130000    0.755000   -0.625000
  C     -0.745000    1.070000   -0.710000
  C     -0.276000    2.242000   -0.085000
  H      0.774000    2.521000   -0.144000
  C     -1.181000    3.047000    0.596000
  H     -0.832000    3.955000    1.083000
  C     -3.047000    1.569000    0.051000
  H     -4.104000    1.315000    0.103000
  C     -2.550000    2.709000    0.671000
  H     -3.231000    3.364000    1.209000
  C      0.345000   -1.735000    0.834000
  O     -0.528000   -2.562000    0.529000
  N      0.186000   -0.827000    1.835000
  C      1.213000    0.071000    2.334000
  H      1.038000    1.094000    1.981000
  H      1.168000    0.069000    3.429000
  H      2.207000   -0.253000    2.035000
  C     -1.126000   -0.672000    2.441000
  H     -1.479000    0.355000    2.299000
  H     -1.808000   -1.370000    1.959000
  H     -1.076000   -0.891000    3.514000

----------------------------
CARTESIAN COORDINATES (A.U.)
----------------------------
  NO LB      ZA    FRAG     MASS         X           Y           Z
   0 C     6.0000    0    12.011    6.270111    0.045353   -0.444086
   1 H     1.0000    0     1.008    7.521110    1.806578   -3.940079
   2 H     1.0000    0     1.008    5.892166    3.883387   -1.878388
   3 H     1.0000    0     1.008    9.002655    2.859156   -1.114938
   4 O     8.0000    0    15.999    7.562684   -0.823921    1.302021
   5 C     6.0000    0    12.011    7.211195    2.292238   -1.955867
   6 N     7.0000    0    14.007    3.926851   -0.927856   -1.029901
   7 C     6.0000    0    12.011    3.172850   -3.308910    0.153068
   8 H     1.0000    0     1.008    2.936634   -4.762110   -1.303911
   9 H     1.0000    0     1.008    4.714867   -3.881497    1.404067
  10 C     6.0000    0    12.011    2.515225   -0.239995   -3.322139
  11 H     1.0000    0     1.008    2.787346   -1.715871   -4.764000
  12 H     1.0000    0     1.008    3.297572    1.509891   -4.079919
  13 C     6.0000    0    12.011   -0.234326    0.064251   -2.796795
  14 C     6.0000    0    12.011   -2.116493   -1.606267   -3.458199
  15 H     1.0000    0     1.008   -1.989882   -3.380720   -4.469202
  16 N     7.0000    0    14.007   -4.395503   -0.771008   -2.537902
  17 H     1.0000    0     1.008   -6.022557   -1.768784   -2.588925
  18 C     6.0000    0    12.011   -4.025117    1.426743   -1.181079
  19 C     6.0000    0    12.011   -1.407846    2.022007   -1.341706
  20 C     6.0000    0    12.011   -0.521564    4.236766   -0.160627
  21 H     1.0000    0     1.008    1.462648    4.764000   -0.272121
  22 C     6.0000    0    12.011   -2.231767    5.757996    1.126277
  23 H     1.0000    0     1.008   -1.572252    7.473867    2.046573
  24 C     6.0000    0    12.011   -5.757996    2.964980    0.096376
  25 H     1.0000    0     1.008   -7.755436    2.484990    0.194642
  26 C     6.0000    0    12.011   -4.818802    5.119268    1.268006
  27 H     1.0000    0     1.008   -6.105705    6.357039    2.284679
  28 C     6.0000    0    12.011    0.651956   -3.278675    1.576032
  29 O     8.0000    0    15.999   -0.997775   -4.841478    0.999665
  30 N     7.0000    0    14.007    0.351489   -1.562804    3.467647
  31 C     6.0000    0    12.011    2.292238    0.134171    4.410621
  32 H     1.0000    0     1.008    1.961536    2.067360    3.743547
  33 H     1.0000    0     1.008    2.207200    0.130391    6.479871
  34 H     1.0000    0     1.008    4.170626   -0.478101    3.845593
  35 C     6.0000    0    12.011   -2.127832   -1.269896    4.612821
  36 H     1.0000    0     1.008   -2.794905    0.670853    4.344480
  37 H     1.0000    0     1.008   -3.416625   -2.588925    3.701973
  38 H     1.0000    0     1.008   -2.033345   -1.683746    6.640498

--------------------------------
INTERNAL COORDINATES (ANGSTROEM)
--------------------------------
 C      0   0   0     0.000000000000     0.00000000     0.00000000
 H      1   0   0     2.174711015285     0.00000000     0.00000000
 H      2   1   0     1.772322205469    66.04806609     0.00000000
 H      2   1   3     1.777619194316    63.45522798    67.25625916
 O      1   2   3     1.238237457033   128.74508568   245.66165388
 C      4   2   1     1.089370919384    35.54668729   320.10883170
 N      1   2   3     1.378014876552   104.04674954    92.01055946
 C      7   1   2     1.462421621831   118.11284795   145.13627104
 H      8   7   1     1.096096254897   109.54140020   243.91853752
 H      8   7   1     1.093576243341   107.11342935     1.35095514
 C      7   1   2     1.470331255194   123.38306088   346.24026642
 H     11   7   1     1.101301956777   109.24272790    98.89423151
 H     11   7   1     1.090721320962   108.70169754   342.08102903
 C     11   7   1     1.490043623522   111.64969521   220.13771112
 C     14  11   7     1.376942990832   126.12415632   254.49003157
 H     15  14  11     1.082790376758   129.61160595   359.04484520
 N     15  14  11     1.373669902124   109.77704755   176.55866857
 H     17  15  14     1.010363300996   124.78715160   187.81530014
 C     17  15  14     1.380763918996   109.31423648   358.00871789
 C     19  17  15     1.422910749134   107.07171350     1.98918190
 C     20  19  17     1.408605693585   118.80102392   178.40751944
 H     21  20  19     1.088035844998   120.70426259   180.98916555
 C     21  20  19     1.389536253575   118.85678180     0.20258828
 H     23  21  20     1.087857527436   119.60396020   180.00810737
 C     19  17  15     1.400164633177   130.37314781   179.87405699
 H     25  19  17     1.088333129148   121.56431145     2.15702402
 C     25  19  17     1.389607498541   117.26507946   181.29876780
 H     27  25  19     1.087304005327   119.40364994   180.22706735
 C      8   7   1     1.531933745304   116.03946266   125.68169654
 O     29   8   7     1.240597839753   119.01026123   124.77864212
 N     29   8   7     1.360788741870   118.05320068   303.23594299
 C     31  29   8     1.452630028603   125.63188885   354.78902196
 H     32  31  29     1.096249515393   110.69587549   105.13924386
 H     32  31  29     1.095926092399   108.24412620   223.90331220
 H     32  31  29     1.087388155168   111.56900827   342.80119653
 C     31  29   8     1.453480306024   118.90263443   171.84749903
 H     36  31  29     1.095217786561   109.68679769   240.55806123
 H     36  31  29     1.088417199423   108.21488289     0.56514748
 H     36  31  29     1.096261830039   110.21902771   120.28850892

---------------------------
INTERNAL COORDINATES (A.U.)
---------------------------
 C      0   0   0     0.000000000000     0.00000000     0.00000000
 H      1   0   0     4.109608239310     0.00000000     0.00000000
 H      2   1   0     3.349203589405    66.04806609     0.00000000
 H      2   1   3     3.359213447659    63.45522798    67.25625916
 O      1   2   3     2.339929682556   128.74508568   245.66165388
 C      4   2   1     2.058612695894    35.54668729   320.10883170
 N      1   2   3     2.604070725154   104.04674954    92.01055946
 C      7   1   2     2.763576357586   118.11284795   145.13627104
 H      8   7   1     2.071321738173   109.54140020   243.91853752
 H      8   7   1     2.066559606477   107.11342935     1.35095514
 C      7   1   2     2.778523398461   123.38306088   346.24026642
 H     11   7   1     2.081159089059   109.24272790    98.89423151
 H     11   7   1     2.061164585046   108.70169754   342.08102903
 C     11   7   1     2.815774376053   111.64969521   220.13771112
 C     14  11   7     2.602045154694   126.12415632   254.49003157
 H     15  14  11     2.046177272518   129.61160595   359.04484520
 N     15  14  11     2.595859913424   109.77704755   176.55866857
 H     17  15  14     1.909309934648   124.78715160   187.81530014
 C     17  15  14     2.609265662501   109.31423648   358.00871789
 C     19  17  15     2.688911628875   107.07171350     1.98918190
 C     20  19  17     2.661878991558   118.80102392   178.40751944
 H     21  20  19     2.056089770935   120.70426259   180.98916555
 C     21  20  19     2.625842972412   118.85678180     0.20258828
 H     23  21  20     2.055752799579   119.60396020   180.00810737
 C     19  17  15     2.645927699107   130.37314781   179.87405699
 H     25  19  17     2.056651556562   121.56431145     2.15702402
 C     25  19  17     2.625977605885   117.26507946   181.29876780
 H     27  25  19     2.054706794384   119.40364994   180.22706735
 C      8   7   1     2.894935233936   116.03946266   125.68169654
 O     29   8   7     2.344390159468   119.01026123   124.77864212
 N     29   8   7     2.571518048257   118.05320068   303.23594299
 C     31  29   8     2.745072927970   125.63188885   354.78902196
 H     32  31  29     2.071611358537   110.69587549   105.13924386
 H     32  31  29     2.071000177652   108.24412620   223.90331220
 H     32  31  29     2.054865814538   111.56900827   342.80119653
 C     31  29   8     2.746679719434   118.90263443   171.84749903
 H     36  31  29     2.069661673600   109.68679769   240.55806123
 H     36  31  29     2.056810426359   108.21488289     0.56514748
 H     36  31  29     2.071634629845   110.21902771   120.28850892

---------------------
BASIS SET INFORMATION
---------------------
There are 4 groups of distinct atoms

 Group   1 Type C   : 10s4p1d contracted to 3s2p1d pattern {631/31/1}
 Group   2 Type H   : 4s contracted to 2s pattern {31}
 Group   3 Type O   : 10s4p1d contracted to 3s2p1d pattern {631/31/1}
 Group   4 Type N   : 10s4p1d contracted to 3s2p1d pattern {631/31/1}

Atom   0C    basis set group =>   1
Atom   1H    basis set group =>   2
Atom   2H    basis set group =>   2
Atom   3H    basis set group =>   2
Atom   4O    basis set group =>   3
Atom   5C    basis set group =>   1
Atom   6N    basis set group =>   4
Atom   7C    basis set group =>   1
Atom   8H    basis set group =>   2
Atom   9H    basis set group =>   2
Atom  10C    basis set group =>   1
Atom  11H    basis set group =>   2
Atom  12H    basis set group =>   2
Atom  13C    basis set group =>   1
Atom  14C    basis set group =>   1
Atom  15H    basis set group =>   2
Atom  16N    basis set group =>   4
Atom  17H    basis set group =>   2
Atom  18C    basis set group =>   1
Atom  19C    basis set group =>   1
Atom  20C    basis set group =>   1
Atom  21H    basis set group =>   2
Atom  22C    basis set group =>   1
Atom  23H    basis set group =>   2
Atom  24C    basis set group =>   1
Atom  25H    basis set group =>   2
Atom  26C    basis set group =>   1
Atom  27H    basis set group =>   2
Atom  28C    basis set group =>   1
Atom  29O    basis set group =>   3
Atom  30N    basis set group =>   4
Atom  31C    basis set group =>   1
Atom  32H    basis set group =>   2
Atom  33H    basis set group =>   2
Atom  34H    basis set group =>   2
Atom  35C    basis set group =>   1
Atom  36H    basis set group =>   2
Atom  37H    basis set group =>   2
Atom  38H    basis set group =>   2
---------------------------------
AUXILIARY/J BASIS SET INFORMATION
---------------------------------
There are 4 groups of distinct atoms

 Group   1 Type C   : 13s11p10d2f contracted to 13s11p10d2f pattern {1111111111111/11111111111/1111111111/11}
 Group   2 Type H   : 9s2p contracted to 9s2p pattern {111111111/11}
 Group   3 Type O   : 14s11p10d2f contracted to 14s11p10d2f pattern {11111111111111/11111111111/1111111111/11}
 Group   4 Type N   : 14s11p10d2f contracted to 14s11p10d2f pattern {11111111111111/11111111111/1111111111/11}

Atom   0C    basis set group =>   1
Atom   1H    basis set group =>   2
Atom   2H    basis set group =>   2
Atom   3H    basis set group =>   2
Atom   4O    basis set group =>   3
Atom   5C    basis set group =>   1
Atom   6N    basis set group =>   4
Atom   7C    basis set group =>   1
Atom   8H    basis set group =>   2
Atom   9H    basis set group =>   2
Atom  10C    basis set group =>   1
Atom  11H    basis set group =>   2
Atom  12H    basis set group =>   2
Atom  13C    basis set group =>   1
Atom  14C    basis set group =>   1
Atom  15H    basis set group =>   2
Atom  16N    basis set group =>   4
Atom  17H    basis set group =>   2
Atom  18C    basis set group =>   1
Atom  19C    basis set group =>   1
Atom  20C    basis set group =>   1
Atom  21H    basis set group =>   2
Atom  22C    basis set group =>   1
Atom  23H    basis set group =>   2
Atom  24C    basis set group =>   1
Atom  25H    basis set group =>   2
Atom  26C    basis set group =>   1
Atom  27H    basis set group =>   2
Atom  28C    basis set group =>   1
Atom  29O    basis set group =>   3
Atom  30N    basis set group =>   4
Atom  31C    basis set group =>   1
Atom  32H    basis set group =>   2
Atom  33H    basis set group =>   2
Atom  34H    basis set group =>   2
Atom  35C    basis set group =>   1
Atom  36H    basis set group =>   2
Atom  37H    basis set group =>   2
Atom  38H    basis set group =>   2
---------------------------------
AUXILIARY/C BASIS SET INFORMATION
---------------------------------
There are 4 groups of distinct atoms

 Group   1 Type C   : 13s11p10d2f contracted to 13s11p10d2f pattern {1111111111111/11111111111/1111111111/11}
 Group   2 Type H   : 9s2p contracted to 9s2p pattern {111111111/11}
 Group   3 Type O   : 14s11p10d2f contracted to 14s11p10d2f pattern {11111111111111/11111111111/1111111111/11}
 Group   4 Type N   : 14s11p10d2f contracted to 14s11p10d2f pattern {11111111111111/11111111111/1111111111/11}

Atom   0C    basis set group =>   1
Atom   1H    basis set group =>   2
Atom   2H    basis set group =>   2
Atom   3H    basis set group =>   2
Atom   4O    basis set group =>   3
Atom   5C    basis set group =>   1
Atom   6N    basis set group =>   4
Atom   7C    basis set group =>   1
Atom   8H    basis set group =>   2
Atom   9H    basis set group =>   2
Atom  10C    basis set group =>   1
Atom  11H    basis set group =>   2
Atom  12H    basis set group =>   2
Atom  13C    basis set group =>   1
Atom  14C    basis set group =>   1
Atom  15H    basis set group =>   2
Atom  16N    basis set group =>   4
Atom  17H    basis set group =>   2
Atom  18C    basis set group =>   1
Atom  19C    basis set group =>   1
Atom  20C    basis set group =>   1
Atom  21H    basis set group =>   2
Atom  22C    basis set group =>   1
Atom  23H    basis set group =>   2
Atom  24C    basis set group =>   1
Atom  25H    basis set group =>   2
Atom  26C    basis set group =>   1
Atom  27H    basis set group =>   2
Atom  28C    basis set group =>   1
Atom  29O    basis set group =>   3
Atom  30N    basis set group =>   4
Atom  31C    basis set group =>   1
Atom  32H    basis set group =>   2
Atom  33H    basis set group =>   2
Atom  34H    basis set group =>   2
Atom  35C    basis set group =>   1
Atom  36H    basis set group =>   2
Atom  37H    basis set group =>   2
Atom  38H    basis set group =>   2
----------------------------------
AUXILIARY/JK BASIS SET INFORMATION
----------------------------------
There are 4 groups of distinct atoms

 Group   1 Type C   : 13s11p10d2f contracted to 13s11p10d2f pattern {1111111111111/11111111111/1111111111/11}
 Group   2 Type H   : 9s2p contracted to 9s2p pattern {111111111/11}
 Group   3 Type O   : 14s11p10d2f contracted to 14s11p10d2f pattern {11111111111111/11111111111/1111111111/11}
 Group   4 Type N   : 14s11p10d2f contracted to 14s11p10d2f pattern {11111111111111/11111111111/1111111111/11}

Atom   0C    basis set group =>   1
Atom   1H    basis set group =>   2
Atom   2H    basis set group =>   2
Atom   3H    basis set group =>   2
Atom   4O    basis set group =>   3
Atom   5C    basis set group =>   1
Atom   6N    basis set group =>   4
Atom   7C    basis set group =>   1
Atom   8H    basis set group =>   2
Atom   9H    basis set group =>   2
Atom  10C    basis set group =>   1
Atom  11H    basis set group =>   2
Atom  12H    basis set group =>   2
Atom  13C    basis set group =>   1
Atom  14C    basis set group =>   1
Atom  15H    basis set group =>   2
Atom  16N    basis set group =>   4
Atom  17H    basis set group =>   2
Atom  18C    basis set group =>   1
Atom  19C    basis set group =>   1
Atom  20C    basis set group =>   1
Atom  21H    basis set group =>   2
Atom  22C    basis set group =>   1
Atom  23H    basis set group =>   2
Atom  24C    basis set group =>   1
Atom  25H    basis set group =>   2
Atom  26C    basis set group =>   1
Atom  27H    basis set group =>   2
Atom  28C    basis set group =>   1
Atom  29O    basis set group =>   3
Atom  30N    basis set group =>   4
Atom  31C    basis set group =>   1
Atom  32H    basis set group =>   2
Atom  33H    basis set group =>   2
Atom  34H    basis set group =>   2
Atom  35C    basis set group =>   1
Atom  36H    basis set group =>   2
Atom  37H    basis set group =>   2
Atom  38H    basis set group =>   2


           ************************************************************
           *        Program running with 4 parallel MPI-processes     *
           *              working on a common directory               *
           ************************************************************
------------------------------------------------------------------------------
                           ORCA GTO INTEGRAL CALCULATION
                           -- RI-GTO INTEGRALS CHOSEN --
------------------------------------------------------------------------------
------------------------------------------------------------------------------
                   ___                                                        
                  /   \      - P O W E R E D   B Y -                         
                 /     \                                                     
                 |  |  |   _    _      __       _____    __    __             
                 |  |  |  | |  | |    /  \     |  _  \  |  |  /  |          
                  \  \/   | |  | |   /    \    | | | |  |  | /  /          
                 / \  \   | |__| |  /  /\  \   | |_| |  |  |/  /          
                |  |  |   |  __  | /  /__\  \  |    /   |      \           
                |  |  |   | |  | | |   __   |  |    \   |  |\   \          
                \     /   | |  | | |  |  |  |  | |\  \  |  | \   \       
                 \___/    |_|  |_| |__|  |__|  |_| \__\ |__|  \__/        
                                                                              
                      - O R C A' S   B I G   F R I E N D -                    
                                      &                                       
                       - I N T E G R A L  F E E D E R -                       
                                                                              
 v1 FN, 2020, v2 2021                                                         
------------------------------------------------------------------------------


Reading SHARK input file Nw_gas.SHARKINP.tmp ... ok
----------------------
SHARK INTEGRAL PACKAGE
----------------------

Number of atoms                             ...     39
Number of basis functions                   ...    318
Number of shells                            ...    158
Maximum angular momentum                    ...      2
Integral batch strategy                     ... SHARK/LIBINT Hybrid
RI-J (if used) integral strategy            ... SPLIT-RIJ (Revised 2003 algorithm where possible)
Printlevel                                  ...      1
Contraction scheme used                     ... SEGMENTED contraction
Coulomb Range Separation                    ... NOT USED
Exchange Range Separation                   ... NOT USED
Finite Nucleus Model                        ... NOT USED
Auxiliary Coulomb fitting basis             ... AVAILABLE
   # of basis functions in Aux-J            ...   2490
   # of shells in Aux-J                     ...    934
   Maximum angular momentum in Aux-J        ...      3
Auxiliary J/K fitting basis                 ... AVAILABLE
   # of basis functions in Aux-JK           ...   2490
   # of shells in Aux-JK                    ...    934
   Maximum angular momentum in Aux-JK       ...      3
Auxiliary Correlation fitting basis         ... AVAILABLE
   # of basis functions in Aux-C            ...   2490
   # of shells in Aux-C                     ...    934
   Maximum angular momentum in Aux-C        ...      3
Auxiliary 'external' fitting basis          ... NOT available
Integral threshold                          ...     2.500000e-11
Primitive cut-off                           ...     2.500000e-12
Primitive pair pre-selection threshold      ...     2.500000e-12

Calculating pre-screening integrals         ... done (  0.1 sec) Dimension = 158
Organizing shell pair data                  ... done (  0.9 sec)
Shell pair information
Total number of shell pairs                 ...     12561
Shell pairs after pre-screening             ...     10599
Total number of primitive shell pairs       ...     71353
Primitive shell pairs kept                  ...     33710
          la=0 lb=0:   3893 shell pairs
          la=1 lb=0:   3510 shell pairs
          la=1 lb=1:    788 shell pairs
          la=2 lb=0:   1516 shell pairs
          la=2 lb=1:    726 shell pairs
          la=2 lb=2:    166 shell pairs

Calculating one electron integrals          ... done (  0.0 sec)
Calculating RI/J V-Matrix + Cholesky decomp.... done (  0.4 sec)
Calculating RI/JK V-Matrix + Cholesky decomp... done (  0.4 sec)
Calculating RI/C V-Matrix + Cholesky decomp.... done (  0.4 sec)
Calculating Nuclear repulsion               ... done (  0.0 sec) ENN=   1670.265646637863 Eh

SHARK setup successfully completed in   2.4 seconds

Maximum memory used throughout the entire GTOINT-calculation: 52.1 MB


           ************************************************************
           *        Program running with 4 parallel MPI-processes     *
           *              working on a common directory               *
           ************************************************************
-------------------------------------------------------------------------------
                                 ORCA SCF
-------------------------------------------------------------------------------

------------
SCF SETTINGS
------------
Hamiltonian:
 Density Functional     Method          .... DFT(GTOs)
 Exchange Functional    Exchange        .... B88
   X-Alpha parameter    XAlpha          ....  0.666667
   Becke's b parameter  XBeta           ....  0.004200
 Correlation Functional Correlation     .... LYP
 LDA part of GGA corr.  LDAOpt          .... VWN-5
 Gradients option       PostSCFGGA      .... off
 Hybrid DFT is turned on
   Fraction HF Exchange ScalHFX         ....  0.200000
   Scaling of DF-GGA-X  ScalDFX         ....  0.720000
   Scaling of DF-GGA-C  ScalDFC         ....  0.810000
   Scaling of DF-LDA-C  ScalLDAC        ....  1.000000
   Perturbative correction              ....  0.000000
   Density functional embedding theory  .... OFF
   NL short-range parameter             ....  4.800000
 RI-approximation to the Coulomb term is turned on
   Number of AuxJ basis functions       .... 2490
   RIJ-COSX (HFX calculated with COS-X)).... on


General Settings:
 Integral files         IntName         .... Nw_gas
 Hartree-Fock type      HFTyp           .... RHF
 Total Charge           Charge          ....    0
 Multiplicity           Mult            ....    1
 Number of Electrons    NEL             ....  146
 Basis Dimension        Dim             ....  318
 Nuclear Repulsion      ENuc            ....   1670.2656466379 Eh

Convergence Acceleration:
 DIIS                   CNVDIIS         .... on
   Start iteration      DIISMaxIt       ....    12
   Startup error        DIISStart       ....  0.200000
   # of expansion vecs  DIISMaxEq       ....     5
   Bias factor          DIISBfac        ....   1.050
   Max. coefficient     DIISMaxC        ....  10.000
 Trust-Rad. Augm. Hess. CNVTRAH         .... auto
   Auto Start mean grad. ratio tolernc. ....  1.125000
   Auto Start start iteration           ....    20
   Auto Start num. interpolation iter.  ....    10
   Max. Number of Micro iterations      ....    16
   Max. Number of Macro iterations      .... Maxiter - #DIIS iter
   Number of Davidson start vectors     ....     2
   Converg. threshold I  (grad. norm)   ....   1.000e-05
   Converg. threshold II (energy diff.) ....   1.000e-08
   Grad. Scal. Fac. for Micro threshold ....   0.100
   Minimum threshold for Micro iter.    ....   0.010
   NR start threshold (gradient norm)   ....   0.001
   Initial trust radius                 ....   0.400
   Minimum AH scaling param. (alpha)    ....   1.000
   Maximum AH scaling param. (alpha)    .... 1000.000
   Orbital update algorithm             .... Taylor
   White noise on init. David. guess    .... on
   Maximum white noise                  ....   0.010
   Quad. conv. algorithm                .... NR
 SOSCF                  CNVSOSCF        .... on
   Start iteration      SOSCFMaxIt      ....   150
   Startup grad/error   SOSCFStart      ....  0.003300
 Level Shifting         CNVShift        .... on
   Level shift para.    LevelShift      ....    0.2500
   Turn off err/grad.   ShiftErr        ....    0.0010
 Zerner damping         CNVZerner       .... off
 Static damping         CNVDamp         .... on
   Fraction old density DampFac         ....    0.7000
   Max. Damping (<1)    DampMax         ....    0.9800
   Min. Damping (>=0)   DampMin         ....    0.0000
   Turn off err/grad.   DampErr         ....    0.1000
 Fernandez-Rico         CNVRico         .... off

SCF Procedure:
 Maximum # iterations   MaxIter         ....   125
 SCF integral mode      SCFMode         .... Direct
   Integral package                     .... SHARK and LIBINT hybrid scheme
 Reset frequency        DirectResetFreq ....    20
 Integral Threshold     Thresh          ....  2.500e-11 Eh
 Primitive CutOff       TCut            ....  2.500e-12 Eh

Convergence Tolerance:
 Convergence Check Mode ConvCheckMode   .... Total+1el-Energy
 Convergence forced     ConvForced      .... 0
 Energy Change          TolE            ....  1.000e-08 Eh
 1-El. energy change                    ....  1.000e-05 Eh
 Orbital Gradient       TolG            ....  1.000e-05
 Orbital Rotation angle TolX            ....  1.000e-05
 DIIS Error             TolErr          ....  5.000e-07


Diagonalization of the overlap matrix:
Smallest eigenvalue                        ... 3.707e-04
Time for diagonalization                   ...    0.016 sec
Threshold for overlap eigenvalues          ... 1.000e-08
Number of eigenvalues below threshold      ... 0
Time for construction of square roots      ...    0.008 sec
Total time needed                          ...    0.025 sec

Time for model grid setup =    0.421 sec

------------------------------
INITIAL GUESS: MODEL POTENTIAL
------------------------------
Loading Hartree-Fock densities                     ... done
Calculating cut-offs                               ... done
Initializing the effective Hamiltonian             ... done
Setting up the integral package (SHARK)            ... done
Starting the Coulomb interaction                   ... done (   0.4 sec)
Reading the grid                                   ... done
Mapping shells                                     ... done
Starting the XC term evaluation                    ... done (   0.3 sec)
  promolecular density results
     # of electrons  =    145.988407222
     EX              =   -118.959538329
     EC              =     -4.962804572
     EX+EC           =   -123.922342902
Transforming the Hamiltonian                       ... done (   0.0 sec)
Diagonalizing the Hamiltonian                      ... done (   0.0 sec)
Back transforming the eigenvectors                 ... done (   0.0 sec)
Now organizing SCF variables                       ... done
                      ------------------
                      INITIAL GUESS DONE (   1.1 sec)
                      ------------------
-------------------
DFT GRID GENERATION
-------------------

General Integration Accuracy     IntAcc      ... 4.388
Radial Grid Type                 RadialGrid  ... OptM3 with GC (2021)
Angular Grid (max. ang.)         AngularGrid ... 4 (Lebedev-302)
Angular grid pruning method      GridPruning ... 4 (adaptive)
Weight generation scheme         WeightScheme... Becke
Basis function cutoff            BFCut       ... 1.0000e-11
Integration weight cutoff        WCut        ... 1.0000e-14
Angular grids for H and He will be reduced by one unit
Partially contracted basis set               ... off
Rotationally invariant grid construction     ... off

Total number of grid points                  ...   179164
Total number of batches                      ...     2817
Average number of points per batch           ...       63
Average number of grid points per atom       ...     4594
Time for grid setup =    2.540 sec

--------------------
COSX GRID GENERATION
--------------------

GRIDX 1
-------
General Integration Accuracy     IntAcc      ... 3.816
Radial Grid Type                 RadialGrid  ... OptM3 with GC (2021)
Angular Grid (max. ang.)         AngularGrid ... 1 (Lebedev-50)
Angular grid pruning method      GridPruning ... 4 (adaptive)
Weight generation scheme         WeightScheme... Becke
Basis function cutoff            BFCut       ... 1.0000e-11
Integration weight cutoff        WCut        ... 1.0000e-14
Angular grids for H and He will be reduced by one unit
Partially contracted basis set               ... on
Rotationally invariant grid construction     ... off

Total number of grid points                  ...    22747
Total number of batches                      ...      377
Average number of points per batch           ...       60
Average number of grid points per atom       ...      583
UseSFitting                                  ... on

GRIDX 2
-------
General Integration Accuracy     IntAcc      ... 4.020
Radial Grid Type                 RadialGrid  ... OptM3 with GC (2021)
Angular Grid (max. ang.)         AngularGrid ... 2 (Lebedev-110)
Angular grid pruning method      GridPruning ... 4 (adaptive)
Weight generation scheme         WeightScheme... Becke
Basis function cutoff            BFCut       ... 1.0000e-11
Integration weight cutoff        WCut        ... 1.0000e-14
Angular grids for H and He will be reduced by one unit
Partially contracted basis set               ... on
Rotationally invariant grid construction     ... off

Total number of grid points                  ...    48598
Total number of batches                      ...      779
Average number of points per batch           ...       62
Average number of grid points per atom       ...     1246
UseSFitting                                  ... on

GRIDX 3
-------
General Integration Accuracy     IntAcc      ... 4.338
Radial Grid Type                 RadialGrid  ... OptM3 with GC (2021)
Angular Grid (max. ang.)         AngularGrid ... 3 (Lebedev-194)
Angular grid pruning method      GridPruning ... 4 (adaptive)
Weight generation scheme         WeightScheme... Becke
Basis function cutoff            BFCut       ... 1.0000e-11
Integration weight cutoff        WCut        ... 1.0000e-14
Angular grids for H and He will be reduced by one unit
Partially contracted basis set               ... on
Rotationally invariant grid construction     ... off

Total number of grid points                  ...   106001
Total number of batches                      ...     1675
Average number of points per batch           ...       63
Average number of grid points per atom       ...     2718
UseSFitting                                  ... on

Time for X-Grid setup             =    2.216 sec

--------------
SCF ITERATIONS
--------------
ITER       Energy         Delta-E        Max-DP      RMS-DP      [F,P]     Damp
               ***  Starting incremental Fock matrix formation  ***
  0   -896.6693103107   0.000000000000 0.09456135  0.00191666  0.2765242 0.7000
  1   -896.9169325193  -0.247622208653 0.05104304  0.00129617  0.1057214 0.7000
                               ***Turning on DIIS***
  2   -897.0143566618  -0.097424142428 0.06279990  0.00204843  0.0370219 0.0000
  3   -897.1691597745  -0.154803112772 0.03647949  0.00093763  0.0546613 0.0000
  4   -897.2014025385  -0.032242763976 0.01079662  0.00029679  0.0127448 0.0000
  5   -897.2037410660  -0.002338527489 0.00420932  0.00009615  0.0067806 0.0000
                      *** Initiating the SOSCF procedure ***
                           *** Shutting down DIIS ***
                      *** Re-Reading the Fockian *** 
                      *** Removing any level shift *** 
ITER      Energy       Delta-E        Grad      Rot      Max-DP    RMS-DP
  6   -897.20392545  -0.0001843838  0.000225  0.000225  0.001052  0.000029
               *** Restarting incremental Fock matrix formation ***
  7   -897.20398878  -0.0000633307  0.000131  0.000438  0.000702  0.000018
  8   -897.20398776   0.0000010197  0.000234  0.000471  0.000423  0.000010
  9   -897.20399085  -0.0000030915  0.000056  0.000201  0.000243  0.000005
 10   -897.20399057   0.0000002781  0.000081  0.000095  0.000181  0.000003
 11   -897.20399096  -0.0000003870  0.000009  0.000030  0.000047  0.000001
 12   -897.20399094   0.0000000238  0.000017  0.000022  0.000030  0.000001
                  ***Gradient check signals convergence***
              ***Rediagonalizing the Fockian in SOSCF/NRSCF***

               *****************************************************
               *                     SUCCESS                       *
               *           SCF CONVERGED AFTER  13 CYCLES          *
               *****************************************************

Old exchange energy                            =    -24.194610831 Eh
New exchange energy                            =    -24.194607938 Eh
Exchange energy change after final integration =      0.000002893 Eh
Total energy after final integration           =   -897.203988063 Eh
Final COS-X integration done in                =    19.028 sec

----------------
TOTAL SCF ENERGY
----------------

Total Energy       :         -897.20398806 Eh          -24414.16171 eV

Components:
Nuclear Repulsion  :         1670.26564664 Eh           45450.23889 eV
Electronic Energy  :        -2567.46963470 Eh          -69864.40060 eV
One Electron Energy:        -4538.83951029 Eh         -123508.10211 eV
Two Electron Energy:         1971.36987559 Eh           53643.70151 eV
Max COSX asymmetry :            0.00000269 Eh               0.00007 eV

Virial components:
Potential Energy   :        -1789.18172378 Eh          -48686.10986 eV
Kinetic Energy     :          891.97773572 Eh           24271.94815 eV
Virial Ratio       :            2.00585917


DFT components:
N(Alpha)           :       73.000006023292 electrons
N(Beta)            :       73.000006023292 electrons
N(Total)           :      146.000012046585 electrons
E(X)               :      -96.090194039974 Eh       
E(C)               :       -5.840747784505 Eh       
E(XC)              :     -101.930941824479 Eh       
DFET-embed. en.    :        0.000000000000 Eh       

---------------
SCF CONVERGENCE
---------------

  Last Energy change         ...   -1.8415e-08  Tolerance :   1.0000e-08
  Last MAX-Density change    ...    2.2204e-15  Tolerance :   1.0000e-07
  Last RMS-Density change    ...    3.7720e-17  Tolerance :   5.0000e-09
  Last Orbital Gradient      ...    2.4809e-06  Tolerance :   1.0000e-05
  Last Orbital Rotation      ...    5.5786e-06  Tolerance :   1.0000e-05

             **** THE GBW FILE WAS UPDATED (Nw_gas.gbw) ****
             **** DENSITY Nw_gas.scfp WAS UPDATED ****
             **** ENERGY FILE WAS UPDATED (Nw_gas.en.tmp) ****
             **** THE GBW FILE WAS UPDATED (Nw_gas.gbw) ****
             **** DENSITY Nw_gas.scfp WAS UPDATED ****
----------------
ORBITAL ENERGIES
----------------

  NO   OCC          E(Eh)            E(eV) 
   0   2.0000     -19.105842      -519.8964 
   1   2.0000     -19.086499      -519.3700 
   2   2.0000     -14.373312      -391.1177 
   3   2.0000     -14.358683      -390.7196 
   4   2.0000     -14.344068      -390.3219 
   5   2.0000     -10.281541      -279.7749 
   6   2.0000     -10.264109      -279.3006 
   7   2.0000     -10.223766      -278.2028 
   8   2.0000     -10.213963      -277.9361 
   9   2.0000     -10.213246      -277.9165 
  10   2.0000     -10.204935      -277.6904 
  11   2.0000     -10.190538      -277.2986 
  12   2.0000     -10.185797      -277.1696 
  13   2.0000     -10.183713      -277.1129 
  14   2.0000     -10.182756      -277.0869 
  15   2.0000     -10.180152      -277.0160 
  16   2.0000     -10.177959      -276.9563 
  17   2.0000     -10.177830      -276.9528 
  18   2.0000     -10.175072      -276.8778 
  19   2.0000     -10.172483      -276.8073 
  20   2.0000      -1.026200       -27.9243 
  21   2.0000      -1.007235       -27.4083 
  22   2.0000      -0.979415       -26.6512 
  23   2.0000      -0.931361       -25.3436 
  24   2.0000      -0.914506       -24.8850 
  25   2.0000      -0.837228       -22.7821 
  26   2.0000      -0.795279       -21.6406 
  27   2.0000      -0.758412       -20.6374 
  28   2.0000      -0.737103       -20.0576 
  29   2.0000      -0.730904       -19.8889 
  30   2.0000      -0.714974       -19.4554 
  31   2.0000      -0.702357       -19.1121 
  32   2.0000      -0.690240       -18.7824 
  33   2.0000      -0.662540       -18.0286 
  34   2.0000      -0.621646       -16.9158 
  35   2.0000      -0.592696       -16.1281 
  36   2.0000      -0.569398       -15.4941 
  37   2.0000      -0.551775       -15.0146 
  38   2.0000      -0.539243       -14.6735 
  39   2.0000      -0.529703       -14.4140 
  40   2.0000      -0.507196       -13.8015 
  41   2.0000      -0.491161       -13.3652 
  42   2.0000      -0.479063       -13.0360 
  43   2.0000      -0.472509       -12.8576 
  44   2.0000      -0.462093       -12.5742 
  45   2.0000      -0.458539       -12.4775 
  46   2.0000      -0.455672       -12.3995 
  47   2.0000      -0.438595       -11.9348 
  48   2.0000      -0.436996       -11.8913 
  49   2.0000      -0.430683       -11.7195 
  50   2.0000      -0.419931       -11.4269 
  51   2.0000      -0.416549       -11.3349 
  52   2.0000      -0.407652       -11.0928 
  53   2.0000      -0.398317       -10.8387 
  54   2.0000      -0.396245       -10.7824 
  55   2.0000      -0.389808       -10.6072 
  56   2.0000      -0.388284       -10.5657 
  57   2.0000      -0.385743       -10.4966 
  58   2.0000      -0.379159       -10.3174 
  59   2.0000      -0.377298       -10.2668 
  60   2.0000      -0.365244        -9.9388 
  61   2.0000      -0.353163        -9.6101 
  62   2.0000      -0.348154        -9.4738 
  63   2.0000      -0.341288        -9.2869 
  64   2.0000      -0.335596        -9.1320 
  65   2.0000      -0.326814        -8.8931 
  66   2.0000      -0.273354        -7.4383 
  67   2.0000      -0.251083        -6.8323 
  68   2.0000      -0.245830        -6.6894 
  69   2.0000      -0.229822        -6.2538 
  70   2.0000      -0.225280        -6.1302 
  71   2.0000      -0.213778        -5.8172 
  72   2.0000      -0.201771        -5.4905 
  73   0.0000      -0.010370        -0.2822 
  74   0.0000       0.020879         0.5681 
  75   0.0000       0.025235         0.6867 
  76   0.0000       0.033904         0.9226 
  77   0.0000       0.065867         1.7923 
  78   0.0000       0.074444         2.0257 
  79   0.0000       0.084548         2.3007 
  80   0.0000       0.109869         2.9897 
  81   0.0000       0.110604         3.0097 
  82   0.0000       0.117413         3.1950 
  83   0.0000       0.134239         3.6528 
  84   0.0000       0.143151         3.8953 
  85   0.0000       0.148269         4.0346 
  86   0.0000       0.154061         4.1922 
  87   0.0000       0.156751         4.2654 
  88   0.0000       0.166300         4.5253 
  89   0.0000       0.168757         4.5921 
  90   0.0000       0.172932         4.7057 
  91   0.0000       0.175310         4.7704 
  92   0.0000       0.180709         4.9173 
  93   0.0000       0.185430         5.0458 
  94   0.0000       0.188592         5.1319 
  95   0.0000       0.191912         5.2222 
  96   0.0000       0.197618         5.3775 
  97   0.0000       0.212271         5.7762 
  98   0.0000       0.224135         6.0990 
  99   0.0000       0.232970         6.3394 
 100   0.0000       0.234764         6.3882 
 101   0.0000       0.243998         6.6395 
 102   0.0000       0.250214         6.8087 
 103   0.0000       0.258400         7.0314 
 104   0.0000       0.262080         7.1316 
 105   0.0000       0.275563         7.4985 
 106   0.0000       0.277842         7.5605 
 107   0.0000       0.287896         7.8340 
 108   0.0000       0.322611         8.7787 
 109   0.0000       0.334033         9.0895 
 110   0.0000       0.343528         9.3479 
 111   0.0000       0.347072         9.4443 
 112   0.0000       0.356193         9.6925 
 113   0.0000       0.386727        10.5234 
 114   0.0000       0.396562        10.7910 
 115   0.0000       0.425510        11.5787 
 116   0.0000       0.440770        11.9940 
 117   0.0000       0.467486        12.7209 
 118   0.0000       0.476695        12.9715 
 119   0.0000       0.489593        13.3225 
 120   0.0000       0.501858        13.6563 
 121   0.0000       0.512079        13.9344 
 122   0.0000       0.517359        14.0781 
 123   0.0000       0.528726        14.3874 
 124   0.0000       0.536431        14.5970 
 125   0.0000       0.544049        14.8043 
 126   0.0000       0.545634        14.8475 
 127   0.0000       0.562906        15.3175 
 128   0.0000       0.568367        15.4660 
 129   0.0000       0.571423        15.5492 
 130   0.0000       0.585077        15.9208 
 131   0.0000       0.599431        16.3114 
 132   0.0000       0.601181        16.3590 
 133   0.0000       0.613758        16.7012 
 134   0.0000       0.615021        16.7356 
 135   0.0000       0.621475        16.9112 
 136   0.0000       0.628165        17.0932 
 137   0.0000       0.630458        17.1556 
 138   0.0000       0.631743        17.1906 
 139   0.0000       0.640820        17.4376 
 140   0.0000       0.655932        17.8488 
 141   0.0000       0.659002        17.9323 
 142   0.0000       0.669960        18.2305 
 143   0.0000       0.675728        18.3875 
 144   0.0000       0.680101        18.5065 
 145   0.0000       0.697844        18.9893 
 146   0.0000       0.711774        19.3684 
 147   0.0000       0.715891        19.4804 
 148   0.0000       0.733773        19.9670 
 149   0.0000       0.752852        20.4861 
 150   0.0000       0.757817        20.6212 
 151   0.0000       0.763367        20.7723 
 152   0.0000       0.777204        21.1488 
 153   0.0000       0.800696        21.7880 
 154   0.0000       0.807954        21.9855 
 155   0.0000       0.814631        22.1672 
 156   0.0000       0.822467        22.3805 
 157   0.0000       0.833102        22.6699 
 158   0.0000       0.837792        22.7975 
 159   0.0000       0.845616        23.0104 
 160   0.0000       0.847849        23.0711 
 161   0.0000       0.851043        23.1580 
 162   0.0000       0.858030        23.3482 
 163   0.0000       0.868380        23.6298 
 164   0.0000       0.872609        23.7449 
 165   0.0000       0.884732        24.0748 
 166   0.0000       0.886626        24.1263 
 167   0.0000       0.892725        24.2923 
 168   0.0000       0.899233        24.4694 
 169   0.0000       0.905386        24.6368 
 170   0.0000       0.912464        24.8294 
 171   0.0000       0.918453        24.9924 
 172   0.0000       0.928647        25.2698 
 173   0.0000       0.933699        25.4072 
 174   0.0000       0.940796        25.6004 
 175   0.0000       0.947571        25.7847 
 176   0.0000       0.958485        26.0817 
 177   0.0000       0.967261        26.3205 
 178   0.0000       0.978249        26.6195 
 179   0.0000       0.987023        26.8583 
 180   0.0000       1.001529        27.2530 
 181   0.0000       1.004353        27.3298 
 182   0.0000       1.020267        27.7629 
 183   0.0000       1.024820        27.8868 
 184   0.0000       1.039036        28.2736 
 185   0.0000       1.065494        28.9936 
 186   0.0000       1.072552        29.1856 
 187   0.0000       1.081332        29.4245 
 188   0.0000       1.097230        29.8571 
 189   0.0000       1.112720        30.2787 
 190   0.0000       1.122022        30.5318 
 191   0.0000       1.130422        30.7603 
 192   0.0000       1.148642        31.2561 
 193   0.0000       1.170602        31.8537 
 194   0.0000       1.174504        31.9599 
 195   0.0000       1.200195        32.6590 
 196   0.0000       1.219895        33.1950 
 197   0.0000       1.237851        33.6836 
 198   0.0000       1.245823        33.9006 
 199   0.0000       1.256233        34.1839 
 200   0.0000       1.268507        34.5178 
 201   0.0000       1.278281        34.7838 
 202   0.0000       1.310453        35.6592 
 203   0.0000       1.321035        35.9472 
 204   0.0000       1.335752        36.3477 
 205   0.0000       1.343522        36.5591 
 206   0.0000       1.362022        37.0625 
 207   0.0000       1.382607        37.6226 
 208   0.0000       1.388379        37.7797 
 209   0.0000       1.407563        38.3017 
 210   0.0000       1.423858        38.7452 
 211   0.0000       1.433384        39.0044 
 212   0.0000       1.442535        39.2534 
 213   0.0000       1.454911        39.5901 
 214   0.0000       1.460521        39.7428 
 215   0.0000       1.480966        40.2991 
 216   0.0000       1.484285        40.3895 
 217   0.0000       1.490422        40.5564 
 218   0.0000       1.499937        40.8154 
 219   0.0000       1.510499        41.1028 
 220   0.0000       1.528056        41.5805 
 221   0.0000       1.575434        42.8697 
 222   0.0000       1.586020        43.1578 
 223   0.0000       1.608232        43.7622 
 224   0.0000       1.622229        44.1431 
 225   0.0000       1.641626        44.6709 
 226   0.0000       1.661803        45.2200 
 227   0.0000       1.664890        45.3040 
 228   0.0000       1.742305        47.4105 
 229   0.0000       1.753992        47.7285 
 230   0.0000       1.773396        48.2566 
 231   0.0000       1.788076        48.6560 
 232   0.0000       1.804365        49.0993 
 233   0.0000       1.812926        49.3322 
 234   0.0000       1.816290        49.4238 
 235   0.0000       1.827930        49.7405 
 236   0.0000       1.849206        50.3195 
 237   0.0000       1.854581        50.4657 
 238   0.0000       1.871291        50.9204 
 239   0.0000       1.882588        51.2278 
 240   0.0000       1.888562        51.3904 
 241   0.0000       1.895857        51.5889 
 242   0.0000       1.916645        52.1546 
 243   0.0000       1.925441        52.3939 
 244   0.0000       1.933121        52.6029 
 245   0.0000       1.940749        52.8105 
 246   0.0000       1.959407        53.3182 
 247   0.0000       1.966831        53.5202 
 248   0.0000       1.969921        53.6043 
 249   0.0000       1.985036        54.0156 
 250   0.0000       1.997271        54.3485 
 251   0.0000       2.008254        54.6474 
 252   0.0000       2.025616        55.1198 
 253   0.0000       2.029427        55.2235 
 254   0.0000       2.040424        55.5227 
 255   0.0000       2.050203        55.7889 
 256   0.0000       2.058491        56.0144 
 257   0.0000       2.076212        56.4966 
 258   0.0000       2.088681        56.8359 
 259   0.0000       2.098805        57.1114 
 260   0.0000       2.110376        57.4262 
 261   0.0000       2.122684        57.7612 
 262   0.0000       2.135422        58.1078 
 263   0.0000       2.151324        58.5405 
 264   0.0000       2.163549        58.8732 
 265   0.0000       2.174075        59.1596 
 266   0.0000       2.187984        59.5381 
 267   0.0000       2.218295        60.3629 
 268   0.0000       2.235090        60.8199 
 269   0.0000       2.241573        60.9963 
 270   0.0000       2.254932        61.3598 
 271   0.0000       2.265333        61.6428 
 272   0.0000       2.267840        61.7111 
 273   0.0000       2.269584        61.7585 
 274   0.0000       2.284023        62.1514 
 275   0.0000       2.291711        62.3606 
 276   0.0000       2.311697        62.9045 
 277   0.0000       2.333705        63.5033 
 278   0.0000       2.345717        63.8302 
 279   0.0000       2.371185        64.5232 
 280   0.0000       2.390204        65.0408 
 281   0.0000       2.402974        65.3882 
 282   0.0000       2.412649        65.6515 
 283   0.0000       2.444520        66.5188 
 284   0.0000       2.455590        66.8200 
 285   0.0000       2.479003        67.4571 
 286   0.0000       2.500089        68.0309 
 287   0.0000       2.510960        68.3267 
 288   0.0000       2.524113        68.6846 
 289   0.0000       2.556332        69.5613 
 290   0.0000       2.565775        69.8183 
 291   0.0000       2.580615        70.2221 
 292   0.0000       2.590247        70.4842 
 293   0.0000       2.620012        71.2942 
 294   0.0000       2.633601        71.6639 
 295   0.0000       2.647612        72.0452 
 296   0.0000       2.662670        72.4549 
 297   0.0000       2.683235        73.0145 
 298   0.0000       2.685928        73.0878 
 299   0.0000       2.698606        73.4328 
 300   0.0000       2.727196        74.2108 
 301   0.0000       2.753051        74.9143 
 302   0.0000       2.756606        75.0111 
 303   0.0000       2.778066        75.5950 
 304   0.0000       2.819986        76.7357 
 305   0.0000       2.845221        77.4224 
 306   0.0000       2.868981        78.0690 
 307   0.0000       2.937895        79.9442 
 308   0.0000       2.948879        80.2431 
 309   0.0000       2.981941        81.1428 
 310   0.0000       2.995530        81.5125 
 311   0.0000       3.014093        82.0176 
 312   0.0000       3.039039        82.6965 
 313   0.0000       3.128822        85.1396 
 314   0.0000       3.172343        86.3239 
 315   0.0000       3.203015        87.1585 
 316   0.0000       3.276488        89.1578 
 317   0.0000       3.443980        93.7155 

                    ********************************
                    * MULLIKEN POPULATION ANALYSIS *
                    ********************************

-----------------------
MULLIKEN ATOMIC CHARGES
-----------------------
   0 C :    0.535309
   1 H :    0.173716
   2 H :    0.175462
   3 H :    0.189569
   4 O :   -0.479943
   5 C :   -0.559933
   6 N :   -0.363104
   7 C :   -0.265886
   8 H :    0.164328
   9 H :    0.207369
  10 C :   -0.239726
  11 H :    0.149351
  12 H :    0.163896
  13 C :    0.027409
  14 C :    0.036874
  15 H :    0.160073
  16 N :   -0.635022
  17 H :    0.333391
  18 C :    0.283130
  19 C :    0.103284
  20 C :   -0.211423
  21 H :    0.123694
  22 C :   -0.143690
  23 H :    0.121614
  24 C :   -0.165428
  25 H :    0.125475
  26 C :   -0.153076
  27 H :    0.124083
  28 C :    0.549451
  29 O :   -0.510033
  30 N :   -0.355130
  31 C :   -0.345630
  32 H :    0.155023
  33 H :    0.147377
  34 H :    0.204188
  35 C :   -0.326323
  36 H :    0.168298
  37 H :    0.188016
  38 H :    0.143968
Sum of atomic charges:   -0.0000000

--------------------------------
MULLIKEN REDUCED ORBITAL CHARGES
--------------------------------
  0 C s       :     2.981630  s :     2.981630
      pz      :     0.787044  p :     2.375500
      px      :     0.763103
      py      :     0.825354
      dz2     :     0.021319  d :     0.107561
      dxz     :     0.022424
      dyz     :     0.019611
      dx2y2   :     0.025106
      dxy     :     0.019101
  1 H s       :     0.826284  s :     0.826284
  2 H s       :     0.824538  s :     0.824538
  3 H s       :     0.810431  s :     0.810431
  4 O s       :     3.878472  s :     3.878472
      pz      :     1.384983  p :     4.575140
      px      :     1.594908
      py      :     1.595249
      dz2     :     0.007893  d :     0.026331
      dxz     :     0.006538
[...]
    112       0.001834   0.000766   0.000228
    113       0.001146   0.000405  -0.000028
    114       0.000212   0.000072   0.000053
    115      -0.000657   0.000011  -0.000040
    116       0.001988  -0.000064   0.000353


-----------
IR SPECTRUM
-----------

 Mode   freq       eps      Int      T**2         TX        TY        TZ
       cm**-1   L/(mol*cm) km/mol    a.u.
----------------------------------------------------------------------------
  6:     24.06   0.000112    0.56  0.001447  (-0.033755 -0.007837  0.015678)
  7:     43.94   0.000226    1.14  0.001602  (-0.000146 -0.034023 -0.021092)
  8:     62.93   0.000158    0.80  0.000786  ( 0.021709 -0.015247  0.009054)
  9:     87.33   0.000383    1.93  0.001368  ( 0.022699 -0.025170  0.014806)
 10:     92.11   0.000012    0.06  0.000040  (-0.000886 -0.004699 -0.004089)
 11:    117.80   0.001283    6.48  0.003398  ( 0.026403 -0.047745  0.020517)
 12:    130.47   0.001610    8.14  0.003851  ( 0.030824  0.012911 -0.052288)
 13:    140.05   0.000167    0.85  0.000373  (-0.006276  0.015754  0.009227)
 14:    167.97   0.000247    1.25  0.000458  ( 0.001403 -0.010730  0.018475)
 15:    174.03   0.000235    1.19  0.000422  ( 0.007909  0.018598 -0.003680)
 16:    188.18   0.000067    0.34  0.000112  (-0.001492  0.000336 -0.010464)
 17:    198.39   0.000189    0.96  0.000298  ( 0.010459  0.005770 -0.012449)
 18:    216.94   0.000375    1.89  0.000539  ( 0.016773 -0.012446  0.010128)
 19:    234.89   0.002314   11.69  0.003074  ( 0.013295 -0.026289  0.046968)
 20:    250.37   0.000754    3.81  0.000940  (-0.007317  0.023051 -0.018843)
 21:    292.40   0.000645    3.26  0.000688  ( 0.001269  0.014212 -0.022017)
 22:    310.06   0.000710    3.59  0.000714  ( 0.013008  0.007030 -0.022260)
 23:    334.41   0.000557    2.81  0.000520  (-0.011597  0.019381  0.003072)
 24:    367.00   0.006091   30.78  0.005179  (-0.048562  0.013881 -0.051268)
 25:    382.43   0.002491   12.59  0.002033  ( 0.005253 -0.011791 -0.043201)
 26:    411.80   0.010085   50.97  0.007643  (-0.048920  0.033390 -0.064302)
 27:    420.00   0.007106   35.91  0.005279  ( 0.018021 -0.027328  0.064869)
 28:    436.12   0.000180    0.91  0.000129  (-0.004978 -0.008461  0.005686)
 29:    442.68   0.000587    2.97  0.000414  ( 0.020064 -0.002322  0.002420)
 30:    464.52   0.000669    3.38  0.000449  ( 0.018247 -0.000263 -0.010790)
 31:    500.78   0.004251   21.48  0.002649  ( 0.007630  0.036216 -0.035769)
 32:    549.24   0.000359    1.81  0.000204  (-0.012842  0.006190  0.000828)
 33:    576.59   0.002616   13.22  0.001416  ( 0.034346 -0.002857 -0.015106)
 34:    587.16   0.000782    3.95  0.000416  (-0.006840  0.014352 -0.012770)
 35:    594.94   0.003361   16.98  0.001763  ( 0.040876 -0.008477  0.004469)
 36:    598.29   0.000106    0.53  0.000055  ( 0.005131  0.001901  0.005017)
 37:    614.17   0.001590    8.04  0.000808  ( 0.006184  0.020032  0.019194)
 38:    655.69   0.001284    6.49  0.000611  (-0.000282  0.019263  0.015495)
 39:    691.59   0.000328    1.66  0.000148  (-0.007218  0.001164 -0.009726)
 40:    747.74   0.000915    4.62  0.000382  (-0.008533  0.014602 -0.009782)
 41:    754.14   0.010829   54.73  0.004481  ( 0.014554 -0.035062  0.055137)
 42:    758.35   0.002922   14.77  0.001203  (-0.022709  0.006621  0.025359)
 43:    776.50   0.000702    3.55  0.000282  ( 0.005435 -0.015058  0.005098)
 44:    782.20   0.000595    3.01  0.000237  (-0.003341  0.004918  0.014212)
 45:    802.18   0.003800   19.20  0.001478  (-0.011072 -0.001958 -0.036766)
 46:    836.76   0.001969    9.95  0.000734  ( 0.013854 -0.012838 -0.019435)
 47:    859.11   0.000354    1.79  0.000128  (-0.007625  0.001052  0.008319)
 48:    891.60   0.000221    1.12  0.000078  (-0.005379  0.004878  0.004979)
 49:    916.19   0.000220    1.11  0.000075  ( 0.000664  0.004106 -0.007599)
 50:    947.45   0.001488    7.52  0.000490  (-0.018919  0.001369 -0.011415)
 51:    962.67   0.000016    0.08  0.000005  (-0.001860  0.000507 -0.001196)
 52:    970.62   0.002519   12.73  0.000810  (-0.023229 -0.016016  0.003726)
 53:   1005.40   0.007309   36.94  0.002269  ( 0.047003 -0.007619  0.001157)
 54:   1010.98   0.002586   13.07  0.000798  ( 0.000349 -0.013971 -0.024557)
 55:   1045.11   0.001020    5.15  0.000304  (-0.009116  0.011916  0.008907)
 56:   1062.19   0.000732    3.70  0.000215  ( 0.011811 -0.005129 -0.007010)
 57:   1090.51   0.002721   13.75  0.000779  (-0.021067 -0.016803 -0.007241)
 58:   1099.85   0.000487    2.46  0.000138  (-0.009719 -0.005229 -0.004057)
 59:   1103.97   0.001325    6.70  0.000375  (-0.005513  0.014805  0.011183)
 60:   1127.24   0.005637   28.49  0.001561  (-0.031866 -0.020152 -0.011791)
 61:   1145.46   0.000145    0.73  0.000039  ( 0.001875  0.005481 -0.002426)
 62:   1159.67   0.001189    6.01  0.000320  (-0.005053 -0.004434 -0.016578)
 63:   1178.70   0.005466   27.62  0.001447  (-0.001740 -0.014230 -0.035237)
 64:   1187.99   0.000416    2.10  0.000109  ( 0.001365 -0.004336 -0.009418)
 65:   1191.64   0.000172    0.87  0.000045  ( 0.001879  0.004157  0.004925)
 66:   1227.14   0.004493   22.70  0.001142  (-0.021146  0.026100  0.003761)
 67:   1255.89   0.004982   25.17  0.001238  ( 0.034070  0.006835  0.005509)
 68:   1272.38   0.001054    5.33  0.000258  ( 0.003974  0.013593  0.007610)
 69:   1294.07   0.018149   91.72  0.004377  ( 0.057177  0.033249 -0.001410)
 70:   1296.68   0.009270   46.85  0.002231  ( 0.041938 -0.000716 -0.021717)
 71:   1302.22   0.009709   49.06  0.002327  ( 0.024541  0.036629 -0.019561)
 72:   1344.76   0.000177    0.89  0.000041  (-0.000258 -0.006305 -0.001097)
 73:   1374.45   0.000276    1.40  0.000063  ( 0.005928  0.003341  0.004053)
 74:   1389.92   0.004869   24.61  0.001093  ( 0.026068 -0.014707 -0.014047)
 75:   1396.10   0.005007   25.30  0.001119  (-0.022330 -0.023192 -0.009091)
 76:   1413.85   0.004746   23.98  0.001048  ( 0.016242 -0.024911  0.012774)
 77:   1417.63   0.002162   10.93  0.000476  ( 0.021671 -0.002251  0.001102)
 78:   1449.08   0.006122   30.94  0.001318  (-0.018573  0.015547  0.027050)
 79:   1461.77   0.019293   97.50  0.004119  ( 0.058272  0.002629 -0.026760)
 80:   1468.31   0.022797  115.21  0.004845  (-0.060308 -0.030865 -0.015982)
 81:   1471.39   0.007673   38.78  0.001627  (-0.023747  0.026068  0.019593)
 82:   1495.73   0.001130    5.71  0.000236  (-0.005297  0.013908 -0.003771)
 83:   1499.11   0.002116   10.70  0.000441  ( 0.005294 -0.000753 -0.020297)
 84:   1502.87   0.004445   22.46  0.000923  ( 0.008374  0.026637  0.011967)
 85:   1511.17   0.001023    5.17  0.000211  ( 0.013391  0.001582 -0.005430)
 86:   1513.70   0.003176   16.05  0.000655  ( 0.002184 -0.025463  0.001267)
 87:   1525.74   0.001917    9.69  0.000392  ( 0.002788 -0.019255  0.003674)
 88:   1527.96   0.000124    0.63  0.000025  ( 0.000990 -0.000756  0.004878)
 89:   1537.70   0.001807    9.13  0.000367  ( 0.009820 -0.003426  0.016078)
 90:   1541.48   0.001245    6.29  0.000252  (-0.000522 -0.002465  0.015677)
 91:   1542.03   0.001943    9.82  0.000393  (-0.000828 -0.013981  0.014036)
 92:   1569.81   0.006396   32.32  0.001271  (-0.018570  0.012299  0.027845)
 93:   1614.22   0.003765   19.03  0.000728  ( 0.026469 -0.004204  0.003101)
 94:   1637.70   0.000443    2.24  0.000084  (-0.004173 -0.005322 -0.006217)
 95:   1683.30   0.001508    7.62  0.000280  ( 0.011764  0.007092  0.009532)
 96:   1742.90   0.031842  160.91  0.005701  (-0.051377  0.038923 -0.039327)
 97:   1748.46   0.068642  346.89  0.012251  ( 0.063678  0.059713  0.068050)
 98:   3023.98   0.008546   43.19  0.000882  (-0.004736  0.013010  0.026272)
 99:   3030.18   0.003534   17.86  0.000364  ( 0.016053  0.009033 -0.004966)
100:   3037.30   0.016421   82.99  0.001687  (-0.006369  0.012457  0.038619)
101:   3059.96   0.001142    5.77  0.000116  ( 0.002060 -0.005852  0.008828)
102:   3073.19   0.004076   20.60  0.000414  ( 0.001574  0.019222  0.006477)
103:   3082.36   0.008095   40.91  0.000820  (-0.005309  0.017804 -0.021781)
104:   3086.84   0.002396   12.11  0.000242  ( 0.004725 -0.011706  0.009105)
105:   3121.29   0.002222   11.23  0.000222  ( 0.009946 -0.008747 -0.006835)
106:   3143.99   0.002700   13.65  0.000268  (-0.009232 -0.010396  0.008644)
107:   3144.90   0.001361    6.88  0.000135  ( 0.008664  0.001996 -0.007483)
108:   3174.05   0.001681    8.49  0.000165  (-0.011703 -0.001294 -0.005157)
109:   3183.40   0.000165    0.83  0.000016  (-0.004014 -0.000035 -0.000242)
110:   3186.59   0.001034    5.23  0.000101  (-0.006799 -0.004059  0.006213)
111:   3189.01   0.000228    1.15  0.000022  ( 0.003178 -0.000701  0.003425)
112:   3191.22   0.001628    8.23  0.000159  (-0.006417 -0.009794 -0.004706)
113:   3203.01   0.006910   34.92  0.000673  ( 0.025373 -0.002405 -0.004859)
114:   3212.30   0.003799   19.20  0.000369  (-0.001504 -0.017601 -0.007550)
115:   3284.30   0.000037    0.19  0.000003  (-0.001672  0.000274  0.000783)
116:   3670.05   0.013773   69.60  0.001171  ( 0.028671  0.017913  0.005311)

* The epsilon (eps) is given for a Dirac delta lineshape.
** The dipole moment derivative (T) already includes vibrational overlap.

The first frequency considered to be a vibration is 6
The total number of vibrations considered is 111


--------------------------
THERMOCHEMISTRY AT 298.15K
--------------------------

Temperature         ... 298.15 K
Pressure            ... 1.00 atm
Total Mass          ... 273.34 AMU

Throughout the following assumptions are being made:
  (1) The electronic state is orbitally nondegenerate
  (2) There are no thermally accessible electronically excited states
  (3) Hindered rotations indicated by low frequency modes are not
      treated as such but are treated as vibrations and this may
      cause some error
  (4) All equations used are the standard statistical mechanics
      equations for an ideal gas
  (5) All vibrations are strictly harmonic

freq.      24.06  E(vib)   ...       0.56 
freq.      43.94  E(vib)   ...       0.53 
freq.      62.93  E(vib)   ...       0.51 
freq.      87.33  E(vib)   ...       0.48 
freq.      92.11  E(vib)   ...       0.47 
freq.     117.80  E(vib)   ...       0.44 
freq.     130.47  E(vib)   ...       0.43 
freq.     140.05  E(vib)   ...       0.41 
freq.     167.97  E(vib)   ...       0.38 
freq.     174.03  E(vib)   ...       0.38 
freq.     188.18  E(vib)   ...       0.36 
freq.     198.39  E(vib)   ...       0.35 
freq.     216.94  E(vib)   ...       0.34 
freq.     234.89  E(vib)   ...       0.32 
freq.     250.37  E(vib)   ...       0.30 
freq.     292.40  E(vib)   ...       0.27 
freq.     310.06  E(vib)   ...       0.26 
freq.     334.41  E(vib)   ...       0.24 
freq.     367.00  E(vib)   ...       0.22 
freq.     382.43  E(vib)   ...       0.21 
freq.     411.80  E(vib)   ...       0.19 
freq.     420.00  E(vib)   ...       0.18 
freq.     436.12  E(vib)   ...       0.17 
freq.     442.68  E(vib)   ...       0.17 
freq.     464.52  E(vib)   ...       0.16 
freq.     500.78  E(vib)   ...       0.14 
freq.     549.24  E(vib)   ...       0.12 
freq.     576.59  E(vib)   ...       0.11 
freq.     587.16  E(vib)   ...       0.10 
freq.     594.94  E(vib)   ...       0.10 
freq.     598.29  E(vib)   ...       0.10 
freq.     614.17  E(vib)   ...       0.10 
freq.     655.69  E(vib)   ...       0.08 
freq.     691.59  E(vib)   ...       0.07 
freq.     747.74  E(vib)   ...       0.06 
freq.     754.14  E(vib)   ...       0.06 
freq.     758.35  E(vib)   ...       0.06 
freq.     776.50  E(vib)   ...       0.05 
freq.     782.20  E(vib)   ...       0.05 
freq.     802.18  E(vib)   ...       0.05 
freq.     836.76  E(vib)   ...       0.04 
freq.     859.11  E(vib)   ...       0.04 
freq.     891.60  E(vib)   ...       0.03 
freq.     916.19  E(vib)   ...       0.03 
freq.     947.45  E(vib)   ...       0.03 
freq.     962.67  E(vib)   ...       0.03 
freq.     970.62  E(vib)   ...       0.03 
freq.    1005.40  E(vib)   ...       0.02 
freq.    1010.98  E(vib)   ...       0.02 
freq.    1045.11  E(vib)   ...       0.02 
freq.    1062.19  E(vib)   ...       0.02 
freq.    1090.51  E(vib)   ...       0.02 
freq.    1099.85  E(vib)   ...       0.02 
freq.    1103.97  E(vib)   ...       0.02 
freq.    1127.24  E(vib)   ...       0.01 
freq.    1145.46  E(vib)   ...       0.01 
freq.    1159.67  E(vib)   ...       0.01 
freq.    1178.70  E(vib)   ...       0.01 
freq.    1187.99  E(vib)   ...       0.01 
freq.    1191.64  E(vib)   ...       0.01 
freq.    1227.14  E(vib)   ...       0.01 
freq.    1255.89  E(vib)   ...       0.01 
freq.    1272.38  E(vib)   ...       0.01 
freq.    1294.07  E(vib)   ...       0.01 
freq.    1296.68  E(vib)   ...       0.01 
freq.    1302.22  E(vib)   ...       0.01 
freq.    1344.76  E(vib)   ...       0.01 
freq.    1374.45  E(vib)   ...       0.01 
freq.    1389.92  E(vib)   ...       0.00 
freq.    1396.10  E(vib)   ...       0.00 
freq.    1413.85  E(vib)   ...       0.00 
freq.    1417.63  E(vib)   ...       0.00 
freq.    1449.08  E(vib)   ...       0.00 
freq.    1461.77  E(vib)   ...       0.00 
freq.    1468.31  E(vib)   ...       0.00 
freq.    1471.39  E(vib)   ...       0.00 
freq.    1495.73  E(vib)   ...       0.00 
freq.    1499.11  E(vib)   ...       0.00 
freq.    1502.87  E(vib)   ...       0.00 
freq.    1511.17  E(vib)   ...       0.00 
freq.    1513.70  E(vib)   ...       0.00 
freq.    1525.74  E(vib)   ...       0.00 
freq.    1527.96  E(vib)   ...       0.00 
freq.    1537.70  E(vib)   ...       0.00 
freq.    1541.48  E(vib)   ...       0.00 
freq.    1542.03  E(vib)   ...       0.00 
freq.    1569.81  E(vib)   ...       0.00 
freq.    1614.22  E(vib)   ...       0.00 
freq.    1637.70  E(vib)   ...       0.00 
freq.    1683.30  E(vib)   ...       0.00 
freq.    1742.90  E(vib)   ...       0.00 
freq.    1748.46  E(vib)   ...       0.00 
freq.    3023.98  E(vib)   ...       0.00 
freq.    3030.18  E(vib)   ...       0.00 
freq.    3037.30  E(vib)   ...       0.00 
freq.    3059.96  E(vib)   ...       0.00 
freq.    3073.19  E(vib)   ...       0.00 
freq.    3082.36  E(vib)   ...       0.00 
freq.    3086.84  E(vib)   ...       0.00 
freq.    3121.29  E(vib)   ...       0.00 
freq.    3143.99  E(vib)   ...       0.00 
freq.    3144.90  E(vib)   ...       0.00 
freq.    3174.05  E(vib)   ...       0.00 
freq.    3183.40  E(vib)   ...       0.00 
freq.    3186.59  E(vib)   ...       0.00 
freq.    3189.01  E(vib)   ...       0.00 
freq.    3191.22  E(vib)   ...       0.00 
freq.    3203.01  E(vib)   ...       0.00 
freq.    3212.30  E(vib)   ...       0.00 
freq.    3284.30  E(vib)   ...       0.00 
freq.    3670.05  E(vib)   ...       0.00 

------------
INNER ENERGY
------------

The inner energy is: U= E(el) + E(ZPE) + E(vib) + E(rot) + E(trans)
    E(el)   - is the total energy from the electronic structure calculation
              = E(kin-el) + E(nuc-el) + E(el-el) + E(nuc-nuc)
    E(ZPE)  - the the zero temperature vibrational energy from the frequency calculation
    E(vib)  - the the finite temperature correction to E(ZPE) due to population
              of excited vibrational states
    E(rot)  - is the rotational thermal energy
    E(trans)- is the translational thermal energy

Summary of contributions to the inner energy U:
Electronic energy                ...   -897.29299160 Eh
Zero point energy                ...      0.32783061 Eh     205.72 kcal/mol
Thermal vibrational correction   ...      0.01615326 Eh      10.14 kcal/mol
Thermal rotational correction    ...      0.00141627 Eh       0.89 kcal/mol
Thermal translational correction ...      0.00141627 Eh       0.89 kcal/mol
-----------------------------------------------------------------------
Total thermal energy                   -896.94617519 Eh


Summary of corrections to the electronic energy:
(perhaps to be used in another calculation)
Total thermal correction                  0.01898580 Eh      11.91 kcal/mol
Non-thermal (ZPE) correction              0.32783061 Eh     205.72 kcal/mol
-----------------------------------------------------------------------
Total correction                          0.34681641 Eh     217.63 kcal/mol


--------
ENTHALPY
--------

The enthalpy is H = U + kB*T
                kB is Boltzmann's constant
Total free energy                 ...   -896.94617519 Eh 
Thermal Enthalpy correction       ...      0.00094421 Eh       0.59 kcal/mol
-----------------------------------------------------------------------
Total Enthalpy                    ...   -896.94523099 Eh


Note: Only C1 symmetry has been detected, increase convergence thresholds 
      if your molecule has a higher symmetry. Symmetry factor of 1.0 is   
      used for the rotational entropy correction. 
 

Note: Rotational entropy computed according to Herzberg 
Infrared and Raman Spectra, Chapter V,1, Van Nostrand Reinhold, 1945 
Point Group:  C1, Symmetry Number:   1  
Rotational constants in cm-1:     0.016516     0.010455     0.009336 

Vibrational entropy computed according to the QRRHO of S. Grimme
Chem.Eur.J. 2012 18 9955


-------
ENTROPY
-------

The entropy contributions are T*S = T*(S(el)+S(vib)+S(rot)+S(trans))
     S(el)   - electronic entropy
     S(vib)  - vibrational entropy
     S(rot)  - rotational entropy
     S(trans)- translational entropy
The entropies will be listed as multiplied by the temperature to get
units of energy

Electronic entropy                ...      0.00000000 Eh      0.00 kcal/mol
Vibrational entropy               ...      0.02830819 Eh     17.76 kcal/mol
Rotational entropy                ...      0.01580755 Eh      9.92 kcal/mol
Translational entropy             ...      0.02029535 Eh     12.74 kcal/mol
-----------------------------------------------------------------------
Final entropy term                ...      0.06441109 Eh     40.42 kcal/mol

In case the symmetry of your molecule has not been determined correctly
or in case you have a reason to use a different symmetry number we print 
out the resulting rotational entropy values for sn=1,12 :
 --------------------------------------------------------
|  sn= 1 | S(rot)=       0.01580755 Eh      9.92 kcal/mol|
|  sn= 2 | S(rot)=       0.01515310 Eh      9.51 kcal/mol|
|  sn= 3 | S(rot)=       0.01477027 Eh      9.27 kcal/mol|
|  sn= 4 | S(rot)=       0.01449864 Eh      9.10 kcal/mol|
|  sn= 5 | S(rot)=       0.01428795 Eh      8.97 kcal/mol|
|  sn= 6 | S(rot)=       0.01411581 Eh      8.86 kcal/mol|
|  sn= 7 | S(rot)=       0.01397026 Eh      8.77 kcal/mol|
|  sn= 8 | S(rot)=       0.01384419 Eh      8.69 kcal/mol|
|  sn= 9 | S(rot)=       0.01373298 Eh      8.62 kcal/mol|
|  sn=10 | S(rot)=       0.01363350 Eh      8.56 kcal/mol|
|  sn=11 | S(rot)=       0.01354351 Eh      8.50 kcal/mol|
|  sn=12 | S(rot)=       0.01346135 Eh      8.45 kcal/mol|
 --------------------------------------------------------


-------------------
GIBBS FREE ENERGY
-------------------

The Gibbs free energy is G = H - T*S

Total enthalpy                    ...   -896.94523099 Eh 
Total entropy correction          ...     -0.06441109 Eh    -40.42 kcal/mol
-----------------------------------------------------------------------
Final Gibbs free energy         ...   -897.00964207 Eh

For completeness - the Gibbs free energy minus the electronic energy
G-E(el)                           ...      0.28334953 Eh    177.80 kcal/mol


Timings for individual modules:

Sum of individual times         ...     2974.743 sec (=  49.579 min)
GTO integral calculation        ...       25.536 sec (=   0.426 min)   0.9 %
SCF iterations                  ...     1386.086 sec (=  23.101 min)  46.6 %
SCF Gradient evaluation         ...      389.295 sec (=   6.488 min)  13.1 %
Geometry relaxation             ...        1.448 sec (=   0.024 min)   0.0 %
Analytical frequency calculation...     1172.378 sec (=  19.540 min)  39.4 %
                             ****ORCA TERMINATED NORMALLY****
TOTAL RUN TIME: 0 days 0 hours 49 minutes 41 seconds 29 msec
