
                                 *****************
                                 * O   R   C   A *
                                 *****************

                                            #,                                       
                                            ###                                      
                                            ####                                     
                                            #####                                    
                                            ######                                   
                                           ########,                                 
                                     ,,################,,,,,                         
                               ,,#################################,,                 
                          ,,##########################################,,             
                       ,#########################################, ''#####,          
                    ,#############################################,,   '####,        
                  ,##################################################,,,,####,       
                ,###########''''           ''''###############################       
              ,#####''   ,,,,##########,,,,          '''####'''          '####       
            ,##' ,,,,###########################,,,                        '##       
           ' ,,###''''                  '''############,,,                           
         ,,##''                                '''############,,,,        ,,,,,,###''
      ,#''                                            '''#######################'''  
     '                                                          ''''####''''         
             ,#######,   #######,   ,#######,      ##                                
            ,#'     '#,  ##    ##  ,#'     '#,    #''#        ######   ,####,        
            ##       ##  ##   ,#'  ##            #'  '#       #        #'  '#        
            ##       ##  #######   ##           ,######,      #####,   #    #        
            '#,     ,#'  ##    ##  '#,     ,#' ,#      #,         ##   #,  ,#        
             '#######'   ##     ##  '#######'  #'      '#     #####' # '####'        



                  #######################################################
                  #                        -***-                        #
                  #          Department of theory and spectroscopy      #
                  #    Directorship and core code : Frank Neese         #
                  #        Max Planck Institute fuer Kohlenforschung    #
                  #                Kaiser Wilhelm Platz 1               #
                  #                 D-45470 Muelheim/Ruhr               #
                  #                      Germany                        #
                  #                                                     #
                  #                  All rights reserved                #
                  #                        -***-                        #
                  #######################################################


                         Program Version 5.0.4 -  RELEASE  -


 With contributions from (in alphabetic order):
   Daniel Aravena         : Magnetic Suceptibility
   Michael Atanasov       : Ab Initio Ligand Field Theory (pilot matlab implementation)
   Alexander A. Auer      : GIAO ZORA, VPT2 properties, NMR spectrum
   Ute Becker             : Parallelization
   Giovanni Bistoni       : ED, misc. LED, open-shell LED, HFLD
   Martin Brehm           : Molecular dynamics
   Dmytro Bykov           : SCF Hessian
   Vijay G. Chilkuri      : MRCI spin determinant printing, contributions to CSF-ICE
   Dipayan Datta          : RHF DLPNO-CCSD density
   Achintya Kumar Dutta   : EOM-CC, STEOM-CC
   Dmitry Ganyushin       : Spin-Orbit,Spin-Spin,Magnetic field MRCI
   Miquel Garcia          : C-PCM and meta-GGA Hessian, CC/C-PCM, Gaussian charge scheme
   Yang Guo               : DLPNO-NEVPT2, F12-NEVPT2, CIM, IAO-localization
   Andreas Hansen         : Spin unrestricted coupled pair/coupled cluster methods
   Benjamin Helmich-Paris : MC-RPA, TRAH-SCF, COSX integrals
   Lee Huntington         : MR-EOM, pCC
   Robert Izsak           : Overlap fitted RIJCOSX, COSX-SCS-MP3, EOM
   Marcus Kettner         : VPT2
   Christian Kollmar      : KDIIS, OOCD, Brueckner-CCSD(T), CCSD density, CASPT2, CASPT2-K
   Simone Kossmann        : Meta GGA functionals, TD-DFT gradient, OOMP2, MP2 Hessian
   Martin Krupicka        : Initial AUTO-CI
   Lucas Lang             : DCDCAS
   Marvin Lechner         : AUTO-CI (C++ implementation), FIC-MRCC
   Dagmar Lenk            : GEPOL surface, SMD
   Dimitrios Liakos       : Extrapolation schemes; Compound Job, initial MDCI parallelization
   Dimitrios Manganas     : Further ROCIS development; embedding schemes
   Dimitrios Pantazis     : SARC Basis sets
   Anastasios Papadopoulos: AUTO-CI, single reference methods and gradients
   Taras Petrenko         : DFT Hessian,TD-DFT gradient, ASA, ECA, R-Raman, ABS, FL, XAS/XES, NRVS
   Peter Pinski           : DLPNO-MP2, DLPNO-MP2 Gradient
   Christoph Reimann      : Effective Core Potentials
   Marius Retegan         : Local ZFS, SOC
   Christoph Riplinger    : Optimizer, TS searches, QM/MM, DLPNO-CCSD(T), (RO)-DLPNO pert. Triples
   Tobias Risthaus        : Range-separated hybrids, TD-DFT gradient, RPA, STAB
   Michael Roemelt        : Original ROCIS implementation
   Masaaki Saitow         : Open-shell DLPNO-CCSD energy and density
   Barbara Sandhoefer     : DKH picture change effects
   Avijit Sen             : IP-ROCIS
   Kantharuban Sivalingam : CASSCF convergence, NEVPT2, FIC-MRCI
   Bernardo de Souza      : ESD, SOC TD-DFT
   Georgi Stoychev        : AutoAux, RI-MP2 NMR, DLPNO-MP2 response
   Willem Van den Heuvel  : Paramagnetic NMR
   Boris Wezisla          : Elementary symmetry handling
   Frank Wennmohs         : Technical directorship


 We gratefully acknowledge several colleagues who have allowed us to
 interface, adapt or use parts of their codes:
   Stefan Grimme, W. Hujo, H. Kruse, P. Pracht,  : VdW corrections, initial TS optimization,
                  C. Bannwarth, S. Ehlert          DFT functionals, gCP, sTDA/sTD-DF
   Ed Valeev, F. Pavosevic, A. Kumar             : LibInt (2-el integral package), F12 methods
   Garnet Chan, S. Sharma, J. Yang, R. Olivares  : DMRG
   Ulf Ekstrom                                   : XCFun DFT Library
   Mihaly Kallay                                 : mrcc  (arbitrary order and MRCC methods)
   Jiri Pittner, Ondrej Demel                    : Mk-CCSD
   Frank Weinhold                                : gennbo (NPA and NBO analysis)
   Christopher J. Cramer and Donald G. Truhlar   : smd solvation model
   Lars Goerigk                                  : TD-DFT with DH, B97 family of functionals
   V. Asgeirsson, H. Jonsson                     : NEB implementation
   FAccTs GmbH                                   : IRC, NEB, NEB-TS, DLPNO-Multilevel, CI-OPT
                                                   MM, QMMM, 2- and 3-layer-ONIOM, Crystal-QMMM,
                                                   LR-CPCM, SF, NACMEs, symmetry and pop. for TD-DFT,
                                                   nearIR, NL-DFT gradient (VV10), updates on ESD,
                                                   ML-optimized integration grids
   S Lehtola, MJT Oliveira, MAL Marques          : LibXC Library
   Liviu Ungur et al                             : ANISO software


 Your calculation uses the libint2 library for the computation of 2-el integrals
 For citations please refer to: http://libint.valeyev.net

 Your ORCA version has been built with support for libXC version: 5.1.0
 For citations please refer to: https://tddft.org/programs/libxc/

 This ORCA versions uses:
   CBLAS   interface :  Fast vector & matrix operations
   LAPACKE interface :  Fast linear algebra routines
   SCALAPACK package :  Parallel linear algebra routines
   Shared memory     :  Shared parallel matrices
   BLAS/LAPACK       :  OpenBLAS 0.3.15  USE64BITINT DYNAMIC_ARCH NO_AFFINITY SkylakeX SINGLE_THREADED
        Core in use  :  SkylakeX
   Copyright (c) 2011-2014, The OpenBLAS Project




***************************************
The coordinates will be read from file: /users/fjb15167/WWenergy/structures/Nse.xyz
***************************************


Your calculation utilizes the atom-pairwise dispersion correction
based on tight binding partial charges (D4)
Cite in your paper:
E.Caldeweyher, C.Bannwarth, S.Grimme, J.Chem.Phys., (2017), 147, 034112.
E.Caldeweyher, S.Ehlert, A.Hansen, H.Neugebauer, S.Grimme, J.Chem.Phys., (2018), in progress.
   

================================================================================

----- Orbital basis set information -----
Your calculation utilizes the basis: 6-31G(d)
   H-He, Li-Ne : W. J. Hehre, R. Ditchfield and J.A. Pople, J. Chem. Phys. 56, 2257 (1972).
                 Note: He and Ne are unpublished basis sets taken from the Gaussian program.
                 Note: Li and B from J. D. Dill and J. A. Pople, J. Chem. Phys. 62, 2921 (1975).
   Na - Ar     : M. M. Francl, W. J. Pietro, W. J. Hehre, J. S. Binkley, M. S. Gordon, 
                 D. J. DeFrees and J. A. Pople, J. Chem. Phys. 77, 3654 (1982).
   K - Zn      : V. A. Rassolov, J. A. Pople, M. A. Ratner, and T. L. Windus, J. Chem. Phys. 109, 1223 (1998).

----- AuxJ basis set information -----
Your calculation utilizes the AutoAux generation procedure.
  G. L. Stoychev, A. A. Auer, F. Neese, J. Chem. Theory Comput. 13, 554 (2017)

----- AuxC basis set information -----
Your calculation utilizes the AutoAux generation procedure.
  G. L. Stoychev, A. A. Auer, F. Neese, J. Chem. Theory Comput. 13, 554 (2017)

----- AuxJK basis set information -----
Your calculation utilizes the AutoAux generation procedure.
  G. L. Stoychev, A. A. Auer, F. Neese, J. Chem. Theory Comput. 13, 554 (2017)

================================================================================
                                        WARNINGS
                       Please study these warnings very carefully!
================================================================================


WARNING: Geometry Optimization
  ===> : Switching off AutoStart
         For restart on a previous wavefunction, please use MOREAD

INFO   : the flag for use of the SHARK integral package has been found!

================================================================================
                                       INPUT FILE
================================================================================
NAME = Nse_water.inp
|  1> ! OPT FREQ B3LYP 6-31G(d) D4 AUTOAUX CPCM(water)
|  2> 
|  3> %PAL NPROCS 4 END
|  4> 
|  5> %maxcore 3375
|  6> 
|  7> *xyzfile 0 1 /users/fjb15167/WWenergy/structures/Nse.xyz
|  8> 
|  9>                          ****END OF INPUT****
================================================================================

                       *****************************
                       * Geometry Optimization Run *
                       *****************************

Geometry optimization settings:
Update method            Update   .... BFGS
Choice of coordinates    CoordSys .... Z-matrix Internals
Initial Hessian          InHess   .... Almoef's Model

Convergence Tolerances:
Energy Change            TolE     ....  5.0000e-06 Eh
Max. Gradient            TolMAXG  ....  3.0000e-04 Eh/bohr
RMS Gradient             TolRMSG  ....  1.0000e-04 Eh/bohr
Max. Displacement        TolMAXD  ....  4.0000e-03 bohr
RMS Displacement         TolRMSD  ....  2.0000e-03 bohr
Strict Convergence                ....  False
------------------------------------------------------------------------------
                        ORCA OPTIMIZATION COORDINATE SETUP
------------------------------------------------------------------------------

The optimization will be done in new redundant internal coordinates
Making redundant internal coordinates   ...  (new redundants) done
Evaluating the initial hessian          ...  (Almloef) done
Evaluating the coordinates              ...  done
Calculating the B-matrix                .... done
Calculating the G-matrix                .... done
Diagonalizing the G-matrix              .... done
Small eigenvalue found = 5.825e-03
Small eigenvalue found = 8.684e-03
Small eigenvalue found = 1.606e-02
Small eigenvalue found = 1.870e-02
The first mode is                       ....   52
The number of degrees of freedom        ....   81

    -----------------------------------------------------------------
                    Redundant Internal Coordinates


    -----------------------------------------------------------------
         Definition                    Initial Value    Approx d2E/dq
    -----------------------------------------------------------------
      1. B(H   1,C   0)                  1.0902         0.359823   
      2. B(H   2,C   0)                  1.0940         0.354835   
      3. B(H   3,C   0)                  1.0901         0.359978   
      4. B(C   4,C   0)                  1.5318         0.371158   
      5. B(O   5,C   4)                  1.2186         1.050312   
      6. B(N   6,C   4)                  1.3812         0.578027   
      7. B(C   7,N   6)                  1.4584         0.435336   
      8. B(H   8,C   7)                  1.0959         0.352407   
      9. B(H   9,C   7)                  1.0913         0.358445   
     10. B(C  10,N   6)                  1.4576         0.436484   
     11. B(H  11,C  10)                  1.0913         0.358342   
     12. B(H  12,C  10)                  1.0975         0.350326   
     13. B(C  13,C  10)                  1.5212         0.385913   
     14. B(H  14,C  13)                  1.1013         0.345500   
     15. B(H  15,C  13)                  1.0943         0.354477   
     16. B(C  16,C   7)                  1.5242         0.381574   
     17. B(N  17,C  16)                  1.3648         0.613777   
     18. B(O  18,C  16)                  1.2413         0.966390   
     19. B(C  19,N  17)                  1.4545         0.441520   
     20. B(H  20,C  19)                  1.0935         0.355540   
     21. B(H  21,C  19)                  1.0982         0.349434   
     22. B(H  22,C  19)                  1.0889         0.361532   
     23. B(C  23,N  17)                  1.4573         0.436969   
     24. B(H  24,C  23)                  1.0939         0.354915   
     25. B(H  25,C  23)                  1.0875         0.363382   
     26. B(H  26,C  23)                  1.0962         0.351933   
     27. B(O  27,C  13)                  1.4297         0.483686   
     28. B(H  28,O  27)                  0.9717         0.498115   
     29. A(H   1,C   0,C   4)          111.6759         0.323932   
     30. A(H   2,C   0,H   3)          108.6436         0.290152   
     31. A(H   1,C   0,H   2)          108.7251         0.290133   
     32. A(H   1,C   0,H   3)          110.2734         0.290789   
     33. A(H   3,C   0,C   4)          106.3420         0.323955   
     34. A(H   2,C   0,C   4)          111.1285         0.323191   
     35. A(C   0,C   4,O   5)          121.1001         0.432315   
     36. A(O   5,C   4,N   6)          122.6787         0.465400   
     37. A(C   0,C   4,N   6)          116.2205         0.388908   
     38. A(C   4,N   6,C  10)          125.1306         0.397557   
     39. A(C   7,N   6,C  10)          116.6383         0.378380   
     40. A(C   4,N   6,C   7)          117.7946         0.397374   
     41. A(H   8,C   7,H   9)          109.0144         0.289646   
     42. A(N   6,C   7,H   9)          107.5226         0.330354   
     43. A(H   9,C   7,C  16)          112.9089         0.325204   
     44. A(H   8,C   7,C  16)          105.4336         0.324297   
     45. A(N   6,C   7,C  16)          111.9662         0.372036   
     46. A(N   6,C   7,H   8)          109.9601         0.329428   
     47. A(H  12,C  10,C  13)          108.3109         0.324584   
     48. A(H  11,C  10,C  13)          108.9397         0.325793   
     49. A(N   6,C  10,C  13)          114.3161         0.372930   
     50. A(H  11,C  10,H  12)          107.4788         0.289364   
     51. A(N   6,C  10,H  12)          108.1086         0.329249   
     52. A(N   6,C  10,H  11)          109.4663         0.330482   
     53. A(H  14,C  13,H  15)          107.9525         0.288246   
     54. A(H  15,C  13,O  27)          111.5062         0.335555   
     55. A(C  10,C  13,H  15)          110.4873         0.325213   
     56. A(C  10,C  13,H  14)          107.8446         0.323846   
     57. A(H  14,C  13,O  27)          111.1965         0.334127   
     58. A(C  10,C  13,O  27)          107.8031         0.379606   
     59. A(N  17,C  16,O  18)          122.8273         0.463423   
     60. A(C   7,C  16,O  18)          119.4166         0.428022   
     61. A(C   7,C  16,N  17)          117.7394         0.394920   
     62. A(C  16,N  17,C  19)          117.9451         0.402590   
     63. A(C  19,N  17,C  23)          115.6843         0.379378   
     64. A(C  16,N  17,C  23)          124.4382         0.401856   
     65. A(H  21,C  19,H  22)          109.2582         0.289651   
     66. A(H  20,C  19,H  22)          110.1757         0.290439   
     67. A(N  17,C  19,H  22)          108.5786         0.331596   
     68. A(H  20,C  19,H  21)          108.5793         0.288893   
     69. A(N  17,C  19,H  21)          110.9279         0.329735   
     70. A(N  17,C  19,H  20)          109.3174         0.330680   
     71. A(H  25,C  23,H  26)          108.4654         0.290207   
     72. A(H  24,C  23,H  26)          109.2871         0.289136   
     73. A(N  17,C  23,H  26)          110.6617         0.329558   
     74. A(H  24,C  23,H  25)          108.5701         0.290591   
     75. A(N  17,C  23,H  25)          111.5687         0.331308   
     76. A(N  17,C  23,H  24)          108.2430         0.330018   
     77. A(C  13,O  27,H  28)          107.7085         0.352185   
     78. D(O   5,C   4,C   0,H   2)    111.7775         0.010311   
     79. D(O   5,C   4,C   0,H   1)   -126.6251         0.010311   
     80. D(N   6,C   4,C   0,H   1)     53.0869         0.010311   
     81. D(N   6,C   4,C   0,H   2)    -68.5106         0.010311   
     82. D(O   5,C   4,C   0,H   3)     -6.2867         0.010311   
     83. D(N   6,C   4,C   0,H   3)    173.4253         0.010311   
     84. D(C   7,N   6,C   4,C   0)    174.7091         0.026786   
     85. D(C  10,N   6,C   4,C   0)      2.5686         0.026786   
     86. D(C   7,N   6,C   4,O   5)     -5.5839         0.026786   
     87. D(C  10,N   6,C   4,O   5)   -177.7244         0.026786   
     88. D(C  16,C   7,N   6,C   4)    126.3812         0.016159   
     89. D(H   9,C   7,N   6,C   4)      1.8045         0.016159   
     90. D(H   8,C   7,N   6,C  10)     56.0516         0.016159   
     91. D(H   9,C   7,N   6,C  10)    174.6171         0.016159   
     92. D(H   8,C   7,N   6,C   4)   -116.7610         0.016159   
     93. D(C  16,C   7,N   6,C  10)    -60.8062         0.016159   
     94. D(C  13,C  10,N   6,C   7)     87.9458         0.016244   
     95. D(C  13,C  10,N   6,C   4)    -99.8320         0.016244   
     96. D(H  12,C  10,N   6,C   7)    -32.7506         0.016244   
     97. D(H  12,C  10,N   6,C   4)    139.4716         0.016244   
     98. D(H  11,C  10,N   6,C   7)   -149.5424         0.016244   
     99. D(H  11,C  10,N   6,C   4)     22.6798         0.016244   
    100. D(O  27,C  13,C  10,H  11)    -63.9465         0.011851   
    101. D(O  27,C  13,C  10,N   6)     58.8516         0.011851   
    102. D(H  15,C  13,C  10,H  12)     57.3611         0.011851   
    103. D(H  15,C  13,C  10,H  11)    173.9791         0.011851   
    104. D(H  15,C  13,C  10,N   6)    -63.2229         0.011851   
    105. D(H  14,C  13,C  10,H  12)    -60.4106         0.011851   
    106. D(H  14,C  13,C  10,H  11)     56.2073         0.011851   
    107. D(O  27,C  13,C  10,H  12)    179.4356         0.011851   
    108. D(H  14,C  13,C  10,N   6)    179.0053         0.011851   
    109. D(O  18,C  16,C   7,H   9)   -131.8148         0.010859   
    110. D(O  18,C  16,C   7,H   8)    -12.8936         0.010859   
    111. D(O  18,C  16,C   7,N   6)    106.6581         0.010859   
    112. D(N  17,C  16,C   7,H   9)     49.6301         0.010859   
    113. D(N  17,C  16,C   7,H   8)    168.5513         0.010859   
    114. D(N  17,C  16,C   7,N   6)    -71.8969         0.010859   
    115. D(C  23,N  17,C  16,O  18)   -168.8595         0.030458   
    116. D(C  23,N  17,C  16,C   7)      9.6426         0.030458   
    117. D(C  19,N  17,C  16,O  18)     -5.3985         0.030458   
    118. D(C  19,N  17,C  16,C   7)    173.1037         0.030458   
    119. D(H  22,C  19,N  17,C  16)     20.4438         0.016623   
    120. D(H  21,C  19,N  17,C  23)     65.2720         0.016623   
    121. D(H  21,C  19,N  17,C  16)    -99.6273         0.016623   
    122. D(H  20,C  19,N  17,C  23)    -54.4322         0.016623   
    123. D(H  22,C  19,N  17,C  23)   -174.6569         0.016623   
    124. D(H  20,C  19,N  17,C  16)    140.6685         0.016623   
    125. D(H  26,C  23,N  17,C  19)    -72.8395         0.016280   
    126. D(H  26,C  23,N  17,C  16)     90.9573         0.016280   
    127. D(H  25,C  23,N  17,C  19)    166.2927         0.016280   
    128. D(H  25,C  23,N  17,C  16)    -29.9106         0.016280   
    129. D(H  24,C  23,N  17,C  19)     46.8954         0.016280   
    130. D(H  24,C  23,N  17,C  16)   -149.3078         0.016280   
    131. D(H  28,O  27,C  13,H  15)    -58.2601         0.018462   
    132. D(H  28,O  27,C  13,H  14)     62.2801         0.018462   
    133. D(H  28,O  27,C  13,C  10)   -179.7028         0.018462   
    -----------------------------------------------------------------

Number of atoms                         .... 29
Number of degrees of freedom            .... 133

         *************************************************************
         *                GEOMETRY OPTIMIZATION CYCLE   1            *
         *************************************************************
---------------------------------
CARTESIAN COORDINATES (ANGSTROEM)
---------------------------------
  C     -2.627000    1.776000   -0.500000
  H     -1.755000    2.429000   -0.542000
  H     -3.223000    2.042000    0.378000
  H     -3.241000    1.908000   -1.391000
  C     -2.226000    0.298000   -0.468000
  O     -2.684000   -0.496000   -1.271000
  N     -1.322000   -0.068000    0.510000
  C     -1.006000   -1.485000    0.648000
  H     -1.324000   -1.845000    1.633000
  H     -1.561000   -2.022000   -0.123000
  C     -0.777000    0.825000    1.525000
  H     -1.451000    1.672000    1.664000
  H     -0.736000    0.277000    2.475000
  C      0.617000    1.349000    1.215000
  H      0.915000    2.021000    2.035000
  H      1.336000    0.525000    1.176000
  C      0.495000   -1.743000    0.587000
  N      1.114000   -1.609000   -0.622000
  O      1.106000   -2.036000    1.627000
  C      2.565000   -1.703000   -0.659000
  H      2.869000   -2.256000   -1.552000
  H      3.022000   -0.705000   -0.693000
  H      2.902000   -2.222000    0.237000
  C      0.487000   -1.046000   -1.811000
  H      0.926000   -1.527000   -2.690000
  H     -0.586000   -1.223000   -1.819000
  H      0.661000    0.035000   -1.865000
  O      0.554000    2.049000   -0.030000
  H      1.446000    2.379000   -0.229000

----------------------------
CARTESIAN COORDINATES (A.U.)
----------------------------
  NO LB      ZA    FRAG     MASS         X           Y           Z
   0 C     6.0000    0    12.011   -4.964311    3.356154   -0.944863
   1 H     1.0000    0     1.008   -3.316469    4.590145   -1.024232
   2 H     1.0000    0     1.008   -6.090587    3.858821    0.714316
   3 H     1.0000    0     1.008   -6.124602    3.605597   -2.628609
   4 C     6.0000    0    12.011   -4.206530    0.563138   -0.884392
   5 O     8.0000    0    15.999   -5.072025   -0.937304   -2.401842
   6 N     7.0000    0    14.007   -2.498218   -0.128501    0.963760
   7 C     6.0000    0    12.011   -1.901064   -2.806243    1.224543
   8 H     1.0000    0     1.008   -2.501997   -3.486545    3.085923
   9 H     1.0000    0     1.008   -2.949862   -3.821026   -0.232436
  10 C     6.0000    0    12.011   -1.468317    1.559024    2.881832
  11 H     1.0000    0     1.008   -2.741993    3.159622    3.144504
  12 H     1.0000    0     1.008   -1.390838    0.523454    4.677072
  13 C     6.0000    0    12.011    1.165961    2.549241    2.296017
  14 H     1.0000    0     1.008    1.729099    3.819137    3.845593
  15 H     1.0000    0     1.008    2.524674    0.992106    2.222318
  16 C     6.0000    0    12.011    0.935414   -3.293793    1.109269
  17 N     7.0000    0    14.007    2.105155   -3.040569   -1.175410
  18 O     8.0000    0    15.999    2.090037   -3.847482    3.074584
  19 C     6.0000    0    12.011    4.847148   -3.218204   -1.245330
  20 H     1.0000    0     1.008    5.421624   -4.263222   -2.932855
  21 H     1.0000    0     1.008    5.710752   -1.332257   -1.309580
  22 H     1.0000    0     1.008    5.483985   -4.198971    0.447865
  23 C     6.0000    0    12.011    0.920297   -1.976654   -3.422294
  24 H     1.0000    0     1.008    1.749886   -2.885612   -5.083363
  25 H     1.0000    0     1.008   -1.107380   -2.311135   -3.437412
  26 H     1.0000    0     1.008    1.249109    0.066140   -3.524339
  27 O     8.0000    0    15.999    1.046908    3.872049   -0.056692
  28 H     1.0000    0     1.008    2.732544    4.495658   -0.432747

--------------------------------
INTERNAL COORDINATES (ANGSTROEM)
--------------------------------
 C      0   0   0     0.000000000000     0.00000000     0.00000000
 H      1   0   0     1.090209612873     0.00000000     0.00000000
 H      1   2   0     1.094009140730   108.72511220     0.00000000
 H      1   2   3     1.090092197936   110.27335506   119.01567465
 C      1   2   3     1.531766627134   111.67594868   237.02346708
 O      5   1   2     1.218609453435   121.10013708   233.37494446
 N      5   1   2     1.381179206331   116.22048692    53.08688263
 C      7   5   1     1.458351466554   117.79463547   174.70913823
 H      8   7   5     1.095878186661   109.96008958   243.23901906
 H      8   7   5     1.091253865973   107.52258583     1.80446666
 C      7   5   1     1.457634727907   125.13061404     2.56859919
 H     11   7   5     1.091332213398   109.46630869    22.67983302
 H     11   7   5     1.097490318864   108.10864737   139.47163010
 C     11   7   5     1.521154824467   114.31605160   260.16798893
 H     14  11   7     1.101266543576   107.84455491   179.00534127
 H     14  11   7     1.094284240954   110.48725951   296.77710697
 C      8   7   5     1.524232921833   111.96617841   126.38122932
 N     17   8   7     1.364843580781   117.73941049   288.10308111
 O     17   8   7     1.241277567670   119.41658166   106.65813705
 C     18  17   8     1.454512289395   117.94508571   173.10367286
 H     20  18  17     1.093468792422   109.31739958   140.66848039
 H     20  18  17     1.098184410743   110.92792768   260.37270810
 H     20  18  17     1.088919648092   108.57856015    20.44381074
 C     18  17   8     1.457332837755   124.43816366     9.64264357
 H     24  18  17     1.093948353443   108.24298357   210.69222344
 H     24  18  17     1.087530229465   111.56865642   330.08944254
 H     24  18  17     1.096244954378   110.66173472    90.95728296
 O     14  11   7     1.429683181687   107.80307651    58.85157525
 H     28  14  11     0.971681532190   107.70854030   180.29722642

---------------------------
INTERNAL COORDINATES (A.U.)
---------------------------
 C      0   0   0     0.000000000000     0.00000000     0.00000000
 H      1   0   0     2.060197596898     0.00000000     0.00000000
 H      1   2   0     2.067377663986   108.72511220     0.00000000
 H      1   2   3     2.059975714823   110.27335506   119.01567465
 C      1   2   3     2.894619426363   111.67594868   237.02346708
 O      5   1   2     2.302838131199   121.10013708   233.37494446
 N      5   1   2     2.610050441832   116.22048692    53.08688263
 C      7   5   1     2.755884878789   117.79463547   174.70913823
 H      8   7   5     2.070909648928   109.96008958   243.23901906
 H      8   7   5     2.062170949271   107.52258583     1.80446666
 C      7   5   1     2.754530439037   125.13061404     2.56859919
 H     11   7   5     2.062319004448   109.46630869    22.67983302
 H     11   7   5     2.073956137283   108.10864737   139.47163010
 C     11   7   5     2.874566025536   114.31605160   260.16798893
 H     14  11   7     2.081092167809   107.84455491   179.00534127
 H     14  11   7     2.067897528069   110.48725951   296.77710697
 C      8   7   5     2.880382786571   111.96617841   126.38122932
 N     17   8   7     2.579180583317   117.73941049   288.10308111
 O     17   8   7     2.345674659076   119.41658166   106.65813705
 C     18  17   8     2.748629885379   117.94508571   173.10367286
 H     20  18  17     2.066356553666   109.31739958   140.66848039
 H     20  18  17     2.075267780847   110.92792768   260.37270810
 H     20  18  17     2.057759916739   108.57856015    20.44381074
 C     18  17   8     2.753959949328   124.43816366     9.64264357
 H     24  18  17     2.067262792661   108.24298357   210.69222344
 H     24  18  17     2.055134296049   111.56865642   330.08944254
 H     24  18  17     2.071602739468   110.66173472    90.95728296
 O     14  11   7     2.701709671662   107.80307651    58.85157525
 H     28  14  11     1.836211985229   107.70854030   180.29722642

---------------------
BASIS SET INFORMATION
---------------------
There are 4 groups of distinct atoms

 Group   1 Type C   : 10s4p1d contracted to 3s2p1d pattern {631/31/1}
 Group   2 Type H   : 4s contracted to 2s pattern {31}
 Group   3 Type O   : 10s4p1d contracted to 3s2p1d pattern {631/31/1}
 Group   4 Type N   : 10s4p1d contracted to 3s2p1d pattern {631/31/1}

Atom   0C    basis set group =>   1
Atom   1H    basis set group =>   2
Atom   2H    basis set group =>   2
Atom   3H    basis set group =>   2
Atom   4C    basis set group =>   1
Atom   5O    basis set group =>   3
Atom   6N    basis set group =>   4
Atom   7C    basis set group =>   1
Atom   8H    basis set group =>   2
Atom   9H    basis set group =>   2
Atom  10C    basis set group =>   1
Atom  11H    basis set group =>   2
Atom  12H    basis set group =>   2
Atom  13C    basis set group =>   1
Atom  14H    basis set group =>   2
Atom  15H    basis set group =>   2
Atom  16C    basis set group =>   1
Atom  17N    basis set group =>   4
Atom  18O    basis set group =>   3
Atom  19C    basis set group =>   1
Atom  20H    basis set group =>   2
Atom  21H    basis set group =>   2
Atom  22H    basis set group =>   2
Atom  23C    basis set group =>   1
Atom  24H    basis set group =>   2
Atom  25H    basis set group =>   2
Atom  26H    basis set group =>   2
Atom  27O    basis set group =>   3
Atom  28H    basis set group =>   2
---------------------------------
AUXILIARY/J BASIS SET INFORMATION
---------------------------------
There are 4 groups of distinct atoms

 Group   1 Type C   : 13s11p10d2f contracted to 13s11p10d2f pattern {1111111111111/11111111111/1111111111/11}
 Group   2 Type H   : 9s2p contracted to 9s2p pattern {111111111/11}
 Group   3 Type O   : 14s11p10d2f contracted to 14s11p10d2f pattern {11111111111111/11111111111/1111111111/11}
 Group   4 Type N   : 14s11p10d2f contracted to 14s11p10d2f pattern {11111111111111/11111111111/1111111111/11}

Atom   0C    basis set group =>   1
Atom   1H    basis set group =>   2
Atom   2H    basis set group =>   2
Atom   3H    basis set group =>   2
Atom   4C    basis set group =>   1
Atom   5O    basis set group =>   3
Atom   6N    basis set group =>   4
Atom   7C    basis set group =>   1
Atom   8H    basis set group =>   2
Atom   9H    basis set group =>   2
Atom  10C    basis set group =>   1
Atom  11H    basis set group =>   2
Atom  12H    basis set group =>   2
Atom  13C    basis set group =>   1
Atom  14H    basis set group =>   2
Atom  15H    basis set group =>   2
Atom  16C    basis set group =>   1
Atom  17N    basis set group =>   4
Atom  18O    basis set group =>   3
Atom  19C    basis set group =>   1
Atom  20H    basis set group =>   2
Atom  21H    basis set group =>   2
Atom  22H    basis set group =>   2
Atom  23C    basis set group =>   1
Atom  24H    basis set group =>   2
Atom  25H    basis set group =>   2
Atom  26H    basis set group =>   2
Atom  27O    basis set group =>   3
Atom  28H    basis set group =>   2
---------------------------------
AUXILIARY/C BASIS SET INFORMATION
---------------------------------
There are 4 groups of distinct atoms

 Group   1 Type C   : 13s11p10d2f contracted to 13s11p10d2f pattern {1111111111111/11111111111/1111111111/11}
 Group   2 Type H   : 9s2p contracted to 9s2p pattern {111111111/11}
 Group   3 Type O   : 14s11p10d2f contracted to 14s11p10d2f pattern {11111111111111/11111111111/1111111111/11}
 Group   4 Type N   : 14s11p10d2f contracted to 14s11p10d2f pattern {11111111111111/11111111111/1111111111/11}

Atom   0C    basis set group =>   1
Atom   1H    basis set group =>   2
Atom   2H    basis set group =>   2
Atom   3H    basis set group =>   2
Atom   4C    basis set group =>   1
Atom   5O    basis set group =>   3
Atom   6N    basis set group =>   4
Atom   7C    basis set group =>   1
Atom   8H    basis set group =>   2
Atom   9H    basis set group =>   2
Atom  10C    basis set group =>   1
Atom  11H    basis set group =>   2
Atom  12H    basis set group =>   2
Atom  13C    basis set group =>   1
Atom  14H    basis set group =>   2
Atom  15H    basis set group =>   2
Atom  16C    basis set group =>   1
Atom  17N    basis set group =>   4
Atom  18O    basis set group =>   3
Atom  19C    basis set group =>   1
Atom  20H    basis set group =>   2
Atom  21H    basis set group =>   2
Atom  22H    basis set group =>   2
Atom  23C    basis set group =>   1
Atom  24H    basis set group =>   2
Atom  25H    basis set group =>   2
Atom  26H    basis set group =>   2
Atom  27O    basis set group =>   3
Atom  28H    basis set group =>   2
----------------------------------
AUXILIARY/JK BASIS SET INFORMATION
----------------------------------
There are 4 groups of distinct atoms

 Group   1 Type C   : 13s11p10d2f contracted to 13s11p10d2f pattern {1111111111111/11111111111/1111111111/11}
 Group   2 Type H   : 9s2p contracted to 9s2p pattern {111111111/11}
 Group   3 Type O   : 14s11p10d2f contracted to 14s11p10d2f pattern {11111111111111/11111111111/1111111111/11}
 Group   4 Type N   : 14s11p10d2f contracted to 14s11p10d2f pattern {11111111111111/11111111111/1111111111/11}

Atom   0C    basis set group =>   1
Atom   1H    basis set group =>   2
Atom   2H    basis set group =>   2
Atom   3H    basis set group =>   2
Atom   4C    basis set group =>   1
Atom   5O    basis set group =>   3
Atom   6N    basis set group =>   4
Atom   7C    basis set group =>   1
Atom   8H    basis set group =>   2
Atom   9H    basis set group =>   2
Atom  10C    basis set group =>   1
Atom  11H    basis set group =>   2
Atom  12H    basis set group =>   2
Atom  13C    basis set group =>   1
Atom  14H    basis set group =>   2
Atom  15H    basis set group =>   2
Atom  16C    basis set group =>   1
Atom  17N    basis set group =>   4
Atom  18O    basis set group =>   3
Atom  19C    basis set group =>   1
Atom  20H    basis set group =>   2
Atom  21H    basis set group =>   2
Atom  22H    basis set group =>   2
Atom  23C    basis set group =>   1
Atom  24H    basis set group =>   2
Atom  25H    basis set group =>   2
Atom  26H    basis set group =>   2
Atom  27O    basis set group =>   3
Atom  28H    basis set group =>   2


           ************************************************************
           *        Program running with 4 parallel MPI-processes     *
           *              working on a common directory               *
           ************************************************************
------------------------------------------------------------------------------
                           ORCA GTO INTEGRAL CALCULATION
                           -- RI-GTO INTEGRALS CHOSEN --
------------------------------------------------------------------------------
------------------------------------------------------------------------------
                   ___                                                        
                  /   \      - P O W E R E D   B Y -                         
                 /     \                                                     
                 |  |  |   _    _      __       _____    __    __             
                 |  |  |  | |  | |    /  \     |  _  \  |  |  /  |          
                  \  \/   | |  | |   /    \    | | | |  |  | /  /          
                 / \  \   | |__| |  /  /\  \   | |_| |  |  |/  /          
                |  |  |   |  __  | /  /__\  \  |    /   |      \           
                |  |  |   | |  | | |   __   |  |    \   |  |\   \          
                \     /   | |  | | |  |  |  |  | |\  \  |  | \   \       
                 \___/    |_|  |_| |__|  |__|  |_| \__\ |__|  \__/        
                                                                              
                      - O R C A' S   B I G   F R I E N D -                    
                                      &                                       
                       - I N T E G R A L  F E E D E R -                       
                                                                              
 v1 FN, 2020, v2 2021                                                         
------------------------------------------------------------------------------


Reading SHARK input file Nse_water.SHARKINP.tmp ... ok
----------------------
SHARK INTEGRAL PACKAGE
----------------------

Number of atoms                             ...     29
Number of basis functions                   ...    214
Number of shells                            ...    110
Maximum angular momentum                    ...      2
Integral batch strategy                     ... SHARK/LIBINT Hybrid
RI-J (if used) integral strategy            ... SPLIT-RIJ (Revised 2003 algorithm where possible)
Printlevel                                  ...      1
Contraction scheme used                     ... SEGMENTED contraction
Coulomb Range Separation                    ... NOT USED
Exchange Range Separation                   ... NOT USED
Finite Nucleus Model                        ... NOT USED
Auxiliary Coulomb fitting basis             ... AVAILABLE
   # of basis functions in Aux-J            ...   1675
   # of shells in Aux-J                     ...    649
   Maximum angular momentum in Aux-J        ...      3
Auxiliary J/K fitting basis                 ... AVAILABLE
   # of basis functions in Aux-JK           ...   1675
   # of shells in Aux-JK                    ...    649
   Maximum angular momentum in Aux-JK       ...      3
Auxiliary Correlation fitting basis         ... AVAILABLE
   # of basis functions in Aux-C            ...   1675
   # of shells in Aux-C                     ...    649
   Maximum angular momentum in Aux-C        ...      3
Auxiliary 'external' fitting basis          ... NOT available
Integral threshold                          ...     2.500000e-11
Primitive cut-off                           ...     2.500000e-12
Primitive pair pre-selection threshold      ...     2.500000e-12

Calculating pre-screening integrals         ... done (  0.0 sec) Dimension = 110
Organizing shell pair data                  ... done (  0.0 sec)
Shell pair information
Total number of shell pairs                 ...      6105
Shell pairs after pre-screening             ...      5532
Total number of primitive shell pairs       ...     33991
Primitive shell pairs kept                  ...     18427
          la=0 lb=0:   2227 shell pairs
          la=1 lb=0:   1741 shell pairs
          la=1 lb=1:    345 shell pairs
          la=2 lb=0:    807 shell pairs
          la=2 lb=1:    327 shell pairs
          la=2 lb=2:     85 shell pairs

Calculating one electron integrals          ... done (  0.0 sec)
Calculating RI/J V-Matrix + Cholesky decomp.... done (  0.3 sec)
Calculating RI/JK V-Matrix + Cholesky decomp... done (  0.2 sec)
Calculating RI/C V-Matrix + Cholesky decomp.... done (  0.2 sec)
Calculating Nuclear repulsion               ... done (  0.0 sec) ENN=    911.200231397778 Eh

SHARK setup successfully completed in   1.0 seconds

Maximum memory used throughout the entire GTOINT-calculation: 26.1 MB


           ************************************************************
           *        Program running with 4 parallel MPI-processes     *
           *              working on a common directory               *
           ************************************************************
-------------------------------------------------------------------------------
                                 ORCA SCF
-------------------------------------------------------------------------------

------------
SCF SETTINGS
------------
Hamiltonian:
 Density Functional     Method          .... DFT(GTOs)
 Exchange Functional    Exchange        .... B88
   X-Alpha parameter    XAlpha          ....  0.666667
   Becke's b parameter  XBeta           ....  0.004200
 Correlation Functional Correlation     .... LYP
 LDA part of GGA corr.  LDAOpt          .... VWN-5
 Gradients option       PostSCFGGA      .... off
 Hybrid DFT is turned on
   Fraction HF Exchange ScalHFX         ....  0.200000
   Scaling of DF-GGA-X  ScalDFX         ....  0.720000
   Scaling of DF-GGA-C  ScalDFC         ....  0.810000
   Scaling of DF-LDA-C  ScalLDAC        ....  1.000000
   Perturbative correction              ....  0.000000
   Density functional embedding theory  .... OFF
   NL short-range parameter             ....  4.800000
 RI-approximation to the Coulomb term is turned on
   Number of AuxJ basis functions       .... 1675
   RIJ-COSX (HFX calculated with COS-X)).... on


General Settings:
 Integral files         IntName         .... Nse_water
 Hartree-Fock type      HFTyp           .... RHF
 Total Charge           Charge          ....    0
 Multiplicity           Mult            ....    1
 Number of Electrons    NEL             ....  102
 Basis Dimension        Dim             ....  214
 Nuclear Repulsion      ENuc            ....    911.2002313978 Eh

Convergence Acceleration:
 DIIS                   CNVDIIS         .... on
   Start iteration      DIISMaxIt       ....    12
   Startup error        DIISStart       ....  0.200000
   # of expansion vecs  DIISMaxEq       ....     5
   Bias factor          DIISBfac        ....   1.050
   Max. coefficient     DIISMaxC        ....  10.000
 Trust-Rad. Augm. Hess. CNVTRAH         .... auto
   Auto Start mean grad. ratio tolernc. ....  1.125000
   Auto Start start iteration           ....    20
   Auto Start num. interpolation iter.  ....    10
   Max. Number of Micro iterations      ....    16
   Max. Number of Macro iterations      .... Maxiter - #DIIS iter
   Number of Davidson start vectors     ....     2
   Converg. threshold I  (grad. norm)   ....   1.000e-05
   Converg. threshold II (energy diff.) ....   1.000e-08
   Grad. Scal. Fac. for Micro threshold ....   0.100
   Minimum threshold for Micro iter.    ....   0.010
   NR start threshold (gradient norm)   ....   0.001
   Initial trust radius                 ....   0.400
   Minimum AH scaling param. (alpha)    ....   1.000
   Maximum AH scaling param. (alpha)    .... 1000.000
   Orbital update algorithm             .... Taylor
   White noise on init. David. guess    .... on
   Maximum white noise                  ....   0.010
   Quad. conv. algorithm                .... NR
 SOSCF                  CNVSOSCF        .... on
   Start iteration      SOSCFMaxIt      ....   150
   Startup grad/error   SOSCFStart      ....  0.003300
 Level Shifting         CNVShift        .... on
   Level shift para.    LevelShift      ....    0.2500
   Turn off err/grad.   ShiftErr        ....    0.0010
 Zerner damping         CNVZerner       .... off
 Static damping         CNVDamp         .... on
   Fraction old density DampFac         ....    0.7000
   Max. Damping (<1)    DampMax         ....    0.9800
   Min. Damping (>=0)   DampMin         ....    0.0000
   Turn off err/grad.   DampErr         ....    0.1000
 Fernandez-Rico         CNVRico         .... off

SCF Procedure:
 Maximum # iterations   MaxIter         ....   125
 SCF integral mode      SCFMode         .... Direct
   Integral package                     .... SHARK and LIBINT hybrid scheme
 Reset frequency        DirectResetFreq ....    20
 Integral Threshold     Thresh          ....  2.500e-11 Eh
 Primitive CutOff       TCut            ....  2.500e-12 Eh

Convergence Tolerance:
 Convergence Check Mode ConvCheckMode   .... Total+1el-Energy
 Convergence forced     ConvForced      .... 0
 Energy Change          TolE            ....  1.000e-08 Eh
 1-El. energy change                    ....  1.000e-05 Eh
 Orbital Gradient       TolG            ....  1.000e-05
 Orbital Rotation angle TolX            ....  1.000e-05
 DIIS Error             TolErr          ....  5.000e-07


Diagonalization of the overlap matrix:
Smallest eigenvalue                        ... 3.213e-03
Time for diagonalization                   ...    0.008 sec
Threshold for overlap eigenvalues          ... 1.000e-08
Number of eigenvalues below threshold      ... 0
Time for construction of square roots      ...    0.004 sec
Total time needed                          ...    0.012 sec

Time for model grid setup =    0.240 sec

------------------------------
INITIAL GUESS: MODEL POTENTIAL
------------------------------
Loading Hartree-Fock densities                     ... done
Calculating cut-offs                               ... done
Initializing the effective Hamiltonian             ... done
Setting up the integral package (SHARK)            ... done
Starting the Coulomb interaction                   ... done (   0.7 sec)
Reading the grid                                   ... done
Mapping shells                                     ... done
Starting the XC term evaluation                    ... done (   0.2 sec)
  promolecular density results
     # of electrons  =    101.989634569
     EX              =    -83.654284209
     EC              =     -3.465780594
     EX+EC           =    -87.120064802
Transforming the Hamiltonian                       ... done (   0.0 sec)
Diagonalizing the Hamiltonian                      ... done (   0.0 sec)
Back transforming the eigenvectors                 ... done (   0.0 sec)
Now organizing SCF variables                       ... done
                      ------------------
                      INITIAL GUESS DONE (   1.1 sec)
                      ------------------
-------------------
DFT GRID GENERATION
-------------------

General Integration Accuracy     IntAcc      ... 4.388
Radial Grid Type                 RadialGrid  ... OptM3 with GC (2021)
Angular Grid (max. ang.)         AngularGrid ... 4 (Lebedev-302)
Angular grid pruning method      GridPruning ... 4 (adaptive)
Weight generation scheme         WeightScheme... Becke
Basis function cutoff            BFCut       ... 1.0000e-11
Integration weight cutoff        WCut        ... 1.0000e-14
Angular grids for H and He will be reduced by one unit
Partially contracted basis set               ... off
Rotationally invariant grid construction     ... off

Total number of grid points                  ...   128642
Total number of batches                      ...     2022
Average number of points per batch           ...       63
Average number of grid points per atom       ...     4436
Time for grid setup =    1.024 sec

--------------------
COSX GRID GENERATION
--------------------

GRIDX 1
-------
General Integration Accuracy     IntAcc      ... 3.816
Radial Grid Type                 RadialGrid  ... OptM3 with GC (2021)
Angular Grid (max. ang.)         AngularGrid ... 1 (Lebedev-50)
Angular grid pruning method      GridPruning ... 4 (adaptive)
Weight generation scheme         WeightScheme... Becke
Basis function cutoff            BFCut       ... 1.0000e-11
Integration weight cutoff        WCut        ... 1.0000e-14
Angular grids for H and He will be reduced by one unit
Partially contracted basis set               ... on
Rotationally invariant grid construction     ... off

Total number of grid points                  ...    16410
Total number of batches                      ...      274
Average number of points per batch           ...       59
Average number of grid points per atom       ...      566
UseSFitting                                  ... on

GRIDX 2
-------
General Integration Accuracy     IntAcc      ... 4.020
Radial Grid Type                 RadialGrid  ... OptM3 with GC (2021)
Angular Grid (max. ang.)         AngularGrid ... 2 (Lebedev-110)
Angular grid pruning method      GridPruning ... 4 (adaptive)
Weight generation scheme         WeightScheme... Becke
Basis function cutoff            BFCut       ... 1.0000e-11
Integration weight cutoff        WCut        ... 1.0000e-14
Angular grids for H and He will be reduced by one unit
Partially contracted basis set               ... on
Rotationally invariant grid construction     ... off

Total number of grid points                  ...    34731
Total number of batches                      ...      558
Average number of points per batch           ...       62
Average number of grid points per atom       ...     1198
UseSFitting                                  ... on

GRIDX 3
-------
General Integration Accuracy     IntAcc      ... 4.338
Radial Grid Type                 RadialGrid  ... OptM3 with GC (2021)
Angular Grid (max. ang.)         AngularGrid ... 3 (Lebedev-194)
Angular grid pruning method      GridPruning ... 4 (adaptive)
Weight generation scheme         WeightScheme... Becke
Basis function cutoff            BFCut       ... 1.0000e-11
Integration weight cutoff        WCut        ... 1.0000e-14
Angular grids for H and He will be reduced by one unit
Partially contracted basis set               ... on
Rotationally invariant grid construction     ... off

Total number of grid points                  ...    75708
Total number of batches                      ...     1198
Average number of points per batch           ...       63
Average number of grid points per atom       ...     2611
UseSFitting                                  ... on

Time for X-Grid setup             =    1.925 sec


--------------------
CPCM SOLVATION MODEL
--------------------
CPCM parameters:
  Epsilon                                         ...      80.4000
  Refrac                                          ...       1.3300
  Rsolv                                           ...       1.3000
  Surface type                                    ... GAUSSIAN VDW
  Epsilon function type                           ...         CPCM
Radii:
 Radius for C  used is    3.8550 Bohr (=   2.0400 Ang.)
 Radius for H  used is    2.4944 Bohr (=   1.3200 Ang.)
 Radius for O  used is    3.4469 Bohr (=   1.8240 Ang.)
 Radius for N  used is    3.5149 Bohr (=   1.8600 Ang.)
Calculating surface                               ...        done! (  0.0s)
GEPOL surface points                              ...         1509
GEPOL Volume                                      ...    1576.8292
GEPOL Surface-area                                ...     822.9086
Calculating surface distance matrix               ...        done! (  0.0s)
Performing Cholesky decomposition & store         ...        done! (  0.1s)
Overall time for CPCM initialization              ...                 0.1s
--------------
SCF ITERATIONS
--------------
ITER       Energy         Delta-E        Max-DP      RMS-DP      [F,P]     Damp
               ***  Starting incremental Fock matrix formation  ***
  0   -648.8948301307   0.000000000000 0.09802680  0.00231349  0.2766067 0.7000
  1   -649.0830740705  -0.188243939749 0.05751790  0.00151144  0.1141662 0.7000
                               ***Turning on DIIS***
  2   -649.1538184341  -0.070744363574 0.06546782  0.00228045  0.0384845 0.0000
  3   -649.2706509521  -0.116832517999 0.03750355  0.00103456  0.0553501 0.0000
  4   -649.2931591266  -0.022508174506 0.00906108  0.00032324  0.0119334 0.0000
  5   -649.2945914215  -0.001432294945 0.00342036  0.00009488  0.0046988 0.0000
                      *** Initiating the SOSCF procedure ***
                           *** Shutting down DIIS ***
                      *** Re-Reading the Fockian *** 
                      *** Removing any level shift *** 
ITER      Energy       Delta-E        Grad      Rot      Max-DP    RMS-DP
  6   -649.29468070  -0.0000892771  0.000207  0.000207  0.001350  0.000043
               *** Restarting incremental Fock matrix formation ***
  7   -649.29471168  -0.0000309765  0.000280  0.001110  0.001676  0.000030
  8   -649.29470608   0.0000055910  0.000552  0.000790  0.001118  0.000020
  9   -649.29471465  -0.0000085704  0.000065  0.000170  0.000350  0.000007
 10   -649.29471434   0.0000003114  0.000119  0.000110  0.000237  0.000004
 11   -649.29471478  -0.0000004385  0.000004  0.000006  0.000021  0.000001
 12   -649.29471478   0.0000000011  0.000004  0.000003  0.000011  0.000000
                  ***Gradient check signals convergence***
              ***Rediagonalizing the Fockian in SOSCF/NRSCF***

               *****************************************************
               *                     SUCCESS                       *
               *           SCF CONVERGED AFTER  13 CYCLES          *
               *****************************************************

Old exchange energy                            =    -17.038861208 Eh
New exchange energy                            =    -17.038832242 Eh
Exchange energy change after final integration =      0.000028966 Eh
Total energy after final integration           =   -649.294685819 Eh
Final COS-X integration done in                =     7.801 sec

----------------
TOTAL SCF ENERGY
----------------

Total Energy       :         -649.29468582 Eh          -17668.20664 eV

Components:
Nuclear Repulsion  :          911.20023140 Eh           24795.01885 eV
Electronic Energy  :        -1560.49491722 Eh          -42463.22549 eV
One Electron Energy:        -2694.23055253 Eh          -73313.74053 eV
Two Electron Energy:         1133.73563532 Eh           30850.51505 eV
Max COSX asymmetry :            0.00000277 Eh               0.00008 eV
CPCM Dielectric    :           -0.02208265 Eh              -0.60090 eV

Virial components:
Potential Energy   :        -1294.84214215 Eh          -35234.44597 eV
Kinetic Energy     :          645.54745634 Eh           17566.23934 eV
Virial Ratio       :            2.00580473


DFT components:
N(Alpha)           :       51.000232014461 electrons
N(Beta)            :       51.000232014461 electrons
N(Total)           :      102.000464028922 electrons
E(X)               :      -67.680679605024 Eh       
E(C)               :       -4.082131184065 Eh       
E(XC)              :      -71.762810789089 Eh       
DFET-embed. en.    :        0.000000000000 Eh       
CPCM Solvation Model Properties:
Surface-charge          :           -0.01796941
Charge-correction       :           -0.00012907 Eh              -0.00351 eV
Free-energy (cav+disp)  :  This term is not implemented in the current solvation scheme

---------------
SCF CONVERGENCE
---------------

  Last Energy change         ...   -3.7435e-09  Tolerance :   1.0000e-08
  Last MAX-Density change    ...    4.4409e-15  Tolerance :   1.0000e-07
  Last RMS-Density change    ...    5.4557e-17  Tolerance :   5.0000e-09
  Last Orbital Gradient      ...    4.0577e-07  Tolerance :   1.0000e-05
  Last Orbital Rotation      ...    1.0267e-06  Tolerance :   1.0000e-05

             **** THE GBW FILE WAS UPDATED (Nse_water.gbw) ****
             **** DENSITY Nse_water.scfp WAS UPDATED ****
             **** ENERGY FILE WAS UPDATED (Nse_water.en.tmp) ****
             **** THE GBW FILE WAS UPDATED (Nse_water.gbw) ****
             **** DENSITY Nse_water.scfp WAS UPDATED ****
----------------
ORBITAL ENERGIES
----------------

  NO   OCC          E(Eh)            E(eV) 
   0   2.0000     -19.137482      -520.7574 
   1   2.0000     -19.113334      -520.1003 
   2   2.0000     -19.107649      -519.9456 
   3   2.0000     -14.357647      -390.6914 
   4   2.0000     -14.356811      -390.6687 
   5   2.0000     -10.283112      -279.8177 
   6   2.0000     -10.277919      -279.6764 
   7   2.0000     -10.218711      -278.0653 
   8   2.0000     -10.209662      -277.8190 
   9   2.0000     -10.208340      -277.7831 
  10   2.0000     -10.194340      -277.4021 
  11   2.0000     -10.193732      -277.3856 
  12   2.0000     -10.166564      -276.6463 
  13   2.0000      -1.040416       -28.3112 
  14   2.0000      -1.025997       -27.9188 
  15   2.0000      -1.012409       -27.5490 
  16   2.0000      -0.933847       -25.4113 
  17   2.0000      -0.924876       -25.1672 
  18   2.0000      -0.760957       -20.7067 
  19   2.0000      -0.744356       -20.2550 
  20   2.0000      -0.714279       -19.4365 
  21   2.0000      -0.702432       -19.1141 
  22   2.0000      -0.666396       -18.1336 
  23   2.0000      -0.627080       -17.0637 
  24   2.0000      -0.550480       -14.9793 
  25   2.0000      -0.537609       -14.6291 
  26   2.0000      -0.518139       -14.0993 
  27   2.0000      -0.510163       -13.8823 
  28   2.0000      -0.476860       -12.9760 
  29   2.0000      -0.470151       -12.7935 
  30   2.0000      -0.462117       -12.5749 
  31   2.0000      -0.454111       -12.3570 
  32   2.0000      -0.450291       -12.2530 
  33   2.0000      -0.432831       -11.7779 
  34   2.0000      -0.411482       -11.1970 
  35   2.0000      -0.402937       -10.9645 
  36   2.0000      -0.400235       -10.8909 
  37   2.0000      -0.393871       -10.7178 
  38   2.0000      -0.392776       -10.6880 
  39   2.0000      -0.391412       -10.6509 
  40   2.0000      -0.384944       -10.4749 
  41   2.0000      -0.375356       -10.2140 
  42   2.0000      -0.370018       -10.0687 
  43   2.0000      -0.356045        -9.6885 
  44   2.0000      -0.350233        -9.5303 
  45   2.0000      -0.333711        -9.0807 
  46   2.0000      -0.268570        -7.3082 
  47   2.0000      -0.258931        -7.0459 
  48   2.0000      -0.254472        -6.9245 
  49   2.0000      -0.235629        -6.4118 
  50   2.0000      -0.235029        -6.3955 
  51   0.0000       0.016530         0.4498 
  52   0.0000       0.030382         0.8267 
  53   0.0000       0.075845         2.0638 
  54   0.0000       0.114685         3.1207 
  55   0.0000       0.119065         3.2399 
  56   0.0000       0.127286         3.4636 
  57   0.0000       0.136603         3.7171 
  58   0.0000       0.146458         3.9853 
  59   0.0000       0.154723         4.2102 
  60   0.0000       0.167979         4.5709 
  61   0.0000       0.168792         4.5931 
  62   0.0000       0.174105         4.7376 
  63   0.0000       0.180866         4.9216 
  64   0.0000       0.187765         5.1094 
  65   0.0000       0.194217         5.2849 
  66   0.0000       0.199173         5.4198 
  67   0.0000       0.203407         5.5350 
  68   0.0000       0.209874         5.7110 
  69   0.0000       0.212375         5.7790 
  70   0.0000       0.224360         6.1051 
  71   0.0000       0.231036         6.2868 
  72   0.0000       0.236032         6.4228 
  73   0.0000       0.247122         6.7245 
  74   0.0000       0.249969         6.8020 
  75   0.0000       0.269786         7.3413 
  76   0.0000       0.287469         7.8224 
  77   0.0000       0.335355         9.1255 
  78   0.0000       0.360146         9.8001 
  79   0.0000       0.378150        10.2900 
  80   0.0000       0.419154        11.4058 
  81   0.0000       0.475292        12.9334 
  82   0.0000       0.499978        13.6051 
  83   0.0000       0.505575        13.7574 
  84   0.0000       0.522616        14.2211 
  85   0.0000       0.533141        14.5075 
  86   0.0000       0.537562        14.6278 
  87   0.0000       0.564469        15.3600 
  88   0.0000       0.571442        15.5497 
  89   0.0000       0.577733        15.7209 
  90   0.0000       0.593653        16.1541 
  91   0.0000       0.611022        16.6268 
  92   0.0000       0.611765        16.6470 
  93   0.0000       0.635064        17.2810 
  94   0.0000       0.648527        17.6473 
  95   0.0000       0.667883        18.1740 
  96   0.0000       0.677026        18.4228 
  97   0.0000       0.689727        18.7684 
  98   0.0000       0.697634        18.9836 
  99   0.0000       0.724219        19.7070 
 100   0.0000       0.742708        20.2101 
 101   0.0000       0.759275        20.6609 
 102   0.0000       0.775375        21.0990 
 103   0.0000       0.800823        21.7915 
 104   0.0000       0.802759        21.8442 
 105   0.0000       0.818997        22.2860 
 106   0.0000       0.825940        22.4750 
 107   0.0000       0.842454        22.9243 
 108   0.0000       0.849046        23.1037 
 109   0.0000       0.856365        23.3029 
 110   0.0000       0.872843        23.7513 
 111   0.0000       0.878281        23.8992 
 112   0.0000       0.884604        24.0713 
 113   0.0000       0.888313        24.1722 
 114   0.0000       0.898971        24.4623 
 115   0.0000       0.911804        24.8115 
 116   0.0000       0.927744        25.2452 
 117   0.0000       0.930705        25.3258 
 118   0.0000       0.941322        25.6147 
 119   0.0000       0.942220        25.6391 
 120   0.0000       0.962209        26.1830 
 121   0.0000       0.970912        26.4198 
 122   0.0000       0.979271        26.6473 
 123   0.0000       0.993255        27.0278 
 124   0.0000       1.011746        27.5310 
 125   0.0000       1.023401        27.8482 
 126   0.0000       1.030192        28.0330 
 127   0.0000       1.046392        28.4738 
 128   0.0000       1.052888        28.6505 
 129   0.0000       1.097406        29.8619 
 130   0.0000       1.110648        30.2223 
 131   0.0000       1.126782        30.6613 
 132   0.0000       1.134505        30.8714 
 133   0.0000       1.162061        31.6213 
 134   0.0000       1.196280        32.5524 
 135   0.0000       1.237536        33.6751 
 136   0.0000       1.264373        34.4053 
 137   0.0000       1.284288        34.9473 
 138   0.0000       1.293256        35.1913 
 139   0.0000       1.325334        36.0642 
 140   0.0000       1.360504        37.0212 
 141   0.0000       1.374572        37.4040 
 142   0.0000       1.408183        38.3186 
 143   0.0000       1.425294        38.7842 
 144   0.0000       1.440875        39.2082 
 145   0.0000       1.447472        39.3877 
 146   0.0000       1.469239        39.9800 
 147   0.0000       1.495722        40.7007 
 148   0.0000       1.552592        42.2482 
 149   0.0000       1.594231        43.3812 
 150   0.0000       1.600798        43.5599 
 151   0.0000       1.611786        43.8589 
 152   0.0000       1.660757        45.1915 
 153   0.0000       1.703819        46.3633 
 154   0.0000       1.737802        47.2880 
 155   0.0000       1.760029        47.8928 
 156   0.0000       1.768584        48.1256 
 157   0.0000       1.770647        48.1818 
 158   0.0000       1.787281        48.6344 
 159   0.0000       1.803574        49.0778 
 160   0.0000       1.825985        49.6876 
 161   0.0000       1.836278        49.9677 
 162   0.0000       1.855816        50.4993 
 163   0.0000       1.874888        51.0183 
 164   0.0000       1.898643        51.6647 
 165   0.0000       1.915931        52.1351 
 166   0.0000       1.932932        52.5978 
 167   0.0000       1.952133        53.1202 
 168   0.0000       1.958609        53.2965 
 169   0.0000       1.977304        53.8052 
 170   0.0000       1.998593        54.3845 
 171   0.0000       2.022500        55.0350 
 172   0.0000       2.033742        55.3409 
 173   0.0000       2.036968        55.4287 
 174   0.0000       2.051766        55.8314 
 175   0.0000       2.059112        56.0313 
 176   0.0000       2.089685        56.8632 
 177   0.0000       2.097996        57.0894 
 178   0.0000       2.111808        57.4652 
 179   0.0000       2.120390        57.6987 
 180   0.0000       2.159080        58.7516 
 181   0.0000       2.196910        59.7810 
 182   0.0000       2.206728        60.0481 
 183   0.0000       2.239896        60.9507 
 184   0.0000       2.268553        61.7305 
 185   0.0000       2.282021        62.0970 
 186   0.0000       2.294117        62.4261 
 187   0.0000       2.300839        62.6090 
 188   0.0000       2.318478        63.0890 
 189   0.0000       2.343576        63.7719 
 190   0.0000       2.379126        64.7393 
 191   0.0000       2.383869        64.8684 
 192   0.0000       2.405169        65.4480 
 193   0.0000       2.423670        65.9514 
 194   0.0000       2.436222        66.2930 
 195   0.0000       2.461992        66.9942 
 196   0.0000       2.514276        68.4169 
 197   0.0000       2.529227        68.8238 
 198   0.0000       2.562218        69.7215 
 199   0.0000       2.578325        70.1598 
 200   0.0000       2.613775        71.1244 
 201   0.0000       2.649668        72.1011 
 202   0.0000       2.662685        72.4553 
 203   0.0000       2.685106        73.0654 
 204   0.0000       2.715737        73.8990 
 205   0.0000       2.735151        74.4272 
 206   0.0000       2.742316        74.6222 
 207   0.0000       2.861609        77.8684 
 208   0.0000       2.935936        79.8909 
 209   0.0000       2.964344        80.6639 
 210   0.0000       3.002818        81.7108 
 211   0.0000       3.011362        81.9433 
 212   0.0000       3.163377        86.0799 
 213   0.0000       3.185414        86.6795 

                    ********************************
                    * MULLIKEN POPULATION ANALYSIS *
                    ********************************

-----------------------
MULLIKEN ATOMIC CHARGES
-----------------------
   0 C :   -0.570294
   1 H :    0.198426
   2 H :    0.192087
   3 H :    0.172098
   4 C :    0.530769
   5 O :   -0.515028
   6 N :   -0.368020
   7 C :   -0.250747
   8 H :    0.177088
   9 H :    0.204715
  10 C :   -0.182081
  11 H :    0.185546
  12 H :    0.178295
  13 C :   -0.030430
  14 H :    0.146311
  15 H :    0.157140
  16 C :    0.523021
  17 N :   -0.360065
  18 O :   -0.550656
  19 C :   -0.330604
  20 H :    0.171870
  21 H :    0.170301
  22 H :    0.182667
  23 C :   -0.347115
  24 H :    0.169686
  25 H :    0.192800
  26 H :    0.170253
  27 O :   -0.654942
  28 H :    0.436908
Sum of atomic charges:    0.0000000

--------------------------------
MULLIKEN REDUCED ORBITAL CHARGES
--------------------------------
  0 C s       :     3.326919  s :     3.326919
      pz      :     1.103797  p :     3.211745
      px      :     1.104053
      py      :     1.003896
      dz2     :     0.007113  d :     0.031629
      dxz     :     0.008910
      dyz     :     0.002443
      dx2y2   :     0.005541
      dxy     :     0.007623
  1 H s       :     0.801574  s :     0.801574
  2 H s       :     0.807913  s :     0.807913
  3 H s       :     0.827902  s :     0.827902
  4 C s       :     2.981508  s :     2.981508
      pz      :     0.769402  p :     2.377415
      px      :     0.769068
      py      :     0.838945
      dz2     :     0.028617  d :     0.110308
      dxz     :     0.020128
      dyz     :     0.020595
      dx2y2   :     0.024912
      dxy     :     0.016056
  5 O s       :     3.849929  s :     3.849929
      pz      :     1.485310  p :     4.638999
      px      :     1.563256
      py      :     1.590433
      dz2     :     0.006692  d :     0.026100
      dxz     :     0.004328
      dyz     :     0.006310
      dx2y2   :     0.003766
      dxy     :     0.005005
  6 N s       :     3.532013  s :     3.532013
      pz      :     1.277508  p :     3.799705
      px      :     1.421006
      py      :     1.101192
      dz2     :     0.007605  d :     0.036302
      dxz     :     0.005374
      dyz     :     0.008779
      dx2y2   :     0.007876
      dxy     :     0.006668
  7 C s       :     3.249133  s :     3.249133
      pz      :     1.136167  p :     2.949626
      px      :     0.979281
      py      :     0.834178
      dz2     :     0.010342  d :     0.051988
      dxz     :     0.006350
      dyz     :     0.010486
      dx2y2   :     0.013940
      dxy     :     0.010869
  8 H s       :     0.822912  s :     0.822912
  9 H s       :     0.795285  s :     0.795285
 10 C s       :     3.218681  s :     3.218681
      pz      :     0.936274  p :     2.909847
      px      :     0.978169
      py      :     0.995403
      dz2     :     0.012298  d :     0.053552
      dxz     :     0.006539
      dyz     :     0.012994
      dx2y2   :     0.006716
      dxy     :     0.015006
 11 H s       :     0.814454  s :     0.814454
 12 H s       :     0.821705  s :     0.821705
 13 C s       :     3.192387  s :     3.192387
      pz      :     0.791270  p :     2.773842
      px      :     1.004838
      py      :     0.977734
      dz2     :     0.018289  d :     0.064201
      dxz     :     0.007929
      dyz     :     0.018511
      dx2y2   :     0.006309
      dxy     :     0.013163
 14 H s       :     0.853689  s :     0.853689
 15 H s       :     0.842860  s :     0.842860
 16 C s       :     2.988181  s :     2.988181
      pz      :     0.746274  p :     2.381663
      px      :     0.832264
      py      :     0.803124
      dz2     :     0.034829  d :     0.107135
      dxz     :     0.029449
      dyz     :     0.023789
      dx2y2   :     0.011125
      dxy     :     0.007943
 17 N s       :     3.534507  s :     3.534507
      pz      :     1.126456  p :     3.787769
      px      :     1.111021
      py      :     1.550292
      dz2     :     0.009520  d :     0.037789
      dxz     :     0.010734
      dyz     :     0.006234
      dx2y2   :     0.005949
      dxy     :     0.005353
 18 O s       :     3.861116  s :     3.861116
      pz      :     1.479692  p :     4.664658
      px      :     1.694537
      py      :     1.490429
      dz2     :     0.007060  d :     0.024882
      dxz     :     0.006707
      dyz     :     0.006568
      dx2y2   :     0.002133
      dxy     :     0.002413
 19 C s       :     3.259164  s :     3.259164
      pz      :     1.121256  p :     3.023425
      px      :     0.800292
      py      :     1.101877
      dz2     :     0.009498  d :     0.048014
      dxz     :     0.006565
      dyz     :     0.007487
      dx2y2   :     0.012401
      dxy     :     0.012064
 20 H s       :     0.828130  s :     0.828130
 21 H s       :     0.829699  s :     0.829699
 22 H s       :     0.817333  s :     0.817333
 23 C s       :     3.269373  s :     3.269373
      pz      :     0.886130  p :     3.029651
      px      :     1.080761
      py      :     1.062760
      dz2     :     0.012501  d :     0.048091
      dxz     :     0.008464
      dyz     :     0.010366
      dx2y2   :     0.012936
      dxy     :     0.003825
 24 H s       :     0.830314  s :     0.830314
 25 H s       :     0.807200  s :     0.807200
 26 H s       :     0.829747  s :     0.829747
 27 O s       :     3.878444  s :     3.878444
      pz      :     1.490788  p :     4.751158
      px      :     1.518190
      py      :     1.742180
      dz2     :     0.007070  d :     0.025340
      dxz     :     0.003876
      dyz     :     0.003858
      dx2y2   :     0.006283
      dxy     :     0.004252
 28 H s       :     0.563092  s :     0.563092


                     *******************************
                     * LOEWDIN POPULATION ANALYSIS *
                     *******************************

----------------------
LOEWDIN ATOMIC CHARGES
----------------------
   0 C :   -0.403328
   1 H :    0.155156
   2 H :    0.154647
   3 H :    0.145282
   4 C :    0.115792
   5 O :   -0.313793
   6 N :   -0.072697
   7 C :   -0.179734
   8 H :    0.142872
   9 H :    0.159976
  10 C :   -0.166524
  11 H :    0.148037
  12 H :    0.144910
  13 C :   -0.113969
  14 H :    0.120470
  15 H :    0.121396
  16 C :    0.095937
  17 N :   -0.071243
  18 O :   -0.344602
  19 C :   -0.281471
  20 H :    0.136588
  21 H :    0.131186
  22 H :    0.146277
  23 C :   -0.288872
  24 H :    0.136351
  25 H :    0.147482
  26 H :    0.130972
  27 O :   -0.432030
  28 H :    0.334935

-------------------------------
LOEWDIN REDUCED ORBITAL CHARGES
-------------------------------
  0 C s       :     2.987066  s :     2.987066
      pz      :     1.143935  p :     3.354634
      px      :     1.143507
      py      :     1.067191
      dz2     :     0.013453  d :     0.061628
      dxz     :     0.015939
      dyz     :     0.005040
      dx2y2   :     0.012084
      dxy     :     0.015112
  1 H s       :     0.844844  s :     0.844844
  2 H s       :     0.845353  s :     0.845353
  3 H s       :     0.854718  s :     0.854718
  4 C s       :     2.849720  s :     2.849720
      pz      :     0.900102  p :     2.773452
      px      :     0.861193
      py      :     1.012157
      dz2     :     0.066060  d :     0.261036
      dxz     :     0.051639
      dyz     :     0.048362
      dx2y2   :     0.060580
      dxy     :     0.034396
  5 O s       :     3.549611  s :     3.549611
      pz      :     1.517895  p :     4.710070
      px      :     1.556223
      py      :     1.635951
      dz2     :     0.010994  d :     0.054113
      dxz     :     0.009186
      dyz     :     0.016288
      dx2y2   :     0.008240
      dxy     :     0.009404
  6 N s       :     3.095173  s :     3.095173
      pz      :     1.318114  p :     3.882691
      px      :     1.401993
      py      :     1.162584
      dz2     :     0.018284  d :     0.094834
      dxz     :     0.014962
      dyz     :     0.023940
      dx2y2   :     0.019871
      dxy     :     0.017777
  7 C s       :     2.930240  s :     2.930240
      pz      :     1.144292  p :     3.139353
      px      :     1.052760
      py      :     0.942302
      dz2     :     0.021066  d :     0.110141
      dxz     :     0.011578
      dyz     :     0.020877
      dx2y2   :     0.032671
      dxy     :     0.023949
  8 H s       :     0.857128  s :     0.857128
  9 H s       :     0.840024  s :     0.840024
 10 C s       :     2.923075  s :     2.923075
      pz      :     1.013175  p :     3.128907
      px      :     1.063237
      py      :     1.052494
      dz2     :     0.026543  d :     0.114543
      dxz     :     0.013739
      dyz     :     0.027058
      dx2y2   :     0.015202
      dxy     :     0.032002
 11 H s       :     0.851963  s :     0.851963
 12 H s       :     0.855090  s :     0.855090
 13 C s       :     2.936552  s :     2.936552
      pz      :     0.908510  p :     3.039950
      px      :     1.084106
      py      :     1.047334
      dz2     :     0.040282  d :     0.137466
      dxz     :     0.017105
      dyz     :     0.038868
      dx2y2   :     0.013679
      dxy     :     0.027532
 14 H s       :     0.879530  s :     0.879530
 15 H s       :     0.878604  s :     0.878604
 16 C s       :     2.855050  s :     2.855050
      pz      :     0.966624  p :     2.794361
      px      :     1.005329
      py      :     0.822407
      dz2     :     0.088865  d :     0.254652
      dxz     :     0.072468
      dyz     :     0.051786
      dx2y2   :     0.025086
      dxy     :     0.016448
 17 N s       :     3.092311  s :     3.092311
      pz      :     1.190742  p :     3.881215
      px      :     1.174968
      py      :     1.515505
      dz2     :     0.026800  d :     0.097717
      dxz     :     0.031194
      dyz     :     0.013183
      dx2y2   :     0.014669
      dxy     :     0.011871
 18 O s       :     3.565726  s :     3.565726
      pz      :     1.533991  p :     4.727544
      px      :     1.712133
      py      :     1.481419
      dz2     :     0.015310  d :     0.051332
      dxz     :     0.016775
      dyz     :     0.011052
      dx2y2   :     0.004139
      dxy     :     0.004056
 19 C s       :     2.963236  s :     2.963236
      pz      :     1.155788  p :     3.222886
      px      :     0.920897
      py      :     1.146201
      dz2     :     0.018267  d :     0.095348
      dxz     :     0.013251
      dyz     :     0.013009
      dx2y2   :     0.025345
      dxy     :     0.025476
 20 H s       :     0.863412  s :     0.863412
 21 H s       :     0.868814  s :     0.868814
 22 H s       :     0.853723  s :     0.853723
 23 C s       :     2.964311  s :     2.964311
      pz      :     0.983730  p :     3.228943
      px      :     1.125715
      py      :     1.119498
      dz2     :     0.025445  d :     0.095618
      dxz     :     0.017501
      dyz     :     0.021272
      dx2y2   :     0.024767
      dxy     :     0.006634
 24 H s       :     0.863649  s :     0.863649
 25 H s       :     0.852518  s :     0.852518
 26 H s       :     0.869028  s :     0.869028
 27 O s       :     3.566019  s :     3.566019
      pz      :     1.537136  p :     4.819163
      px      :     1.531244
      py      :     1.750783
      dz2     :     0.013783  d :     0.046848
      dxz     :     0.007871
      dyz     :     0.009002
      dx2y2   :     0.009076
      dxy     :     0.007116
 28 H s       :     0.665065  s :     0.665065


                      *****************************
                      * MAYER POPULATION ANALYSIS *
                      *****************************

  NA   - Mulliken gross atomic population
  ZA   - Total nuclear charge
  QA   - Mulliken gross atomic charge
  VA   - Mayer's total valence
  BVA  - Mayer's bonded valence
  FA   - Mayer's free valence

  ATOM       NA         ZA         QA         VA         BVA        FA
  0 C      6.5703     6.0000    -0.5703     3.7862     3.7862     0.0000
  1 H      0.8016     1.0000     0.1984     0.9432     0.9432     0.0000
  2 H      0.8079     1.0000     0.1921     0.9237     0.9237     0.0000
  3 H      0.8279     1.0000     0.1721     0.9406     0.9406     0.0000
  4 C      5.4692     6.0000     0.5308     3.9664     3.9664     0.0000
  5 O      8.5150     8.0000    -0.5150     2.0348     2.0348     0.0000
  6 N      7.3680     7.0000    -0.3680     3.1170     3.1170    -0.0000
  7 C      6.2507     6.0000    -0.2507     3.7754     3.7754    -0.0000
  8 H      0.8229     1.0000     0.1771     0.9356     0.9356    -0.0000
  9 H      0.7953     1.0000     0.2047     0.9382     0.9382     0.0000
 10 C      6.1821     6.0000    -0.1821     3.8130     3.8130    -0.0000
 11 H      0.8145     1.0000     0.1855     0.9304     0.9304    -0.0000
 12 H      0.8217     1.0000     0.1783     0.9302     0.9302     0.0000
 13 C      6.0304     6.0000    -0.0304     3.7717     3.7717    -0.0000
 14 H      0.8537     1.0000     0.1463     0.9254     0.9254     0.0000
 15 H      0.8429     1.0000     0.1571     0.9349     0.9349     0.0000
 16 C      5.4770     6.0000     0.5230     3.9320     3.9320     0.0000
 17 N      7.3601     7.0000    -0.3601     3.1661     3.1661     0.0000
 18 O      8.5507     8.0000    -0.5507     1.9794     1.9794    -0.0000
 19 C      6.3306     6.0000    -0.3306     3.7826     3.7826     0.0000
 20 H      0.8281     1.0000     0.1719     0.9293     0.9293     0.0000
[...]
      2       0.000059   0.000032  -0.000006
      3       0.000763  -0.000281   0.001261
      4       0.000362  -0.000208   0.000994
      5      -0.000209   0.000008   0.000062
      6       0.000422   0.000013   0.000129
      7      -0.000416  -0.000006   0.000047
      8      -0.000688  -0.000011  -0.000003
      9      -0.000694  -0.000335  -0.000004
     10       0.000360   0.000109   0.000026
     11      -0.000914  -0.000474  -0.000049
     12       0.000247   0.000042   0.000071
     13       0.000637   0.000043  -0.000041
     14       0.001168   0.000118   0.000094
     15      -0.000366  -0.000045  -0.000028
     16      -0.000232  -0.000017  -0.000022
     17      -0.000363  -0.000029  -0.000029
     18      -0.000377  -0.000069  -0.000114
     19      -0.000106   0.000021  -0.000031
     20      -0.000331  -0.000033  -0.000037
     21      -0.004177  -0.000062   0.000011
     22      -0.004314  -0.000076   0.000035
     23      -0.009574  -0.000821  -0.000019
     24      -0.010868  -0.002169  -0.000038
     25      -0.011016  -0.002093  -0.000080
     26       0.033021   0.006428   0.000228
     27       0.062156   0.003724  -0.000023
     28       0.060590   0.003290  -0.000018
     29       0.090058   0.004961  -0.000010
     30      -0.000008  -0.000007  -0.000252
     31       0.000075   0.000021   0.000021
     32       0.000176  -0.000037  -0.000118
     33       0.000427   0.000074  -0.000749
     34      -0.000729  -0.000046   0.000143
     35      -0.000037   0.000001   0.000229
     36      -0.000132   0.000031   0.000333
     37       0.000978  -0.000183  -0.000814
     38      -0.001630   0.000360   0.001715
     39       0.000036  -0.000102   0.001518
     40       0.000000   0.000112  -0.000531
     41      -0.000009   0.000001   0.000832
     42      -0.000180  -0.000001   0.000518
     43      -0.000202  -0.000065  -0.000634
     44      -0.000120  -0.000066   0.004666
     45      -0.000271   0.001265  -0.002282
     46       0.000211  -0.001340  -0.000356
     47       0.000032  -0.000053   0.003587
     48      -0.000202  -0.000807   0.000015
     49       0.000411   0.000277   0.000032
     50      -0.000279  -0.000929  -0.000017
     51       0.000291  -0.000089  -0.000003
     52      -0.000089   0.000109  -0.000022
     53       0.000523  -0.000254   0.000000
     54       0.000034   0.000901   0.000006
     55      -0.000088  -0.000146  -0.000014
     56       0.000050  -0.000147   0.000006
     57       0.001436  -0.015266  -0.000029
     58      -0.002687   0.038894   0.000002
     59       0.006296  -0.080177   0.000005
     60       0.007498  -0.068367   0.000055
     61      -0.013325   0.137886  -0.000045
     62      -0.021083   0.225712  -0.000089
     63       0.003323  -0.053191   0.000019
     64       0.006515  -0.115830   0.000155
     65       0.001519  -0.014263   0.000004
     66      -0.020508   0.295505   0.000021
     67       0.034580  -0.487854  -0.000018
     68      -0.054304   0.754974   0.000030
     69      -0.086860  -0.006025  -0.000006
     70      -0.020830  -0.002029   0.000006
     71       0.014338   0.001065  -0.000019
     72       0.098353   0.006490   0.000042
     73      -0.109369  -0.006397  -0.000323
     74      -0.196853  -0.009869  -0.000183
     75       0.918630   0.068206  -0.000002
     76       0.173659   0.013149  -0.000092
     77       0.003929   0.000943   0.000014
     78       0.014733   0.001835  -0.000090
     79       0.186209   0.016610   0.000535
     80       0.004861   0.000269   0.000970
     81      -0.000007   0.000005   0.057953
     82      -0.000066  -0.000004   0.016539
     83      -0.000024   0.000001  -0.017108
     84       0.000162   0.000010  -0.931567
     85       0.000040  -0.000033  -0.254077
     86       0.000036  -0.000005   0.252290


-----------
IR SPECTRUM
-----------

 Mode   freq       eps      Int      T**2         TX        TY        TZ
       cm**-1   L/(mol*cm) km/mol    a.u.
----------------------------------------------------------------------------
  6:     46.69   0.000286    1.44  0.001909  (-0.041724  0.004143  0.012295)
  7:     65.83   0.001700    8.59  0.008059  ( 0.028724  0.084996 -0.003008)
  8:     72.61   0.000530    2.68  0.002276  ( 0.041191 -0.023956 -0.002296)
  9:     82.96   0.000457    2.31  0.001720  (-0.023360 -0.031447  0.013603)
 10:    104.74   0.000727    3.67  0.002165  ( 0.023768 -0.035672 -0.018110)
 11:    113.87   0.002104   10.64  0.005767  (-0.051973  0.043418  0.034364)
 12:    139.65   0.001900    9.60  0.004247  (-0.059829 -0.020562  0.015626)
 13:    160.16   0.002941   14.86  0.005731  ( 0.000977  0.070927  0.026449)
 14:    193.97   0.012998   65.69  0.020913  (-0.025153  0.120629  0.075687)
 15:    212.03   0.017990   90.91  0.026477  ( 0.018504 -0.143902 -0.073667)
 16:    218.20   0.006656   33.63  0.009519  ( 0.024244 -0.081718 -0.047468)
 17:    248.87   0.005219   26.37  0.006544  ( 0.011387 -0.075996 -0.025280)
 18:    263.07   0.003108   15.71  0.003687  (-0.014763 -0.057674 -0.011950)
 19:    278.34   0.001062    5.37  0.001191  (-0.004159 -0.002833  0.034140)
 20:    304.53   0.001560    7.88  0.001598  ( 0.009817 -0.023919  0.030494)
 21:    358.15   0.002612   13.20  0.002276  (-0.032378 -0.004926  0.034685)
 22:    400.56   0.001382    6.98  0.001077  ( 0.024537  0.019248 -0.010200)
 23:    433.44   0.000929    4.70  0.000669  ( 0.022715 -0.009716 -0.007657)
 24:    456.76   0.002489   12.58  0.001700  ( 0.027617  0.015681  0.026302)
 25:    493.34   0.003209   16.22  0.002030  ( 0.031392 -0.029883 -0.012304)
 26:    511.23   0.005749   29.05  0.003509  (-0.034093 -0.045886  0.015528)
 27:    582.30   0.003146   15.90  0.001686  (-0.038280  0.014196 -0.004379)
 28:    595.90   0.001783    9.01  0.000934  (-0.021366  0.006356 -0.020895)
 29:    620.03   0.006261   31.64  0.003151  (-0.020133 -0.024125  0.046519)
 30:    686.76   0.001655    8.37  0.000752  (-0.000674 -0.003561  0.027186)
 31:    757.15   0.001672    8.45  0.000689  (-0.019674  0.008433  0.015197)
 32:    800.79   0.007231   36.54  0.002818  (-0.016974  0.007696  0.049705)
 33:    880.20   0.003907   19.75  0.001385  (-0.023179 -0.005152  0.028662)
 34:    923.90   0.000774    3.91  0.000261  (-0.011240 -0.006560  0.009596)
 35:    979.53   0.002930   14.81  0.000933  ( 0.010031  0.000570 -0.028851)
 36:   1005.42   0.005265   26.61  0.001634  ( 0.026760  0.010147 -0.028552)
 37:   1016.24   0.006119   30.92  0.001879  ( 0.037955  0.014053  0.015526)
 38:   1066.06   0.003328   16.82  0.000974  (-0.030541  0.006423 -0.000539)
 39:   1073.37   0.016972   85.77  0.004934  (-0.019492  0.036491 -0.056771)
 40:   1091.67   0.001524    7.70  0.000436  ( 0.019136 -0.000585  0.008322)
 41:   1101.12   0.013163   66.52  0.003730  ( 0.008509 -0.025394  0.054892)
 42:   1119.01   0.003985   20.14  0.001111  ( 0.013456 -0.001262 -0.030476)
 43:   1136.08   0.001355    6.85  0.000372  (-0.013633  0.013612  0.000991)
 44:   1180.49   0.012490   63.12  0.003302  ( 0.021315  0.003775 -0.053226)
 45:   1187.40   0.000517    2.61  0.000136  ( 0.008913 -0.005394 -0.005223)
 46:   1225.12   0.012473   63.03  0.003177  ( 0.004660  0.032246 -0.045996)
 47:   1243.76   0.024542  124.03  0.006158  (-0.037806  0.030473 -0.061643)
 48:   1265.57   0.013148   66.45  0.003242  (-0.039576  0.015401 -0.037930)
 49:   1289.18   0.014596   73.76  0.003533  (-0.058592  0.007949  0.006088)
 50:   1296.37   0.018941   95.72  0.004560  (-0.040562  0.050950 -0.017842)
 51:   1336.46   0.004714   23.82  0.001101  ( 0.020334  0.022416 -0.013596)
 52:   1371.59   0.000865    4.37  0.000197  ( 0.004308 -0.002413  0.013133)
 53:   1405.62   0.004579   23.14  0.001017  ( 0.004573  0.031345  0.003641)
 54:   1420.03   0.005744   29.03  0.001262  ( 0.017150  0.015758  0.026829)
 55:   1440.01   0.015616   78.92  0.003384  (-0.038201 -0.008347  0.043072)
 56:   1455.94   0.013866   70.07  0.002972  ( 0.048919 -0.005240 -0.023483)
 57:   1465.44   0.020642  104.32  0.004396  (-0.057413  0.021853 -0.024938)
 58:   1478.28   0.037696  190.50  0.007958  (-0.059843  0.021052 -0.062715)
 59:   1487.76   0.003307   16.71  0.000694  (-0.006525  0.024604  0.006765)
 60:   1490.52   0.001681    8.49  0.000352  ( 0.002029  0.004668 -0.018055)
 61:   1500.84   0.005898   29.80  0.001226  ( 0.016647 -0.026619  0.015511)
 62:   1504.67   0.004259   21.52  0.000883  (-0.000237  0.013036 -0.026707)
 63:   1510.83   0.001022    5.16  0.000211  ( 0.009745  0.003284  0.010259)
 64:   1517.95   0.003582   18.10  0.000736  ( 0.004863  0.026397 -0.003998)
 65:   1523.79   0.001367    6.91  0.000280  ( 0.007928  0.004417 -0.014055)
 66:   1528.94   0.007551   38.16  0.001541  ( 0.012109  0.032470  0.018444)
 67:   1544.65   0.002892   14.62  0.000584  ( 0.010621  0.009069 -0.019730)
 68:   1554.56   0.017530   88.59  0.003519  ( 0.046835 -0.005776 -0.035946)
 69:   1702.19   0.142383  719.54  0.026103  ( 0.073609  0.045541  0.136421)
 70:   1709.06   0.086055  434.88  0.015713  (-0.000852  0.062077 -0.108898)
 71:   3015.38   0.017984   90.88  0.001861  ( 0.018460  0.015514  0.035773)
 72:   3033.50   0.011205   56.62  0.001153  (-0.030666 -0.013341  0.005852)
 73:   3053.45   0.012004   60.66  0.001227  (-0.007167 -0.011998  0.032117)
 74:   3063.48   0.001145    5.79  0.000117  ( 0.009371 -0.004963 -0.002048)
 75:   3078.41   0.006144   31.05  0.000623  ( 0.000650  0.006165  0.024175)
 76:   3082.48   0.014109   71.30  0.001428  (-0.011548  0.032229 -0.016010)
 77:   3082.71   0.006590   33.30  0.000667  ( 0.013097 -0.005419 -0.021593)
 78:   3104.35   0.010288   51.99  0.001034  (-0.007720  0.024575  0.019252)
 79:   3115.84   0.005058   25.56  0.000507  ( 0.005945 -0.016799 -0.013751)
 80:   3138.34   0.001525    7.71  0.000152  ( 0.002841 -0.001403  0.011899)
 81:   3154.66   0.005437   27.48  0.000538  ( 0.013977 -0.018503  0.000371)
 82:   3158.22   0.001930    9.75  0.000191  (-0.012058  0.005152  0.004326)
 83:   3174.35   0.001754    8.86  0.000172  ( 0.005800  0.000245  0.011778)
 84:   3184.48   0.000490    2.48  0.000048  ( 0.000272 -0.006896 -0.000610)
 85:   3191.57   0.001171    5.92  0.000114  (-0.006750  0.004699 -0.006844)
 86:   3737.03   0.013461   68.03  0.001124  (-0.027690 -0.012735  0.013971)

* The epsilon (eps) is given for a Dirac delta lineshape.
** The dipole moment derivative (T) already includes vibrational overlap.

The first frequency considered to be a vibration is 6
The total number of vibrations considered is 81


--------------------------
THERMOCHEMISTRY AT 298.15K
--------------------------

Temperature         ... 298.15 K
Pressure            ... 1.00 atm
Total Mass          ... 188.23 AMU

Throughout the following assumptions are being made:
  (1) The electronic state is orbitally nondegenerate
  (2) There are no thermally accessible electronically excited states
  (3) Hindered rotations indicated by low frequency modes are not
      treated as such but are treated as vibrations and this may
      cause some error
  (4) All equations used are the standard statistical mechanics
      equations for an ideal gas
  (5) All vibrations are strictly harmonic

freq.      46.69  E(vib)   ...       0.53 
freq.      65.83  E(vib)   ...       0.50 
freq.      72.61  E(vib)   ...       0.49 
freq.      82.96  E(vib)   ...       0.48 
freq.     104.74  E(vib)   ...       0.46 
freq.     113.87  E(vib)   ...       0.44 
freq.     139.65  E(vib)   ...       0.42 
freq.     160.16  E(vib)   ...       0.39 
freq.     193.97  E(vib)   ...       0.36 
freq.     212.03  E(vib)   ...       0.34 
freq.     218.20  E(vib)   ...       0.33 
freq.     248.87  E(vib)   ...       0.31 
freq.     263.07  E(vib)   ...       0.29 
freq.     278.34  E(vib)   ...       0.28 
freq.     304.53  E(vib)   ...       0.26 
freq.     358.15  E(vib)   ...       0.22 
freq.     400.56  E(vib)   ...       0.19 
freq.     433.44  E(vib)   ...       0.17 
freq.     456.76  E(vib)   ...       0.16 
freq.     493.34  E(vib)   ...       0.14 
freq.     511.23  E(vib)   ...       0.14 
freq.     582.30  E(vib)   ...       0.11 
freq.     595.90  E(vib)   ...       0.10 
freq.     620.03  E(vib)   ...       0.09 
freq.     686.76  E(vib)   ...       0.07 
freq.     757.15  E(vib)   ...       0.06 
freq.     800.79  E(vib)   ...       0.05 
freq.     880.20  E(vib)   ...       0.04 
freq.     923.90  E(vib)   ...       0.03 
freq.     979.53  E(vib)   ...       0.03 
freq.    1005.42  E(vib)   ...       0.02 
freq.    1016.24  E(vib)   ...       0.02 
freq.    1066.06  E(vib)   ...       0.02 
freq.    1073.37  E(vib)   ...       0.02 
freq.    1091.67  E(vib)   ...       0.02 
freq.    1101.12  E(vib)   ...       0.02 
freq.    1119.01  E(vib)   ...       0.01 
freq.    1136.08  E(vib)   ...       0.01 
freq.    1180.49  E(vib)   ...       0.01 
freq.    1187.40  E(vib)   ...       0.01 
freq.    1225.12  E(vib)   ...       0.01 
freq.    1243.76  E(vib)   ...       0.01 
freq.    1265.57  E(vib)   ...       0.01 
freq.    1289.18  E(vib)   ...       0.01 
freq.    1296.37  E(vib)   ...       0.01 
freq.    1336.46  E(vib)   ...       0.01 
freq.    1371.59  E(vib)   ...       0.01 
freq.    1405.62  E(vib)   ...       0.00 
freq.    1420.03  E(vib)   ...       0.00 
freq.    1440.01  E(vib)   ...       0.00 
freq.    1455.94  E(vib)   ...       0.00 
freq.    1465.44  E(vib)   ...       0.00 
freq.    1478.28  E(vib)   ...       0.00 
freq.    1487.76  E(vib)   ...       0.00 
freq.    1490.52  E(vib)   ...       0.00 
freq.    1500.84  E(vib)   ...       0.00 
freq.    1504.67  E(vib)   ...       0.00 
freq.    1510.83  E(vib)   ...       0.00 
freq.    1517.95  E(vib)   ...       0.00 
freq.    1523.79  E(vib)   ...       0.00 
freq.    1528.94  E(vib)   ...       0.00 
freq.    1544.65  E(vib)   ...       0.00 
freq.    1554.56  E(vib)   ...       0.00 
freq.    1702.19  E(vib)   ...       0.00 
freq.    1709.06  E(vib)   ...       0.00 
freq.    3015.38  E(vib)   ...       0.00 
freq.    3033.50  E(vib)   ...       0.00 
freq.    3053.45  E(vib)   ...       0.00 
freq.    3063.48  E(vib)   ...       0.00 
freq.    3078.41  E(vib)   ...       0.00 
freq.    3082.48  E(vib)   ...       0.00 
freq.    3082.71  E(vib)   ...       0.00 
freq.    3104.35  E(vib)   ...       0.00 
freq.    3115.84  E(vib)   ...       0.00 
freq.    3138.34  E(vib)   ...       0.00 
freq.    3154.66  E(vib)   ...       0.00 
freq.    3158.22  E(vib)   ...       0.00 
freq.    3174.35  E(vib)   ...       0.00 
freq.    3184.48  E(vib)   ...       0.00 
freq.    3191.57  E(vib)   ...       0.00 
freq.    3737.03  E(vib)   ...       0.00 

------------
INNER ENERGY
------------

The inner energy is: U= E(el) + E(ZPE) + E(vib) + E(rot) + E(trans)
    E(el)   - is the total energy from the electronic structure calculation
              = E(kin-el) + E(nuc-el) + E(el-el) + E(nuc-nuc)
    E(ZPE)  - the the zero temperature vibrational energy from the frequency calculation
    E(vib)  - the the finite temperature correction to E(ZPE) due to population
              of excited vibrational states
    E(rot)  - is the rotational thermal energy
    E(trans)- is the translational thermal energy

Summary of contributions to the inner energy U:
Electronic energy                ...   -649.34616232 Eh
Zero point energy                ...      0.24968666 Eh     156.68 kcal/mol
Thermal vibrational correction   ...      0.01237412 Eh       7.76 kcal/mol
Thermal rotational correction    ...      0.00141627 Eh       0.89 kcal/mol
Thermal translational correction ...      0.00141627 Eh       0.89 kcal/mol
-----------------------------------------------------------------------
Total thermal energy                   -649.08126899 Eh


Summary of corrections to the electronic energy:
(perhaps to be used in another calculation)
Total thermal correction                  0.01520667 Eh       9.54 kcal/mol
Non-thermal (ZPE) correction              0.24968666 Eh     156.68 kcal/mol
-----------------------------------------------------------------------
Total correction                          0.26489332 Eh     166.22 kcal/mol


--------
ENTHALPY
--------

The enthalpy is H = U + kB*T
                kB is Boltzmann's constant
Total free energy                 ...   -649.08126899 Eh 
Thermal Enthalpy correction       ...      0.00094421 Eh       0.59 kcal/mol
-----------------------------------------------------------------------
Total Enthalpy                    ...   -649.08032478 Eh


Note: Only C1 symmetry has been detected, increase convergence thresholds 
      if your molecule has a higher symmetry. Symmetry factor of 1.0 is   
      used for the rotational entropy correction. 
 

Note: Rotational entropy computed according to Herzberg 
Infrared and Raman Spectra, Chapter V,1, Van Nostrand Reinhold, 1945 
Point Group:  C1, Symmetry Number:   1  
Rotational constants in cm-1:     0.035368     0.020629     0.018636 

Vibrational entropy computed according to the QRRHO of S. Grimme
Chem.Eur.J. 2012 18 9955


-------
ENTROPY
-------

The entropy contributions are T*S = T*(S(el)+S(vib)+S(rot)+S(trans))
     S(el)   - electronic entropy
     S(vib)  - vibrational entropy
     S(rot)  - rotational entropy
     S(trans)- translational entropy
The entropies will be listed as multiplied by the temperature to get
units of energy

Electronic entropy                ...      0.00000000 Eh      0.00 kcal/mol
Vibrational entropy               ...      0.02200369 Eh     13.81 kcal/mol
Rotational entropy                ...      0.01480092 Eh      9.29 kcal/mol
Translational entropy             ...      0.01976700 Eh     12.40 kcal/mol
-----------------------------------------------------------------------
Final entropy term                ...      0.05657161 Eh     35.50 kcal/mol

In case the symmetry of your molecule has not been determined correctly
or in case you have a reason to use a different symmetry number we print 
out the resulting rotational entropy values for sn=1,12 :
 --------------------------------------------------------
|  sn= 1 | S(rot)=       0.01480092 Eh      9.29 kcal/mol|
|  sn= 2 | S(rot)=       0.01414646 Eh      8.88 kcal/mol|
|  sn= 3 | S(rot)=       0.01376363 Eh      8.64 kcal/mol|
|  sn= 4 | S(rot)=       0.01349201 Eh      8.47 kcal/mol|
|  sn= 5 | S(rot)=       0.01328132 Eh      8.33 kcal/mol|
|  sn= 6 | S(rot)=       0.01310917 Eh      8.23 kcal/mol|
|  sn= 7 | S(rot)=       0.01296363 Eh      8.13 kcal/mol|
|  sn= 8 | S(rot)=       0.01283755 Eh      8.06 kcal/mol|
|  sn= 9 | S(rot)=       0.01272634 Eh      7.99 kcal/mol|
|  sn=10 | S(rot)=       0.01262686 Eh      7.92 kcal/mol|
|  sn=11 | S(rot)=       0.01253687 Eh      7.87 kcal/mol|
|  sn=12 | S(rot)=       0.01245472 Eh      7.82 kcal/mol|
 --------------------------------------------------------


-------------------
GIBBS FREE ENERGY
-------------------

The Gibbs free energy is G = H - T*S

Total enthalpy                    ...   -649.08032478 Eh 
Total entropy correction          ...     -0.05657161 Eh    -35.50 kcal/mol
-----------------------------------------------------------------------
Final Gibbs free energy         ...   -649.13689640 Eh

For completeness - the Gibbs free energy minus the electronic energy
G-E(el)                           ...      0.20926592 Eh    131.32 kcal/mol


Timings for individual modules:

Sum of individual times         ...     1304.462 sec (=  21.741 min)
GTO integral calculation        ...       15.845 sec (=   0.264 min)   1.2 %
SCF iterations                  ...      636.668 sec (=  10.611 min)  48.8 %
SCF Gradient evaluation         ...      185.671 sec (=   3.095 min)  14.2 %
Geometry relaxation             ...        1.138 sec (=   0.019 min)   0.1 %
Analytical frequency calculation...      465.140 sec (=   7.752 min)  35.7 %
                             ****ORCA TERMINATED NORMALLY****
TOTAL RUN TIME: 0 days 0 hours 21 minutes 49 seconds 831 msec
