
                                 *****************
                                 * O   R   C   A *
                                 *****************

                                            #,                                       
                                            ###                                      
                                            ####                                     
                                            #####                                    
                                            ######                                   
                                           ########,                                 
                                     ,,################,,,,,                         
                               ,,#################################,,                 
                          ,,##########################################,,             
                       ,#########################################, ''#####,          
                    ,#############################################,,   '####,        
                  ,##################################################,,,,####,       
                ,###########''''           ''''###############################       
              ,#####''   ,,,,##########,,,,          '''####'''          '####       
            ,##' ,,,,###########################,,,                        '##       
           ' ,,###''''                  '''############,,,                           
         ,,##''                                '''############,,,,        ,,,,,,###''
      ,#''                                            '''#######################'''  
     '                                                          ''''####''''         
             ,#######,   #######,   ,#######,      ##                                
            ,#'     '#,  ##    ##  ,#'     '#,    #''#        ######   ,####,        
            ##       ##  ##   ,#'  ##            #'  '#       #        #'  '#        
            ##       ##  #######   ##           ,######,      #####,   #    #        
            '#,     ,#'  ##    ##  '#,     ,#' ,#      #,         ##   #,  ,#        
             '#######'   ##     ##  '#######'  #'      '#     #####' # '####'        



                  #######################################################
                  #                        -***-                        #
                  #          Department of theory and spectroscopy      #
                  #    Directorship and core code : Frank Neese         #
                  #        Max Planck Institute fuer Kohlenforschung    #
                  #                Kaiser Wilhelm Platz 1               #
                  #                 D-45470 Muelheim/Ruhr               #
                  #                      Germany                        #
                  #                                                     #
                  #                  All rights reserved                #
                  #                        -***-                        #
                  #######################################################


                         Program Version 5.0.4 -  RELEASE  -


 With contributions from (in alphabetic order):
   Daniel Aravena         : Magnetic Suceptibility
   Michael Atanasov       : Ab Initio Ligand Field Theory (pilot matlab implementation)
   Alexander A. Auer      : GIAO ZORA, VPT2 properties, NMR spectrum
   Ute Becker             : Parallelization
   Giovanni Bistoni       : ED, misc. LED, open-shell LED, HFLD
   Martin Brehm           : Molecular dynamics
   Dmytro Bykov           : SCF Hessian
   Vijay G. Chilkuri      : MRCI spin determinant printing, contributions to CSF-ICE
   Dipayan Datta          : RHF DLPNO-CCSD density
   Achintya Kumar Dutta   : EOM-CC, STEOM-CC
   Dmitry Ganyushin       : Spin-Orbit,Spin-Spin,Magnetic field MRCI
   Miquel Garcia          : C-PCM and meta-GGA Hessian, CC/C-PCM, Gaussian charge scheme
   Yang Guo               : DLPNO-NEVPT2, F12-NEVPT2, CIM, IAO-localization
   Andreas Hansen         : Spin unrestricted coupled pair/coupled cluster methods
   Benjamin Helmich-Paris : MC-RPA, TRAH-SCF, COSX integrals
   Lee Huntington         : MR-EOM, pCC
   Robert Izsak           : Overlap fitted RIJCOSX, COSX-SCS-MP3, EOM
   Marcus Kettner         : VPT2
   Christian Kollmar      : KDIIS, OOCD, Brueckner-CCSD(T), CCSD density, CASPT2, CASPT2-K
   Simone Kossmann        : Meta GGA functionals, TD-DFT gradient, OOMP2, MP2 Hessian
   Martin Krupicka        : Initial AUTO-CI
   Lucas Lang             : DCDCAS
   Marvin Lechner         : AUTO-CI (C++ implementation), FIC-MRCC
   Dagmar Lenk            : GEPOL surface, SMD
   Dimitrios Liakos       : Extrapolation schemes; Compound Job, initial MDCI parallelization
   Dimitrios Manganas     : Further ROCIS development; embedding schemes
   Dimitrios Pantazis     : SARC Basis sets
   Anastasios Papadopoulos: AUTO-CI, single reference methods and gradients
   Taras Petrenko         : DFT Hessian,TD-DFT gradient, ASA, ECA, R-Raman, ABS, FL, XAS/XES, NRVS
   Peter Pinski           : DLPNO-MP2, DLPNO-MP2 Gradient
   Christoph Reimann      : Effective Core Potentials
   Marius Retegan         : Local ZFS, SOC
   Christoph Riplinger    : Optimizer, TS searches, QM/MM, DLPNO-CCSD(T), (RO)-DLPNO pert. Triples
   Tobias Risthaus        : Range-separated hybrids, TD-DFT gradient, RPA, STAB
   Michael Roemelt        : Original ROCIS implementation
   Masaaki Saitow         : Open-shell DLPNO-CCSD energy and density
   Barbara Sandhoefer     : DKH picture change effects
   Avijit Sen             : IP-ROCIS
   Kantharuban Sivalingam : CASSCF convergence, NEVPT2, FIC-MRCI
   Bernardo de Souza      : ESD, SOC TD-DFT
   Georgi Stoychev        : AutoAux, RI-MP2 NMR, DLPNO-MP2 response
   Willem Van den Heuvel  : Paramagnetic NMR
   Boris Wezisla          : Elementary symmetry handling
   Frank Wennmohs         : Technical directorship


 We gratefully acknowledge several colleagues who have allowed us to
 interface, adapt or use parts of their codes:
   Stefan Grimme, W. Hujo, H. Kruse, P. Pracht,  : VdW corrections, initial TS optimization,
                  C. Bannwarth, S. Ehlert          DFT functionals, gCP, sTDA/sTD-DF
   Ed Valeev, F. Pavosevic, A. Kumar             : LibInt (2-el integral package), F12 methods
   Garnet Chan, S. Sharma, J. Yang, R. Olivares  : DMRG
   Ulf Ekstrom                                   : XCFun DFT Library
   Mihaly Kallay                                 : mrcc  (arbitrary order and MRCC methods)
   Jiri Pittner, Ondrej Demel                    : Mk-CCSD
   Frank Weinhold                                : gennbo (NPA and NBO analysis)
   Christopher J. Cramer and Donald G. Truhlar   : smd solvation model
   Lars Goerigk                                  : TD-DFT with DH, B97 family of functionals
   V. Asgeirsson, H. Jonsson                     : NEB implementation
   FAccTs GmbH                                   : IRC, NEB, NEB-TS, DLPNO-Multilevel, CI-OPT
                                                   MM, QMMM, 2- and 3-layer-ONIOM, Crystal-QMMM,
                                                   LR-CPCM, SF, NACMEs, symmetry and pop. for TD-DFT,
                                                   nearIR, NL-DFT gradient (VV10), updates on ESD,
                                                   ML-optimized integration grids
   S Lehtola, MJT Oliveira, MAL Marques          : LibXC Library
   Liviu Ungur et al                             : ANISO software


 Your calculation uses the libint2 library for the computation of 2-el integrals
 For citations please refer to: http://libint.valeyev.net

 Your ORCA version has been built with support for libXC version: 5.1.0
 For citations please refer to: https://tddft.org/programs/libxc/

 This ORCA versions uses:
   CBLAS   interface :  Fast vector & matrix operations
   LAPACKE interface :  Fast linear algebra routines
   SCALAPACK package :  Parallel linear algebra routines
   Shared memory     :  Shared parallel matrices
   BLAS/LAPACK       :  OpenBLAS 0.3.15  USE64BITINT DYNAMIC_ARCH NO_AFFINITY SkylakeX SINGLE_THREADED
        Core in use  :  SkylakeX
   Copyright (c) 2011-2014, The OpenBLAS Project




***************************************
The coordinates will be read from file: /users/fjb15167/WWenergy/structures/Nfes.xyz
***************************************


Your calculation utilizes the atom-pairwise dispersion correction
based on tight binding partial charges (D4)
Cite in your paper:
E.Caldeweyher, C.Bannwarth, S.Grimme, J.Chem.Phys., (2017), 147, 034112.
E.Caldeweyher, S.Ehlert, A.Hansen, H.Neugebauer, S.Grimme, J.Chem.Phys., (2018), in progress.
   

================================================================================

----- Orbital basis set information -----
Your calculation utilizes the basis: 6-31G(d)
   H-He, Li-Ne : W. J. Hehre, R. Ditchfield and J.A. Pople, J. Chem. Phys. 56, 2257 (1972).
                 Note: He and Ne are unpublished basis sets taken from the Gaussian program.
                 Note: Li and B from J. D. Dill and J. A. Pople, J. Chem. Phys. 62, 2921 (1975).
   Na - Ar     : M. M. Francl, W. J. Pietro, W. J. Hehre, J. S. Binkley, M. S. Gordon, 
                 D. J. DeFrees and J. A. Pople, J. Chem. Phys. 77, 3654 (1982).
   K - Zn      : V. A. Rassolov, J. A. Pople, M. A. Ratner, and T. L. Windus, J. Chem. Phys. 109, 1223 (1998).

----- AuxJ basis set information -----
Your calculation utilizes the AutoAux generation procedure.
  G. L. Stoychev, A. A. Auer, F. Neese, J. Chem. Theory Comput. 13, 554 (2017)

----- AuxC basis set information -----
Your calculation utilizes the AutoAux generation procedure.
  G. L. Stoychev, A. A. Auer, F. Neese, J. Chem. Theory Comput. 13, 554 (2017)

----- AuxJK basis set information -----
Your calculation utilizes the AutoAux generation procedure.
  G. L. Stoychev, A. A. Auer, F. Neese, J. Chem. Theory Comput. 13, 554 (2017)

================================================================================
                                        WARNINGS
                       Please study these warnings very carefully!
================================================================================


WARNING: Geometry Optimization
  ===> : Switching off AutoStart
         For restart on a previous wavefunction, please use MOREAD

INFO   : the flag for use of the SHARK integral package has been found!

================================================================================
                                       INPUT FILE
================================================================================
NAME = Nfes_gas.inp
|  1> ! OPT FREQ B3LYP 6-31G(d) D4 AUTOAUX
|  2> 
|  3> %PAL NPROCS 4 END
|  4> 
|  5> %maxcore 3375
|  6> 
|  7> *xyzfile 0 1 /users/fjb15167/WWenergy/structures/Nfes.xyz
|  8> 
|  9>                          ****END OF INPUT****
================================================================================

                       *****************************
                       * Geometry Optimization Run *
                       *****************************

Geometry optimization settings:
Update method            Update   .... BFGS
Choice of coordinates    CoordSys .... Z-matrix Internals
Initial Hessian          InHess   .... Almoef's Model

Convergence Tolerances:
Energy Change            TolE     ....  5.0000e-06 Eh
Max. Gradient            TolMAXG  ....  3.0000e-04 Eh/bohr
RMS Gradient             TolRMSG  ....  1.0000e-04 Eh/bohr
Max. Displacement        TolMAXD  ....  4.0000e-03 bohr
RMS Displacement         TolRMSD  ....  2.0000e-03 bohr
Strict Convergence                ....  False
------------------------------------------------------------------------------
                        ORCA OPTIMIZATION COORDINATE SETUP
------------------------------------------------------------------------------

The optimization will be done in new redundant internal coordinates
Making redundant internal coordinates   ...  (new redundants) done
Evaluating the initial hessian          ...  (Almloef) done
Evaluating the coordinates              ...  done
Calculating the B-matrix                .... done
Calculating the G-matrix                .... done
Diagonalizing the G-matrix              .... done
Small eigenvalue found = 4.108e-03
Small eigenvalue found = 6.486e-03
Small eigenvalue found = 1.106e-02
Small eigenvalue found = 1.710e-02
Small eigenvalue found = 2.498e-02
The first mode is                       ....   80
The number of degrees of freedom        ....  108

    -----------------------------------------------------------------
                    Redundant Internal Coordinates


    -----------------------------------------------------------------
         Definition                    Initial Value    Approx d2E/dq
    -----------------------------------------------------------------
      1. B(H   1,C   0)                  1.0914         0.358271   
      2. B(H   2,C   0)                  1.0915         0.358170   
      3. B(H   3,C   0)                  1.0928         0.356462   
      4. B(C   4,C   0)                  1.5165         0.392517   
      5. B(N   5,C   4)                  1.3764         0.588206   
      6. B(C   6,N   5)                  1.4864         0.392650   
      7. B(H   7,C   6)                  1.0978         0.349928   
      8. B(C   8,C   6)                  1.5125         0.398449   
      9. B(C   9,C   8)                  1.4043         0.592901   
     10. B(C  10,C   8)                  1.4013         0.599401   
     11. B(C  11,C   9)                  1.3952         0.613040   
     12. B(H  12,C   9)                  1.0862         0.365224   
     13. B(C  13,C  10)                  1.3977         0.607393   
     14. B(H  14,C  10)                  1.0901         0.359907   
     15. B(C  15,C  11)                  1.3986         0.605422   
     16. B(C  15,C  13)                  1.3950         0.613447   
     17. B(H  16,C  11)                  1.0878         0.363088   
     18. B(H  17,C  13)                  1.0880         0.362808   
     19. B(H  18,C  15)                  1.0872         0.363773   
     20. B(C  19,N   5)                  1.4639         0.426560   
     21. B(H  20,C  19)                  1.0960         0.352214   
     22. B(H  21,C  19)                  1.0969         0.351113   
     23. B(C  22,C  19)                  1.5316         0.371370   
     24. B(N  23,C  22)                  1.3640         0.615631   
     25. B(O  24,C  22)                  1.2373         0.980528   
     26. B(O  25,C   4)                  1.2386         0.976004   
     27. B(C  26,N  23)                  1.4544         0.441761   
     28. B(H  27,C  26)                  1.0961         0.352162   
     29. B(H  28,C  26)                  1.0943         0.354444   
     30. B(H  29,C  26)                  1.0865         0.364763   
     31. B(H  29,H  18)                  4.5631         0.000000   
     32. B(C  30,N  23)                  1.4554         0.440005   
     33. B(H  31,C  30)                  1.0953         0.353218   
     34. B(H  32,C  30)                  1.0958         0.352533   
     35. B(H  33,C  30)                  1.0874         0.363538   
     36. B(C  34,C   6)                  1.5285         0.375616   
     37. B(H  35,C  34)                  1.0951         0.353477   
     38. B(H  36,C  34)                  1.0944         0.354352   
     39. B(H  37,C  34)                  1.0867         0.364558   
     40. A(H   2,C   0,H   3)          108.0622         0.290131   
     41. A(H   1,C   0,C   4)          113.7231         0.326694   
     42. A(H   3,C   0,C   4)          110.6705         0.326422   
     43. A(H   1,C   0,H   3)          107.9756         0.290144   
     44. A(H   1,C   0,H   2)          110.1051         0.290362   
     45. A(H   2,C   0,C   4)          106.1766         0.326679   
     46. A(C   0,C   4,N   5)          118.1525         0.393933   
     47. A(C   0,C   4,O  25)          119.9475         0.430964   
     48. A(N   5,C   4,O  25)          121.8979         0.460666   
     49. A(C   4,N   5,C  19)          123.2251         0.397171   
     50. A(C   6,N   5,C  19)          115.0799         0.370231   
     51. A(C   4,N   5,C   6)          121.1344         0.391447   
     52. A(C   8,C   6,C  34)          112.9395         0.367727   
     53. A(N   5,C   6,C  34)          114.0792         0.364518   
     54. A(H   7,C   6,C   8)          106.8845         0.326234   
     55. A(N   5,C   6,C   8)          112.4894         0.368223   
     56. A(H   7,C   6,C  34)          105.7298         0.323086   
     57. A(N   5,C   6,H   7)          103.7596         0.323502   
     58. A(C   9,C   8,C  10)          119.0072         0.427991   
     59. A(C   6,C   8,C  10)          119.7691         0.398827   
     60. A(C   6,C   8,C   9)          121.2236         0.398064   
     61. A(C   8,C   9,C  11)          120.1075         0.429721   
     62. A(C  11,C   9,H  12)          120.8546         0.353079   
     63. A(C   8,C   9,H  12)          119.0211         0.351090   
     64. A(C  13,C  10,H  14)          119.6206         0.351653   
     65. A(C   8,C  10,H  14)          119.5688         0.350867   
     66. A(C   8,C  10,C  13)          120.8096         0.429849   
     67. A(C  15,C  11,H  16)          119.9197         0.351983   
     68. A(C   9,C  11,H  16)          119.5650         0.352728   
     69. A(C   9,C  11,C  15)          120.5147         0.431337   
     70. A(C  15,C  13,H  17)          120.2349         0.352722   
     71. A(C  10,C  13,H  17)          119.9148         0.352131   
     72. A(C  10,C  13,C  15)          119.8502         0.431640   
     73. A(C  13,C  15,H  18)          120.1457         0.352880   
     74. A(C  11,C  15,H  18)          120.1478         0.352095   
     75. A(C  11,C  15,C  13)          119.7064         0.431388   
     76. A(H  21,C  19,C  22)          107.5090         0.322663   
     77. A(H  20,C  19,C  22)          104.9182         0.322829   
     78. A(N   5,C  19,C  22)          117.6340         0.369011   
     79. A(H  20,C  19,H  21)          107.4459         0.288685   
     80. A(N   5,C  19,H  21)          106.7861         0.328123   
     81. A(N   5,C  19,H  20)          112.0949         0.328293   
     82. A(N  23,C  22,O  24)          123.0702         0.464913   
     83. A(C  19,C  22,O  24)          118.5243         0.427058   
     84. A(C  19,C  22,N  23)          118.3788         0.393256   
     85. A(C  26,N  23,C  30)          115.9256         0.379870   
     86. A(C  22,N  23,C  30)          118.5154         0.402560   
     87. A(C  22,N  23,C  26)          125.5135         0.402843   
     88. A(H  28,C  26,H  29)          108.2939         0.290704   
     89. A(H  27,C  26,H  29)          108.3308         0.290409   
     90. A(N  23,C  26,H  29)          111.4682         0.332115   
     91. A(H  27,C  26,H  28)          108.7670         0.289105   
     92. A(N  23,C  26,H  28)          108.0857         0.330542   
     93. A(N  23,C  26,H  27)          111.8043         0.330189   
     94. A(H  32,C  30,H  33)          110.0738         0.290304   
     95. A(H  31,C  30,H  33)          109.4555         0.290392   
     96. A(N  23,C  30,H  33)          108.4912         0.331711   
     97. A(H  31,C  30,H  32)          108.6489         0.288996   
     98. A(N  23,C  30,H  32)          109.8642         0.330029   
     99. A(N  23,C  30,H  31)          110.3009         0.330135   
    100. A(H  35,C  34,H  36)          108.5622         0.289262   
    101. A(C   6,C  34,H  36)          110.1689         0.323753   
    102. A(C   6,C  34,H  35)          107.8481         0.323621   
    103. A(H  36,C  34,H  37)          108.8059         0.290666   
    104. A(H  35,C  34,H  37)          109.2652         0.290554   
    105. A(C   6,C  34,H  37)          112.1227         0.325266   
    106. D(O  25,C   4,C   0,H   3)    -92.7921         0.011455   
    107. D(N   5,C   4,C   0,H   2)   -155.2565         0.011455   
    108. D(N   5,C   4,C   0,H   1)    -34.0298         0.011455   
    109. D(O  25,C   4,C   0,H   2)     24.2398         0.011455   
    110. D(N   5,C   4,C   0,H   3)     87.7116         0.011455   
    111. D(O  25,C   4,C   0,H   1)    145.4665         0.011455   
    112. D(C   6,N   5,C   4,C   0)    161.3010         0.027802   
    113. D(C  19,N   5,C   4,O  25)    170.8283         0.027802   
    114. D(C   6,N   5,C   4,O  25)    -18.1850         0.027802   
    115. D(C  19,N   5,C   4,C   0)     -9.6858         0.027802   
    116. D(C   8,C   6,N   5,C   4)     92.4532         0.013175   
    117. D(C   8,C   6,N   5,C  19)    -95.8663         0.013175   
    118. D(C  34,C   6,N   5,C   4)    -37.8668         0.013175   
    119. D(C  34,C   6,N   5,C  19)    133.8137         0.013175   
    120. D(H   7,C   6,N   5,C  19)     19.2852         0.013175   
    121. D(H   7,C   6,N   5,C   4)   -152.3952         0.013175   
    122. D(C  10,C   8,C   6,C  34)   -116.3146         0.011786   
    123. D(C  10,C   8,C   6,H   7)     -0.4590         0.011786   
    124. D(C   9,C   8,C   6,C  34)     63.5922         0.011786   
    125. D(C  10,C   8,C   6,N   5)    112.7871         0.011786   
    126. D(C   9,C   8,C   6,H   7)    179.4478         0.011786   
    127. D(C   9,C   8,C   6,N   5)    -67.3061         0.011786   
    128. D(H  12,C   9,C   8,C   6)      0.7724         0.024203   
    129. D(C  11,C   9,C   8,C  10)     -0.7943         0.024203   
    130. D(H  12,C   9,C   8,C  10)   -179.3201         0.024203   
    131. D(C  11,C   9,C   8,C   6)    179.2982         0.024203   
    132. D(H  14,C  10,C   8,C   9)   -178.9911         0.024765   
    133. D(C  13,C  10,C   8,C   9)      0.6373         0.024765   
    134. D(C  13,C  10,C   8,C   6)   -179.4538         0.024765   
    135. D(H  14,C  10,C   8,C   6)      0.9178         0.024765   
    136. D(C  15,C  11,C   9,C   8)      0.4703         0.025971   
    137. D(H  16,C  11,C   9,H  12)     -1.3204         0.025971   
    138. D(H  16,C  11,C   9,C   8)   -179.8187         0.025971   
    139. D(C  15,C  11,C   9,H  12)    178.9686         0.025971   
    140. D(H  17,C  13,C  10,H  14)     -0.4546         0.025467   
    141. D(C  15,C  13,C  10,H  14)    179.4794         0.025467   
    142. D(C  15,C  13,C  10,C   8)     -0.1488         0.025467   
    143. D(H  17,C  13,C  10,C   8)    179.9172         0.025467   
    144. D(H  18,C  15,C  13,H  17)     -0.1745         0.026007   
    145. D(H  18,C  15,C  13,C  10)    179.8917         0.026007   
    146. D(C  11,C  15,C  13,H  17)    179.7463         0.026007   
    147. D(C  11,C  15,C  13,C  10)     -0.1875         0.026007   
    148. D(H  18,C  15,C  11,H  16)      0.2373         0.025293   
    149. D(C  13,C  15,C  11,H  16)   -179.6836         0.025293   
    150. D(C  13,C  15,C  11,C   9)      0.0264         0.025293   
    151. D(H  18,C  15,C  11,C   9)    179.9472         0.025293   
    152. D(C  22,C  19,N   5,C   6)    148.2300         0.015513   
    153. D(C  22,C  19,N   5,C   4)    -40.2843         0.015513   
    154. D(H  21,C  19,N   5,C   6)     27.3904         0.015513   
    155. D(H  21,C  19,N   5,C   4)   -161.1239         0.015513   
    156. D(H  20,C  19,N   5,C   6)    -90.0242         0.015513   
    157. D(H  20,C  19,N   5,C   4)     81.4616         0.015513   
    158. D(O  24,C  22,C  19,H  21)   -111.4985         0.010322   
    159. D(O  24,C  22,C  19,H  20)      2.6676         0.010322   
    160. D(O  24,C  22,C  19,N   5)    128.0383         0.010322   
    161. D(N  23,C  22,C  19,H  21)     66.6819         0.010322   
    162. D(N  23,C  22,C  19,H  20)   -179.1520         0.010322   
    163. D(N  23,C  22,C  19,N   5)    -53.7813         0.010322   
    164. D(C  30,N  23,C  22,O  24)     -6.6583         0.030656   
    165. D(C  30,N  23,C  22,C  19)    175.2495         0.030656   
    166. D(C  26,N  23,C  22,O  24)    175.9035         0.030656   
    167. D(C  26,N  23,C  22,C  19)     -2.1888         0.030656   
    168. D(H  27,C  26,N  23,C  22)     97.4026         0.016642   
    169. D(H  29,C  26,N  23,C  30)    158.4845         0.016642   
    170. D(H  29,C  26,N  23,C  22)    -24.0184         0.016642   
    171. D(H  28,C  26,N  23,C  30)     39.5864         0.016642   
    172. D(H  28,C  26,N  23,C  22)   -142.9165         0.016642   
    173. D(H  27,C  26,N  23,C  30)    -80.0946         0.016642   
    174. D(H  33,C  30,N  23,C  26)    175.5777         0.016509   
    175. D(H  33,C  30,N  23,C  22)     -2.1038         0.016509   
    176. D(H  32,C  30,N  23,C  26)     55.2042         0.016509   
    177. D(H  32,C  30,N  23,C  22)   -122.4773         0.016509   
    178. D(H  31,C  30,N  23,C  26)    -64.5425         0.016509   
    179. D(H  31,C  30,N  23,C  22)    117.7759         0.016509   
    180. D(H  37,C  34,C   6,C   8)    -59.0920         0.011259   
    181. D(H  37,C  34,C   6,H   7)   -175.6343         0.011259   
    182. D(H  37,C  34,C   6,N   5)     71.0050         0.011259   
    183. D(H  36,C  34,C   6,C   8)    179.5735         0.011259   
    184. D(H  36,C  34,C   6,H   7)     63.0312         0.011259   
    185. D(H  36,C  34,C   6,N   5)    -50.3295         0.011259   
    186. D(H  35,C  34,C   6,C   8)     61.2437         0.011259   
    187. D(H  35,C  34,C   6,H   7)    -55.2986         0.011259   
    188. D(H  35,C  34,C   6,N   5)   -168.6593         0.011259   
    -----------------------------------------------------------------

Number of atoms                         .... 38
Number of degrees of freedom            .... 188

         *************************************************************
         *                GEOMETRY OPTIMIZATION CYCLE   1            *
         *************************************************************
---------------------------------
CARTESIAN COORDINATES (ANGSTROEM)
---------------------------------
  C     -2.475000    1.654000    0.977000
  H     -3.044000    1.805000    0.058000
  H     -2.660000    2.475000    1.672000
  H     -2.826000    0.730000    1.443000
  C     -0.974000    1.610000    0.765000
  N     -0.499000    1.058000   -0.403000
  C      0.882000    1.335000   -0.878000
  H      0.810000    1.226000   -1.968000
  C      1.877000    0.302000   -0.398000
  C      2.207000    0.186000    0.962000
  C      2.487000   -0.558000   -1.321000
  C      3.117000   -0.785000    1.381000
  H      1.726000    0.845000    1.679000
  C      3.401000   -1.528000   -0.900000
  H      2.250000   -0.465000   -2.381000
  C      3.716000   -1.644000    0.454000
  H      3.364000   -0.869000    2.437000
  H      3.865000   -2.189000   -1.629000
  H      4.425000   -2.398000    0.787000
  C     -1.347000    0.332000   -1.350000
  H     -1.899000    1.009000   -2.012000
  H     -0.678000   -0.269000   -1.978000
  C     -2.409000   -0.610000   -0.775000
  N     -2.014000   -1.568000    0.112000
  O     -3.578000   -0.489000   -1.162000
  O     -0.214000    2.072000    1.627000
  C     -0.645000   -1.812000    0.538000
  H     -0.423000   -1.324000    1.494000
  H     -0.513000   -2.892000    0.655000
  H      0.070000   -1.459000   -0.200000
  C     -3.033000   -2.396000    0.740000
  H     -2.890000   -3.447000    0.467000
  H     -2.967000   -2.305000    1.830000
  H     -4.009000   -2.062000    0.396000
  C      1.349000    2.770000   -0.635000
  H      2.278000    2.920000   -1.195000
  H      0.601000    3.478000   -1.005000
  H      1.529000    2.969000    0.418000

----------------------------
CARTESIAN COORDINATES (A.U.)
----------------------------
  NO LB      ZA    FRAG     MASS         X           Y           Z
   0 C     6.0000    0    12.011   -4.677072    3.125607    1.846262
   1 H     1.0000    0     1.008   -5.752326    3.410956    0.109604
   2 H     1.0000    0     1.008   -5.026672    4.677072    3.159622
   3 H     1.0000    0     1.008   -5.340366    1.379500    2.726875
   4 C     6.0000    0    12.011   -1.840593    3.042459    1.445640
   5 N     7.0000    0    14.007   -0.942973    1.999330   -0.761560
   6 C     6.0000    0    12.011    1.666738    2.522784   -1.659180
   7 H     1.0000    0     1.008    1.530678    2.316804   -3.718981
   8 C     6.0000    0    12.011    3.547016    0.570697   -0.752111
   9 C     6.0000    0    12.011    4.170626    0.351489    1.817917
  10 C     6.0000    0    12.011    4.699749   -1.054467   -2.496328
  11 C     6.0000    0    12.011    5.890276   -1.483435    2.609712
  12 H     1.0000    0     1.008    3.261667    1.596819    3.172850
  13 C     6.0000    0    12.011    6.426959   -2.887502   -1.700754
  14 H     1.0000    0     1.008    4.251884   -0.878723   -4.499438
  15 C     6.0000    0    12.011    7.022222   -3.106710    0.857936
  16 H     1.0000    0     1.008    6.357039   -1.642172    4.605263
  17 H     1.0000    0     1.008    7.303792   -4.136611   -3.078364
  18 H     1.0000    0     1.008    8.362038   -4.531563    1.487214
  19 C     6.0000    0    12.011   -2.545461    0.627389   -2.551130
  20 H     1.0000    0     1.008   -3.588590    1.906734   -3.802129
  21 H     1.0000    0     1.008   -1.281234   -0.508336   -3.737878
  22 C     6.0000    0    12.011   -4.552350   -1.152733   -1.464538
  23 N     7.0000    0    14.007   -3.805908   -2.963091    0.211649
  24 O     8.0000    0    15.999   -6.761440   -0.924076   -2.195862
  25 O     8.0000    0    15.999   -0.404401    3.915513    3.074584
  26 C     6.0000    0    12.011   -1.218873   -3.424184    1.016673
  27 H     1.0000    0     1.008   -0.799354   -2.501997    2.823251
  28 H     1.0000    0     1.008   -0.969430   -5.465088    1.237771
  29 H     1.0000    0     1.008    0.132281   -2.757110   -0.377945
  30 C     6.0000    0    12.011   -5.731539   -4.527784    1.398397
  31 H     1.0000    0     1.008   -5.461309   -6.513886    0.882502
  32 H     1.0000    0     1.008   -5.606817   -4.355819    3.458199
  33 H     1.0000    0     1.008   -7.575912   -3.896615    0.748332
  34 C     6.0000    0    12.011    2.549241    5.234541   -1.199976
  35 H     1.0000    0     1.008    4.304796    5.518000   -2.258223
  36 H     1.0000    0     1.008    1.135725    6.572467   -1.899175
  37 H     1.0000    0     1.008    2.889391    5.610597    0.789906

--------------------------------
INTERNAL COORDINATES (ANGSTROEM)
--------------------------------
 C      0   0   0     0.000000000000     0.00000000     0.00000000
 H      1   0   0     1.091385816290     0.00000000     0.00000000
 H      1   2   0     1.091462779943   110.10507927     0.00000000
 H      1   2   3     1.092763926930   107.97560209   117.76690232
 C      1   2   3     1.516535855165   113.72309733   240.99273409
 N      5   1   2     1.376427622507   118.15253476   325.97021161
 C      6   5   1     1.486443742629   121.13444407   161.30095600
 H      7   6   5     1.097800072873   103.75957463   207.60478948
 C      7   6   5     1.512452974476   112.48935781    92.45323457
 C      9   7   6     1.404263508035   121.22364075   292.69392385
 C      9   7   6     1.401295472054   119.76905723   112.78710279
 C     10   9   7     1.395170957267   120.10751640   179.29817303
 H     10   9   7     1.086154224777   119.02112095     0.77239291
 C     11   9   7     1.397689879766   120.80960046   180.54622177
 H     11   9   7     1.090145861800   119.56878610     0.91780266
 C     14  11   9     1.394989964122   119.85021201   359.85121840
 H     12  10   9     1.087750430935   119.56496129   180.18127269
 H     14  11   9     1.087960477223   119.91481873   179.91721460
 H     16  14  11     1.087237784480   120.14571870   179.89167549
 C      6   5   1     1.463895146518   123.22507690   350.31418045
 H     20   6   5     1.096027828114   112.09489426    81.46158864
 H     20   6   5     1.096880121071   106.78608232   198.87614040
 C     20   6   5     1.531611243103   117.63398808   319.71572538
 N     23  20   6     1.364022727083   118.37878491   306.21872045
 O     23  20   6     1.237324128917   118.52434784   128.03829736
 O      5   1   2     1.238583061405   119.94753971   145.46651916
 C     24  23  20     1.454363434634   125.51345796   357.81124798
 H     27  24  23     1.096067516169   111.80432677    97.40256812
 H     27  24  23     1.094309371247   108.08565173   217.08348982
 H     27  24  23     1.086498044177   111.46817624   335.98164600
 C     24  23  20     1.455448040983   118.51539637   175.24945208
 H     31  24  23     1.095252938823   110.30086294   117.77590565
 H     31  24  23     1.095781456313   109.86419134   237.52266485
 H     31  24  23     1.087413444831   108.49122937   357.89617768
 C      7   6   5     1.528516601153   114.07923190   322.13323643
 H     35   7   6     1.095052966755   107.84811616   191.34071412
 H     35   7   6     1.094380189879   110.16885940   309.67052875
 H     35   7   6     1.086650817880   112.12267964    71.00502772

---------------------------
INTERNAL COORDINATES (A.U.)
---------------------------
 C      0   0   0     0.000000000000     0.00000000     0.00000000
 H      1   0   0     2.062420299235     0.00000000     0.00000000
 H      1   2   0     2.062565739460   110.10507927     0.00000000
 H      1   2   3     2.065024550926   107.97560209   117.76690232
 C      1   2   3     2.865837438533   113.72309733   240.99273409
 N      5   1   2     2.601071249702   118.15253476   325.97021161
 C      6   5   1     2.808971587049   121.13444407   161.30095600
 H      7   6   5     2.074541487529   103.75957463   207.60478948
 C      7   6   5     2.858121912193   112.48935781    92.45323457
 C      9   7   6     2.653673450047   121.22364075   292.69392385
 C      9   7   6     2.648064674887   119.76905723   112.78710279
 C     10   9   7     2.636491019234   120.10751640   179.29817303
 H     10   9   7     2.052534024029   119.02112095     0.77239291
 C     11   9   7     2.641251092911   120.80960046   180.54622177
 H     11   9   7     2.060077124830   119.56878610     0.91780266
 C     14  11   9     2.636148991758   119.85021201   359.85121840
 H     12  10   9     2.055550416523   119.56496129   180.18127269
 H     14  11   9     2.055947346482   119.91481873   179.91721460
 H     16  14  11     2.054581655118   120.14571870   179.89167549
 C      6   5   1     2.766360915696   123.22507690   350.31418045
 H     20   6   5     2.071192430292   112.09489426    81.46158864
 H     20   6   5     2.072803030566   106.78608232   198.87614040
 C     20   6   5     2.894325793100   117.63398808   319.71572538
 N     23  20   6     2.577629394632   118.37878491   306.21872045
 O     23  20   6     2.338203742546   118.52434784   128.03829736
 O      5   1   2     2.340582780170   119.94753971   145.46651916
 C     24  23  20     2.748348590647   125.51345796   357.81124798
 H     27  24  23     2.071267429846   111.80432677    97.40256812
 H     27  24  23     2.067945017441   108.08565173   217.08348982
 H     27  24  23     2.053183748535   111.46817624   335.98164600
 C     24  23  20     2.750398199609   118.51539637   175.24945208
 H     31  24  23     2.069728101748   110.30086294   117.77590565
 H     31  24  23     2.070726855061   109.86419134   237.52266485
 H     31  24  23     2.054913605075   108.49122937   357.89617768
 C      7   6   5     2.888477767331   114.07923190   322.13323643
 H     35   7   6     2.069350209306   107.84811616   191.34071412
 H     35   7   6     2.068078845260   110.16885940   309.67052875
 H     35   7   6     2.053472448995   112.12267964    71.00502772

---------------------
BASIS SET INFORMATION
---------------------
There are 4 groups of distinct atoms

 Group   1 Type C   : 10s4p1d contracted to 3s2p1d pattern {631/31/1}
 Group   2 Type H   : 4s contracted to 2s pattern {31}
 Group   3 Type N   : 10s4p1d contracted to 3s2p1d pattern {631/31/1}
 Group   4 Type O   : 10s4p1d contracted to 3s2p1d pattern {631/31/1}

Atom   0C    basis set group =>   1
Atom   1H    basis set group =>   2
Atom   2H    basis set group =>   2
Atom   3H    basis set group =>   2
Atom   4C    basis set group =>   1
Atom   5N    basis set group =>   3
Atom   6C    basis set group =>   1
Atom   7H    basis set group =>   2
Atom   8C    basis set group =>   1
Atom   9C    basis set group =>   1
Atom  10C    basis set group =>   1
Atom  11C    basis set group =>   1
Atom  12H    basis set group =>   2
Atom  13C    basis set group =>   1
Atom  14H    basis set group =>   2
Atom  15C    basis set group =>   1
Atom  16H    basis set group =>   2
Atom  17H    basis set group =>   2
Atom  18H    basis set group =>   2
Atom  19C    basis set group =>   1
Atom  20H    basis set group =>   2
Atom  21H    basis set group =>   2
Atom  22C    basis set group =>   1
Atom  23N    basis set group =>   3
Atom  24O    basis set group =>   4
Atom  25O    basis set group =>   4
Atom  26C    basis set group =>   1
Atom  27H    basis set group =>   2
Atom  28H    basis set group =>   2
Atom  29H    basis set group =>   2
Atom  30C    basis set group =>   1
Atom  31H    basis set group =>   2
Atom  32H    basis set group =>   2
Atom  33H    basis set group =>   2
Atom  34C    basis set group =>   1
Atom  35H    basis set group =>   2
Atom  36H    basis set group =>   2
Atom  37H    basis set group =>   2
---------------------------------
AUXILIARY/J BASIS SET INFORMATION
---------------------------------
There are 4 groups of distinct atoms

 Group   1 Type C   : 13s11p10d2f contracted to 13s11p10d2f pattern {1111111111111/11111111111/1111111111/11}
 Group   2 Type H   : 9s2p contracted to 9s2p pattern {111111111/11}
 Group   3 Type N   : 14s11p10d2f contracted to 14s11p10d2f pattern {11111111111111/11111111111/1111111111/11}
 Group   4 Type O   : 14s11p10d2f contracted to 14s11p10d2f pattern {11111111111111/11111111111/1111111111/11}

Atom   0C    basis set group =>   1
Atom   1H    basis set group =>   2
Atom   2H    basis set group =>   2
Atom   3H    basis set group =>   2
Atom   4C    basis set group =>   1
Atom   5N    basis set group =>   3
Atom   6C    basis set group =>   1
Atom   7H    basis set group =>   2
Atom   8C    basis set group =>   1
Atom   9C    basis set group =>   1
Atom  10C    basis set group =>   1
Atom  11C    basis set group =>   1
Atom  12H    basis set group =>   2
Atom  13C    basis set group =>   1
Atom  14H    basis set group =>   2
Atom  15C    basis set group =>   1
Atom  16H    basis set group =>   2
Atom  17H    basis set group =>   2
Atom  18H    basis set group =>   2
Atom  19C    basis set group =>   1
Atom  20H    basis set group =>   2
Atom  21H    basis set group =>   2
Atom  22C    basis set group =>   1
Atom  23N    basis set group =>   3
Atom  24O    basis set group =>   4
Atom  25O    basis set group =>   4
Atom  26C    basis set group =>   1
Atom  27H    basis set group =>   2
Atom  28H    basis set group =>   2
Atom  29H    basis set group =>   2
Atom  30C    basis set group =>   1
Atom  31H    basis set group =>   2
Atom  32H    basis set group =>   2
Atom  33H    basis set group =>   2
Atom  34C    basis set group =>   1
Atom  35H    basis set group =>   2
Atom  36H    basis set group =>   2
Atom  37H    basis set group =>   2
---------------------------------
AUXILIARY/C BASIS SET INFORMATION
---------------------------------
There are 4 groups of distinct atoms

 Group   1 Type C   : 13s11p10d2f contracted to 13s11p10d2f pattern {1111111111111/11111111111/1111111111/11}
 Group   2 Type H   : 9s2p contracted to 9s2p pattern {111111111/11}
 Group   3 Type N   : 14s11p10d2f contracted to 14s11p10d2f pattern {11111111111111/11111111111/1111111111/11}
 Group   4 Type O   : 14s11p10d2f contracted to 14s11p10d2f pattern {11111111111111/11111111111/1111111111/11}

Atom   0C    basis set group =>   1
Atom   1H    basis set group =>   2
Atom   2H    basis set group =>   2
Atom   3H    basis set group =>   2
Atom   4C    basis set group =>   1
Atom   5N    basis set group =>   3
Atom   6C    basis set group =>   1
Atom   7H    basis set group =>   2
Atom   8C    basis set group =>   1
Atom   9C    basis set group =>   1
Atom  10C    basis set group =>   1
Atom  11C    basis set group =>   1
Atom  12H    basis set group =>   2
Atom  13C    basis set group =>   1
Atom  14H    basis set group =>   2
Atom  15C    basis set group =>   1
Atom  16H    basis set group =>   2
Atom  17H    basis set group =>   2
Atom  18H    basis set group =>   2
Atom  19C    basis set group =>   1
Atom  20H    basis set group =>   2
Atom  21H    basis set group =>   2
Atom  22C    basis set group =>   1
Atom  23N    basis set group =>   3
Atom  24O    basis set group =>   4
Atom  25O    basis set group =>   4
Atom  26C    basis set group =>   1
Atom  27H    basis set group =>   2
Atom  28H    basis set group =>   2
Atom  29H    basis set group =>   2
Atom  30C    basis set group =>   1
Atom  31H    basis set group =>   2
Atom  32H    basis set group =>   2
Atom  33H    basis set group =>   2
Atom  34C    basis set group =>   1
Atom  35H    basis set group =>   2
Atom  36H    basis set group =>   2
Atom  37H    basis set group =>   2
----------------------------------
AUXILIARY/JK BASIS SET INFORMATION
----------------------------------
There are 4 groups of distinct atoms

 Group   1 Type C   : 13s11p10d2f contracted to 13s11p10d2f pattern {1111111111111/11111111111/1111111111/11}
 Group   2 Type H   : 9s2p contracted to 9s2p pattern {111111111/11}
 Group   3 Type N   : 14s11p10d2f contracted to 14s11p10d2f pattern {11111111111111/11111111111/1111111111/11}
 Group   4 Type O   : 14s11p10d2f contracted to 14s11p10d2f pattern {11111111111111/11111111111/1111111111/11}

Atom   0C    basis set group =>   1
Atom   1H    basis set group =>   2
Atom   2H    basis set group =>   2
Atom   3H    basis set group =>   2
Atom   4C    basis set group =>   1
Atom   5N    basis set group =>   3
Atom   6C    basis set group =>   1
Atom   7H    basis set group =>   2
Atom   8C    basis set group =>   1
Atom   9C    basis set group =>   1
Atom  10C    basis set group =>   1
Atom  11C    basis set group =>   1
Atom  12H    basis set group =>   2
Atom  13C    basis set group =>   1
Atom  14H    basis set group =>   2
Atom  15C    basis set group =>   1
Atom  16H    basis set group =>   2
Atom  17H    basis set group =>   2
Atom  18H    basis set group =>   2
Atom  19C    basis set group =>   1
Atom  20H    basis set group =>   2
Atom  21H    basis set group =>   2
Atom  22C    basis set group =>   1
Atom  23N    basis set group =>   3
Atom  24O    basis set group =>   4
Atom  25O    basis set group =>   4
Atom  26C    basis set group =>   1
Atom  27H    basis set group =>   2
Atom  28H    basis set group =>   2
Atom  29H    basis set group =>   2
Atom  30C    basis set group =>   1
Atom  31H    basis set group =>   2
Atom  32H    basis set group =>   2
Atom  33H    basis set group =>   2
Atom  34C    basis set group =>   1
Atom  35H    basis set group =>   2
Atom  36H    basis set group =>   2
Atom  37H    basis set group =>   2


           ************************************************************
           *        Program running with 4 parallel MPI-processes     *
           *              working on a common directory               *
           ************************************************************
------------------------------------------------------------------------------
                           ORCA GTO INTEGRAL CALCULATION
                           -- RI-GTO INTEGRALS CHOSEN --
------------------------------------------------------------------------------
------------------------------------------------------------------------------
                   ___                                                        
                  /   \      - P O W E R E D   B Y -                         
                 /     \                                                     
                 |  |  |   _    _      __       _____    __    __             
                 |  |  |  | |  | |    /  \     |  _  \  |  |  /  |          
                  \  \/   | |  | |   /    \    | | | |  |  | /  /          
                 / \  \   | |__| |  /  /\  \   | |_| |  |  |/  /          
                |  |  |   |  __  | /  /__\  \  |    /   |      \           
                |  |  |   | |  | | |   __   |  |    \   |  |\   \          
                \     /   | |  | | |  |  |  |  | |\  \  |  | \   \       
                 \___/    |_|  |_| |__|  |__|  |_| \__\ |__|  \__/        
                                                                              
                      - O R C A' S   B I G   F R I E N D -                    
                                      &                                       
                       - I N T E G R A L  F E E D E R -                       
                                                                              
 v1 FN, 2020, v2 2021                                                         
------------------------------------------------------------------------------


Reading SHARK input file Nfes_gas.SHARKINP.tmp ... ok
----------------------
SHARK INTEGRAL PACKAGE
----------------------

Number of atoms                             ...     38
Number of basis functions                   ...    292
Number of shells                            ...    148
Maximum angular momentum                    ...      2
Integral batch strategy                     ... SHARK/LIBINT Hybrid
RI-J (if used) integral strategy            ... SPLIT-RIJ (Revised 2003 algorithm where possible)
Printlevel                                  ...      1
Contraction scheme used                     ... SEGMENTED contraction
Coulomb Range Separation                    ... NOT USED
Exchange Range Separation                   ... NOT USED
Finite Nucleus Model                        ... NOT USED
Auxiliary Coulomb fitting basis             ... AVAILABLE
   # of basis functions in Aux-J            ...   2284
   # of shells in Aux-J                     ...    872
   Maximum angular momentum in Aux-J        ...      3
Auxiliary J/K fitting basis                 ... AVAILABLE
   # of basis functions in Aux-JK           ...   2284
   # of shells in Aux-JK                    ...    872
   Maximum angular momentum in Aux-JK       ...      3
Auxiliary Correlation fitting basis         ... AVAILABLE
   # of basis functions in Aux-C            ...   2284
   # of shells in Aux-C                     ...    872
   Maximum angular momentum in Aux-C        ...      3
Auxiliary 'external' fitting basis          ... NOT available
Integral threshold                          ...     2.500000e-11
Primitive cut-off                           ...     2.500000e-12
Primitive pair pre-selection threshold      ...     2.500000e-12

Calculating pre-screening integrals         ... done (  0.1 sec) Dimension = 148
Organizing shell pair data                  ... done (  0.7 sec)
Shell pair information
Total number of shell pairs                 ...     11026
Shell pairs after pre-screening             ...      9236
Total number of primitive shell pairs       ...     61863
Primitive shell pairs kept                  ...     29405
          la=0 lb=0:   3591 shell pairs
          la=1 lb=0:   3013 shell pairs
          la=1 lb=1:    629 shell pairs
          la=2 lb=0:   1303 shell pairs
          la=2 lb=1:    573 shell pairs
          la=2 lb=2:    127 shell pairs

Calculating one electron integrals          ... done (  0.0 sec)
Calculating RI/J V-Matrix + Cholesky decomp.... done (  0.3 sec)
Calculating RI/JK V-Matrix + Cholesky decomp... done (  0.4 sec)
Calculating RI/C V-Matrix + Cholesky decomp.... done (  0.4 sec)
Calculating Nuclear repulsion               ... done (  0.0 sec) ENN=   1403.646865288149 Eh

SHARK setup successfully completed in   2.2 seconds

Maximum memory used throughout the entire GTOINT-calculation: 44.8 MB


           ************************************************************
           *        Program running with 4 parallel MPI-processes     *
           *              working on a common directory               *
           ************************************************************
-------------------------------------------------------------------------------
                                 ORCA SCF
-------------------------------------------------------------------------------

------------
SCF SETTINGS
------------
Hamiltonian:
 Density Functional     Method          .... DFT(GTOs)
 Exchange Functional    Exchange        .... B88
   X-Alpha parameter    XAlpha          ....  0.666667
   Becke's b parameter  XBeta           ....  0.004200
 Correlation Functional Correlation     .... LYP
 LDA part of GGA corr.  LDAOpt          .... VWN-5
 Gradients option       PostSCFGGA      .... off
 Hybrid DFT is turned on
   Fraction HF Exchange ScalHFX         ....  0.200000
   Scaling of DF-GGA-X  ScalDFX         ....  0.720000
   Scaling of DF-GGA-C  ScalDFC         ....  0.810000
   Scaling of DF-LDA-C  ScalLDAC        ....  1.000000
   Perturbative correction              ....  0.000000
   Density functional embedding theory  .... OFF
   NL short-range parameter             ....  4.800000
 RI-approximation to the Coulomb term is turned on
   Number of AuxJ basis functions       .... 2284
   RIJ-COSX (HFX calculated with COS-X)).... on


General Settings:
 Integral files         IntName         .... Nfes_gas
 Hartree-Fock type      HFTyp           .... RHF
 Total Charge           Charge          ....    0
 Multiplicity           Mult            ....    1
 Number of Electrons    NEL             ....  134
 Basis Dimension        Dim             ....  292
 Nuclear Repulsion      ENuc            ....   1403.6468652881 Eh

Convergence Acceleration:
 DIIS                   CNVDIIS         .... on
   Start iteration      DIISMaxIt       ....    12
   Startup error        DIISStart       ....  0.200000
   # of expansion vecs  DIISMaxEq       ....     5
   Bias factor          DIISBfac        ....   1.050
   Max. coefficient     DIISMaxC        ....  10.000
 Trust-Rad. Augm. Hess. CNVTRAH         .... auto
   Auto Start mean grad. ratio tolernc. ....  1.125000
   Auto Start start iteration           ....    20
   Auto Start num. interpolation iter.  ....    10
   Max. Number of Micro iterations      ....    16
   Max. Number of Macro iterations      .... Maxiter - #DIIS iter
   Number of Davidson start vectors     ....     2
   Converg. threshold I  (grad. norm)   ....   1.000e-05
   Converg. threshold II (energy diff.) ....   1.000e-08
   Grad. Scal. Fac. for Micro threshold ....   0.100
   Minimum threshold for Micro iter.    ....   0.010
   NR start threshold (gradient norm)   ....   0.001
   Initial trust radius                 ....   0.400
   Minimum AH scaling param. (alpha)    ....   1.000
   Maximum AH scaling param. (alpha)    .... 1000.000
   Orbital update algorithm             .... Taylor
   White noise on init. David. guess    .... on
   Maximum white noise                  ....   0.010
   Quad. conv. algorithm                .... NR
 SOSCF                  CNVSOSCF        .... on
   Start iteration      SOSCFMaxIt      ....   150
   Startup grad/error   SOSCFStart      ....  0.003300
 Level Shifting         CNVShift        .... on
   Level shift para.    LevelShift      ....    0.2500
   Turn off err/grad.   ShiftErr        ....    0.0010
 Zerner damping         CNVZerner       .... off
 Static damping         CNVDamp         .... on
   Fraction old density DampFac         ....    0.7000
   Max. Damping (<1)    DampMax         ....    0.9800
   Min. Damping (>=0)   DampMin         ....    0.0000
   Turn off err/grad.   DampErr         ....    0.1000
 Fernandez-Rico         CNVRico         .... off

SCF Procedure:
 Maximum # iterations   MaxIter         ....   125
 SCF integral mode      SCFMode         .... Direct
   Integral package                     .... SHARK and LIBINT hybrid scheme
 Reset frequency        DirectResetFreq ....    20
 Integral Threshold     Thresh          ....  2.500e-11 Eh
 Primitive CutOff       TCut            ....  2.500e-12 Eh

Convergence Tolerance:
 Convergence Check Mode ConvCheckMode   .... Total+1el-Energy
 Convergence forced     ConvForced      .... 0
 Energy Change          TolE            ....  1.000e-08 Eh
 1-El. energy change                    ....  1.000e-05 Eh
 Orbital Gradient       TolG            ....  1.000e-05
 Orbital Rotation angle TolX            ....  1.000e-05
 DIIS Error             TolErr          ....  5.000e-07


Diagonalization of the overlap matrix:
Smallest eigenvalue                        ... 4.766e-04
Time for diagonalization                   ...    0.013 sec
Threshold for overlap eigenvalues          ... 1.000e-08
Number of eigenvalues below threshold      ... 0
Time for construction of square roots      ...    0.007 sec
Total time needed                          ...    0.021 sec

Time for model grid setup =    0.323 sec

------------------------------
INITIAL GUESS: MODEL POTENTIAL
------------------------------
Loading Hartree-Fock densities                     ... done
Calculating cut-offs                               ... done
Initializing the effective Hamiltonian             ... done
Setting up the integral package (SHARK)            ... done
Starting the Coulomb interaction                   ... done (   0.3 sec)
Reading the grid                                   ... done
Mapping shells                                     ... done
Starting the XC term evaluation                    ... done (   0.2 sec)
  promolecular density results
     # of electrons  =    133.988453767
     EX              =   -107.478312786
     EC              =     -4.513199599
     EX+EC           =   -111.991512386
Transforming the Hamiltonian                       ... done (   0.0 sec)
Diagonalizing the Hamiltonian                      ... done (   0.0 sec)
Back transforming the eigenvectors                 ... done (   0.0 sec)
Now organizing SCF variables                       ... done
                      ------------------
                      INITIAL GUESS DONE (   0.9 sec)
                      ------------------
-------------------
DFT GRID GENERATION
-------------------

General Integration Accuracy     IntAcc      ... 4.388
Radial Grid Type                 RadialGrid  ... OptM3 with GC (2021)
Angular Grid (max. ang.)         AngularGrid ... 4 (Lebedev-302)
Angular grid pruning method      GridPruning ... 4 (adaptive)
Weight generation scheme         WeightScheme... Becke
Basis function cutoff            BFCut       ... 1.0000e-11
Integration weight cutoff        WCut        ... 1.0000e-14
Angular grids for H and He will be reduced by one unit
Partially contracted basis set               ... off
Rotationally invariant grid construction     ... off

Total number of grid points                  ...   170596
Total number of batches                      ...     2685
Average number of points per batch           ...       63
Average number of grid points per atom       ...     4489
Time for grid setup =    1.514 sec

--------------------
COSX GRID GENERATION
--------------------

GRIDX 1
-------
General Integration Accuracy     IntAcc      ... 3.816
Radial Grid Type                 RadialGrid  ... OptM3 with GC (2021)
Angular Grid (max. ang.)         AngularGrid ... 1 (Lebedev-50)
Angular grid pruning method      GridPruning ... 4 (adaptive)
Weight generation scheme         WeightScheme... Becke
Basis function cutoff            BFCut       ... 1.0000e-11
Integration weight cutoff        WCut        ... 1.0000e-14
Angular grids for H and He will be reduced by one unit
Partially contracted basis set               ... on
Rotationally invariant grid construction     ... off

Total number of grid points                  ...    21714
Total number of batches                      ...      359
Average number of points per batch           ...       60
Average number of grid points per atom       ...      571
UseSFitting                                  ... on

GRIDX 2
-------
General Integration Accuracy     IntAcc      ... 4.020
Radial Grid Type                 RadialGrid  ... OptM3 with GC (2021)
Angular Grid (max. ang.)         AngularGrid ... 2 (Lebedev-110)
Angular grid pruning method      GridPruning ... 4 (adaptive)
Weight generation scheme         WeightScheme... Becke
Basis function cutoff            BFCut       ... 1.0000e-11
Integration weight cutoff        WCut        ... 1.0000e-14
Angular grids for H and He will be reduced by one unit
Partially contracted basis set               ... on
Rotationally invariant grid construction     ... off

Total number of grid points                  ...    46068
Total number of batches                      ...      740
Average number of points per batch           ...       62
Average number of grid points per atom       ...     1212
UseSFitting                                  ... on

GRIDX 3
-------
General Integration Accuracy     IntAcc      ... 4.338
Radial Grid Type                 RadialGrid  ... OptM3 with GC (2021)
Angular Grid (max. ang.)         AngularGrid ... 3 (Lebedev-194)
Angular grid pruning method      GridPruning ... 4 (adaptive)
Weight generation scheme         WeightScheme... Becke
Basis function cutoff            BFCut       ... 1.0000e-11
Integration weight cutoff        WCut        ... 1.0000e-14
Angular grids for H and He will be reduced by one unit
Partially contracted basis set               ... on
Rotationally invariant grid construction     ... off

Total number of grid points                  ...   100239
Total number of batches                      ...     1588
Average number of points per batch           ...       63
Average number of grid points per atom       ...     2638
UseSFitting                                  ... on

Time for X-Grid setup             =    2.439 sec

--------------
SCF ITERATIONS
--------------
ITER       Energy         Delta-E        Max-DP      RMS-DP      [F,P]     Damp
               ***  Starting incremental Fock matrix formation  ***
  0   -804.4674334869   0.000000000000 0.10156618  0.00203159  0.2758452 0.7000
  1   -804.7091483301  -0.241714843178 0.05644792  0.00134951  0.1037996 0.7000
                               ***Turning on DIIS***
  2   -804.8025071645  -0.093358834384 0.06662848  0.00209131  0.0404675 0.0000
  3   -804.9532966640  -0.150789499517 0.03756406  0.00094739  0.0508615 0.0000
  4   -804.9836982346  -0.030401570569 0.01085897  0.00031528  0.0172251 0.0000
  5   -804.9862506546  -0.002552419991 0.00357996  0.00009290  0.0056506 0.0000
                      *** Initiating the SOSCF procedure ***
                           *** Shutting down DIIS ***
                      *** Re-Reading the Fockian *** 
                      *** Removing any level shift *** 
ITER      Energy       Delta-E        Grad      Rot      Max-DP    RMS-DP
  6   -804.98640093  -0.0001502756  0.000235  0.000235  0.001120  0.000028
               *** Restarting incremental Fock matrix formation ***
  7   -804.98645575  -0.0000548190  0.000121  0.000476  0.000983  0.000019
  8   -804.98645465   0.0000010960  0.000245  0.000362  0.000655  0.000009
  9   -804.98645761  -0.0000029590  0.000040  0.000110  0.000260  0.000004
 10   -804.98645741   0.0000002054  0.000084  0.000075  0.000195  0.000003
 11   -804.98645768  -0.0000002721  0.000005  0.000022  0.000031  0.000001
 12   -804.98645767   0.0000000052  0.000011  0.000018  0.000018  0.000000
 13   -804.98645768  -0.0000000088  0.000003  0.000007  0.000008  0.000000
 14   -804.98645768   0.0000000071  0.000003  0.000004  0.000006  0.000000
                  ***Gradient check signals convergence***
              ***Rediagonalizing the Fockian in SOSCF/NRSCF***

               *****************************************************
               *                     SUCCESS                       *
               *           SCF CONVERGED AFTER  15 CYCLES          *
               *****************************************************

Old exchange energy                            =    -21.897865237 Eh
New exchange energy                            =    -21.897886015 Eh
Exchange energy change after final integration =     -0.000020777 Eh
Total energy after final integration           =   -804.986478460 Eh
Final COS-X integration done in                =    15.418 sec

----------------
TOTAL SCF ENERGY
----------------

Total Energy       :         -804.98647846 Eh          -21904.79570 eV

Components:
Nuclear Repulsion  :         1403.64686529 Eh           38195.17301 eV
Electronic Energy  :        -2208.63334375 Eh          -60099.96871 eV
One Electron Energy:        -3881.40060414 Eh         -105618.27997 eV
Two Electron Energy:         1672.76726040 Eh           45518.31126 eV
Max COSX asymmetry :            0.00000450 Eh               0.00012 eV

Virial components:
Potential Energy   :        -1605.27130640 Eh          -43681.65298 eV
Kinetic Energy     :          800.28482794 Eh           21776.85728 eV
Virial Ratio       :            2.00587497


DFT components:
N(Alpha)           :       67.000065397922 electrons
N(Beta)            :       67.000065397922 electrons
N(Total)           :      134.000130795844 electrons
E(X)               :      -86.935570206199 Eh       
E(C)               :       -5.317567248903 Eh       
E(XC)              :      -92.253137455103 Eh       
DFET-embed. en.    :        0.000000000000 Eh       

---------------
SCF CONVERGENCE
---------------

  Last Energy change         ...   -7.5488e-09  Tolerance :   1.0000e-08
  Last MAX-Density change    ...    3.5527e-15  Tolerance :   1.0000e-07
  Last RMS-Density change    ...    3.9958e-17  Tolerance :   5.0000e-09
  Last Orbital Gradient      ...    4.2274e-07  Tolerance :   1.0000e-05
  Last Orbital Rotation      ...    1.3534e-06  Tolerance :   1.0000e-05

             **** THE GBW FILE WAS UPDATED (Nfes_gas.gbw) ****
             **** DENSITY Nfes_gas.scfp WAS UPDATED ****
             **** ENERGY FILE WAS UPDATED (Nfes_gas.en.tmp) ****
             **** THE GBW FILE WAS UPDATED (Nfes_gas.gbw) ****
             **** DENSITY Nfes_gas.scfp WAS UPDATED ****
----------------
ORBITAL ENERGIES
----------------

  NO   OCC          E(Eh)            E(eV) 
   0   2.0000     -19.104450      -519.8585 
   1   2.0000     -19.102452      -519.8042 
   2   2.0000     -14.362513      -390.8238 
   3   2.0000     -14.359387      -390.7388 
   4   2.0000     -10.282248      -279.7942 
   5   2.0000     -10.280048      -279.7343 
   6   2.0000     -10.227493      -278.3042 
   7   2.0000     -10.227129      -278.2943 
   8   2.0000     -10.209156      -277.8053 
   9   2.0000     -10.204229      -277.6712 
  10   2.0000     -10.189314      -277.2653 
  11   2.0000     -10.186033      -277.1760 
  12   2.0000     -10.185335      -277.1571 
  13   2.0000     -10.184025      -277.1214 
  14   2.0000     -10.182774      -277.0874 
  15   2.0000     -10.175509      -276.8897 
  16   2.0000     -10.170845      -276.7628 
  17   2.0000     -10.162814      -276.5442 
  18   2.0000      -1.028679       -27.9918 
  19   2.0000      -1.020854       -27.7788 
  20   2.0000      -0.937547       -25.5119 
  21   2.0000      -0.928852       -25.2754 
  22   2.0000      -0.853791       -23.2328 
  23   2.0000      -0.790565       -21.5124 
  24   2.0000      -0.745721       -20.2921 
  25   2.0000      -0.742421       -20.2023 
  26   2.0000      -0.733162       -19.9504 
  27   2.0000      -0.719874       -19.5888 
  28   2.0000      -0.712675       -19.3929 
  29   2.0000      -0.682276       -18.5657 
  30   2.0000      -0.644123       -17.5275 
  31   2.0000      -0.604138       -16.4394 
  32   2.0000      -0.592422       -16.1206 
  33   2.0000      -0.551758       -15.0141 
  34   2.0000      -0.536787       -14.6067 
  35   2.0000      -0.513647       -13.9771 
  36   2.0000      -0.502827       -13.6826 
  37   2.0000      -0.491527       -13.3751 
  38   2.0000      -0.483106       -13.1460 
  39   2.0000      -0.468061       -12.7366 
  40   2.0000      -0.464759       -12.6467 
  41   2.0000      -0.450231       -12.2514 
  42   2.0000      -0.448884       -12.2148 
  43   2.0000      -0.443292       -12.0626 
  44   2.0000      -0.424071       -11.5396 
  45   2.0000      -0.418503       -11.3881 
  46   2.0000      -0.414433       -11.2773 
  47   2.0000      -0.407359       -11.0848 
  48   2.0000      -0.406341       -11.0571 
  49   2.0000      -0.402669       -10.9572 
  50   2.0000      -0.399347       -10.8668 
  51   2.0000      -0.395694       -10.7674 
  52   2.0000      -0.385619       -10.4932 
  53   2.0000      -0.381968       -10.3939 
  54   2.0000      -0.374973       -10.2035 
  55   2.0000      -0.359697        -9.7879 
  56   2.0000      -0.353467        -9.6183 
  57   2.0000      -0.352764        -9.5992 
  58   2.0000      -0.347404        -9.4534 
  59   2.0000      -0.336800        -9.1648 
  60   2.0000      -0.331517        -9.0210 
  61   2.0000      -0.254295        -6.9197 
  62   2.0000      -0.250901        -6.8274 
  63   2.0000      -0.244783        -6.6609 
  64   2.0000      -0.240599        -6.5470 
  65   2.0000      -0.238653        -6.4941 
  66   2.0000      -0.234281        -6.3751 
  67   0.0000      -0.005896        -0.1604 
  68   0.0000      -0.001789        -0.0487 
  69   0.0000       0.015537         0.4228 
  70   0.0000       0.022064         0.6004 
  71   0.0000       0.077367         2.1053 
  72   0.0000       0.086450         2.3524 
  73   0.0000       0.104549         2.8449 
  74   0.0000       0.121024         3.2932 
  75   0.0000       0.124046         3.3755 
  76   0.0000       0.138748         3.7755 
  77   0.0000       0.139773         3.8034 
  78   0.0000       0.147772         4.0211 
  79   0.0000       0.152440         4.1481 
  80   0.0000       0.157368         4.2822 
  81   0.0000       0.161025         4.3817 
  82   0.0000       0.164380         4.4730 
  83   0.0000       0.165561         4.5051 
  84   0.0000       0.168398         4.5823 
  85   0.0000       0.173108         4.7105 
  86   0.0000       0.179214         4.8767 
  87   0.0000       0.182393         4.9632 
  88   0.0000       0.187003         5.0886 
  89   0.0000       0.192533         5.2391 
  90   0.0000       0.193924         5.2769 
  91   0.0000       0.203174         5.5287 
  92   0.0000       0.210481         5.7275 
  93   0.0000       0.219062         5.9610 
  94   0.0000       0.222645         6.0585 
  95   0.0000       0.244996         6.6667 
  96   0.0000       0.247461         6.7338 
  97   0.0000       0.258811         7.0426 
  98   0.0000       0.274655         7.4737 
  99   0.0000       0.291805         7.9404 
 100   0.0000       0.306780         8.3479 
 101   0.0000       0.327638         8.9155 
 102   0.0000       0.332117         9.0374 
 103   0.0000       0.345080         9.3901 
 104   0.0000       0.349584         9.5127 
 105   0.0000       0.372168        10.1272 
 106   0.0000       0.390117        10.6156 
 107   0.0000       0.412770        11.2320 
 108   0.0000       0.456640        12.4258 
 109   0.0000       0.476813        12.9747 
 110   0.0000       0.482872        13.1396 
 111   0.0000       0.497680        13.5426 
 112   0.0000       0.508344        13.8327 
 113   0.0000       0.525461        14.2985 
 114   0.0000       0.531166        14.4538 
 115   0.0000       0.535620        14.5750 
 116   0.0000       0.548827        14.9343 
 117   0.0000       0.553159        15.0522 
 118   0.0000       0.557478        15.1697 
 119   0.0000       0.561727        15.2854 
 120   0.0000       0.576921        15.6988 
 121   0.0000       0.585038        15.9197 
 122   0.0000       0.592943        16.1348 
 123   0.0000       0.597531        16.2596 
 124   0.0000       0.607847        16.5404 
 125   0.0000       0.612616        16.6701 
 126   0.0000       0.617910        16.8142 
 127   0.0000       0.626443        17.0464 
 128   0.0000       0.631656        17.1882 
 129   0.0000       0.632441        17.2096 
 130   0.0000       0.647258        17.6128 
 131   0.0000       0.655558        17.8386 
 132   0.0000       0.657442        17.8899 
 133   0.0000       0.668562        18.1925 
 134   0.0000       0.681538        18.5456 
 135   0.0000       0.695773        18.9329 
 136   0.0000       0.707086        19.2408 
 137   0.0000       0.715474        19.4690 
 138   0.0000       0.739993        20.1362 
 139   0.0000       0.744244        20.2519 
 140   0.0000       0.754770        20.5383 
 141   0.0000       0.773503        21.0481 
 142   0.0000       0.790387        21.5075 
 143   0.0000       0.810690        22.0600 
 144   0.0000       0.815631        22.1944 
 145   0.0000       0.822341        22.3770 
 146   0.0000       0.832145        22.6438 
 147   0.0000       0.835107        22.7244 
 148   0.0000       0.837700        22.7950 
 149   0.0000       0.841849        22.9079 
 150   0.0000       0.845320        23.0023 
 151   0.0000       0.852077        23.1862 
 152   0.0000       0.873530        23.7700 
 153   0.0000       0.874588        23.7987 
 154   0.0000       0.882461        24.0130 
 155   0.0000       0.891028        24.2461 
 156   0.0000       0.894013        24.3273 
 157   0.0000       0.904193        24.6043 
 158   0.0000       0.912933        24.8422 
 159   0.0000       0.919871        25.0310 
 160   0.0000       0.927491        25.2383 
 161   0.0000       0.928771        25.2732 
 162   0.0000       0.935346        25.4520 
 163   0.0000       0.944377        25.6978 
 164   0.0000       0.962424        26.1889 
 165   0.0000       0.966820        26.3085 
 166   0.0000       0.971271        26.4296 
 167   0.0000       0.978232        26.6191 
 168   0.0000       0.984044        26.7772 
 169   0.0000       0.989359        26.9218 
 170   0.0000       1.000203        27.2169 
 171   0.0000       1.009738        27.4764 
 172   0.0000       1.021781        27.8041 
 173   0.0000       1.034801        28.1584 
 174   0.0000       1.068753        29.0823 
 175   0.0000       1.084088        29.4995 
 176   0.0000       1.097431        29.8626 
 177   0.0000       1.108583        30.1661 
 178   0.0000       1.111829        30.2544 
 179   0.0000       1.129708        30.7409 
 180   0.0000       1.147347        31.2209 
 181   0.0000       1.159256        31.5450 
 182   0.0000       1.177043        32.0290 
 183   0.0000       1.184581        32.2341 
 184   0.0000       1.206870        32.8406 
 185   0.0000       1.237426        33.6721 
 186   0.0000       1.251808        34.0634 
 187   0.0000       1.260613        34.3030 
 188   0.0000       1.280233        34.8369 
 189   0.0000       1.298260        35.3274 
 190   0.0000       1.340169        36.4678 
 191   0.0000       1.355847        36.8945 
 192   0.0000       1.370646        37.2972 
 193   0.0000       1.382751        37.6266 
 194   0.0000       1.404443        38.2168 
 195   0.0000       1.430431        38.9240 
 196   0.0000       1.436170        39.0802 
 197   0.0000       1.439565        39.1725 
 198   0.0000       1.453587        39.5541 
 199   0.0000       1.464673        39.8558 
 200   0.0000       1.482011        40.3276 
 201   0.0000       1.489810        40.5398 
 202   0.0000       1.501627        40.8614 
 203   0.0000       1.515833        41.2479 
 204   0.0000       1.538542        41.8658 
 205   0.0000       1.556276        42.3484 
 206   0.0000       1.596715        43.4488 
 207   0.0000       1.617472        44.0136 
 208   0.0000       1.625173        44.2232 
 209   0.0000       1.669381        45.4262 
 210   0.0000       1.693973        46.0954 
 211   0.0000       1.734226        47.1907 
 212   0.0000       1.756563        47.7985 
 213   0.0000       1.774072        48.2749 
 214   0.0000       1.780927        48.4615 
 215   0.0000       1.793380        48.8003 
 216   0.0000       1.815525        49.4029 
 217   0.0000       1.826497        49.7015 
 218   0.0000       1.834951        49.9316 
 219   0.0000       1.852245        50.4021 
 220   0.0000       1.860005        50.6133 
 221   0.0000       1.874794        51.0157 
 222   0.0000       1.880682        51.1760 
 223   0.0000       1.900352        51.7112 
 224   0.0000       1.906848        51.8880 
 225   0.0000       1.921674        52.2914 
 226   0.0000       1.931814        52.5673 
 227   0.0000       1.936572        52.6968 
 228   0.0000       1.955443        53.2103 
 229   0.0000       1.972130        53.6644 
 230   0.0000       1.984064        53.9891 
 231   0.0000       1.991728        54.1977 
 232   0.0000       2.002564        54.4925 
 233   0.0000       2.012831        54.7719 
 234   0.0000       2.022173        55.0261 
 235   0.0000       2.044410        55.6312 
 236   0.0000       2.050056        55.7849 
 237   0.0000       2.066613        56.2354 
 238   0.0000       2.073895        56.4336 
 239   0.0000       2.089203        56.8501 
 240   0.0000       2.099822        57.1390 
 241   0.0000       2.111975        57.4698 
 242   0.0000       2.127591        57.8947 
 243   0.0000       2.133247        58.0486 
 244   0.0000       2.148720        58.4697 
 245   0.0000       2.154960        58.6395 
 246   0.0000       2.173401        59.1412 
 247   0.0000       2.210302        60.1454 
 248   0.0000       2.223284        60.4986 
 249   0.0000       2.235830        60.8400 
 250   0.0000       2.243570        61.0507 
 251   0.0000       2.249475        61.2113 
 252   0.0000       2.271490        61.8104 
 253   0.0000       2.296540        62.4920 
 254   0.0000       2.306406        62.7605 
 255   0.0000       2.308294        62.8119 
 256   0.0000       2.317883        63.0728 
 257   0.0000       2.324454        63.2516 
 258   0.0000       2.333035        63.4851 
 259   0.0000       2.371592        64.5343 
 260   0.0000       2.381712        64.8097 
 261   0.0000       2.399600        65.2964 
 262   0.0000       2.415909        65.7402 
 263   0.0000       2.440391        66.4064 
 264   0.0000       2.483213        67.5717 
 265   0.0000       2.507656        68.2368 
 266   0.0000       2.515163        68.4411 
 267   0.0000       2.540132        69.1205 
 268   0.0000       2.561264        69.6956 
 269   0.0000       2.583550        70.3020 
 270   0.0000       2.594743        70.6065 
 271   0.0000       2.605556        70.9008 
 272   0.0000       2.626896        71.4815 
 273   0.0000       2.640715        71.8575 
 274   0.0000       2.652330        72.1736 
 275   0.0000       2.667121        72.5760 
 276   0.0000       2.726089        74.1806 
 277   0.0000       2.731067        74.3161 
 278   0.0000       2.745329        74.7042 
 279   0.0000       2.752345        74.8951 
 280   0.0000       2.769702        75.3674 
 281   0.0000       2.783705        75.7485 
 282   0.0000       2.796743        76.1033 
 283   0.0000       2.897627        78.8484 
 284   0.0000       2.923305        79.5472 
 285   0.0000       2.983688        81.1903 
 286   0.0000       3.027560        82.3841 
 287   0.0000       3.032718        82.5244 
 288   0.0000       3.074337        83.6570 
 289   0.0000       3.177085        86.4529 
 290   0.0000       3.185107        86.6712 
 291   0.0000       3.411421        92.8295 

                    ********************************
                    * MULLIKEN POPULATION ANALYSIS *
                    ********************************

-----------------------
MULLIKEN ATOMIC CHARGES
-----------------------
   0 C :   -0.553464
   1 H :    0.185179
   2 H :    0.183836
   3 H :    0.184328
   4 C :    0.529900
   5 N :   -0.384707
   6 C :   -0.067154
   7 H :    0.138937
   8 C :    0.160663
   9 C :   -0.182137
  10 C :   -0.198760
  11 C :   -0.136014
  12 H :    0.181424
  13 C :   -0.125740
  14 H :    0.121611
  15 C :   -0.126568
  16 H :    0.132091
  17 H :    0.129047
  18 H :    0.129011
  19 C :   -0.251911
  20 H :    0.183382
  21 H :    0.175608
  22 C :    0.517240
  23 N :   -0.364915
  24 O :   -0.487521
  25 O :   -0.484691
  26 C :   -0.325406
  27 H :    0.171479
  28 H :    0.156347
  29 H :    0.184863
  30 C :   -0.325967
  31 H :    0.156138
  32 H :    0.153625
  33 H :    0.204312
  34 C :   -0.451718
  35 H :    0.145263
  36 H :    0.143801
  37 H :    0.198586
Sum of atomic charges:    0.0000000

--------------------------------
MULLIKEN REDUCED ORBITAL CHARGES
--------------------------------
  0 C s       :     3.321755  s :     3.321755
      pz      :     1.107274  p :     3.199614
      px      :     0.984244
      py      :     1.108095
      dz2     :     0.004745  d :     0.032095
      dxz     :     0.006771
      dyz     :     0.007994
      dx2y2   :     0.009075
      dxy     :     0.003511
  1 H s       :     0.814821  s :     0.814821
  2 H s       :     0.816164  s :     0.816164
  3 H s       :     0.815672  s :     0.815672
  4 C s       :     2.989541  s :     2.989541
      pz      :     0.762100  p :     2.372266
      px      :     0.826268
      py      :     0.783898
      dz2     :     0.034407  d :     0.108293
      dxz     :     0.023942
      dyz     :     0.018965
      dx2y2   :     0.018130
      dxy     :     0.012849
  5 N s       :     3.539656  s :     3.539656
      pz      :     1.188533  p :     3.810016
      px      :     1.138599
      py      :     1.482884
      dz2     :     0.007489  d :     0.035035
      dxz     :     0.009805
      dyz     :     0.005979
      dx2y2   :     0.005614
      dxy     :     0.006149
  6 C s       :     3.206288  s :     3.206288
      pz      :     0.999786  p :     2.801435
      px      :     0.803572
      py      :     0.998078
      dz2     :     0.015209  d :     0.059431
      dxz     :     0.007952
      dyz     :     0.005702
      dx2y2   :     0.015880
      dxy     :     0.014687
  7 H s       :     0.861063  s :     0.861063
  8 C s       :     3.136569  s :     3.136569
      pz      :     0.858654  p :     2.662675
      px      :     0.894585
      py      :     0.909436
      dz2     :     0.010352  d :     0.040093
      dxz     :     0.009351
      dyz     :     0.009677
      dx2y2   :     0.005017
      dxy     :     0.005696
  9 C s       :     3.208881  s :     3.208881
      pz      :     0.998607  p :     2.937467
      px      :     0.963371
      py      :     0.975489
      dz2     :     0.008440  d :     0.035788
      dxz     :     0.008285
      dyz     :     0.009870
      dx2y2   :     0.004068
      dxy     :     0.005125
 10 C s       :     3.199511  s :     3.199511
      pz      :     0.974458  p :     2.962941
      px      :     1.001218
      py      :     0.987265
      dz2     :     0.011669  d :     0.036307
      dxz     :     0.006366
      dyz     :     0.006705
      dx2y2   :     0.006224
      dxy     :     0.005344
 11 C s       :     3.195221  s :     3.195221
      pz      :     0.979813  p :     2.904533
      px      :     0.969045
      py      :     0.955674
      dz2     :     0.011647  d :     0.036260
      dxz     :     0.006458
      dyz     :     0.006833
      dx2y2   :     0.005979
      dxy     :     0.005342
 12 H s       :     0.818576  s :     0.818576
 13 C s       :     3.187497  s :     3.187497
      pz      :     0.950947  p :     2.902102
      px      :     0.975187
      py      :     0.975968
      dz2     :     0.008215  d :     0.036142
[...]
    107       0.000023  -0.009263   0.095257  -0.000772   0.001180  -0.000802
    108       0.000286  -0.012707   0.135688   0.000172   0.003371  -0.003898
    109      -0.000273   0.011890  -0.124177  -0.000443  -0.003441   0.003316
    110       0.000138  -0.005117   0.055040   0.000173   0.001593  -0.001897
    111       0.000142  -0.014876   0.158544  -0.000370   0.002134  -0.003723
    112       0.000184  -0.017916   0.191805  -0.000389   0.002972  -0.005696
    113       0.000923  -0.085309   0.915725  -0.001643   0.013126  -0.026896


-----------
IR SPECTRUM
-----------

 Mode   freq       eps      Int      T**2         TX        TY        TZ
       cm**-1   L/(mol*cm) km/mol    a.u.
----------------------------------------------------------------------------
  6:     29.56   0.000293    1.48  0.003092  (-0.012305 -0.030020 -0.045156)
  7:     45.82   0.000057    0.29  0.000391  (-0.014759  0.011164  0.006989)
  8:     50.95   0.000124    0.63  0.000759  ( 0.013158 -0.007120 -0.023136)
  9:     71.70   0.000425    2.15  0.001849  ( 0.014889  0.037414 -0.015069)
 10:     88.05   0.000173    0.88  0.000614  (-0.017096 -0.005604  0.017053)
 11:     97.28   0.000699    3.53  0.002242  ( 0.003084  0.047242 -0.000914)
 12:    104.84   0.000249    1.26  0.000741  ( 0.002490  0.022485  0.015125)
 13:    130.13   0.000506    2.56  0.001214  (-0.021377  0.025244 -0.010958)
 14:    155.86   0.000675    3.41  0.001352  (-0.011058  0.035061  0.000163)
 15:    169.79   0.000086    0.43  0.000157  ( 0.010996  0.001098 -0.005941)
 16:    181.43   0.000089    0.45  0.000153  ( 0.006412  0.006751 -0.008143)
 17:    195.86   0.000567    2.86  0.000903  (-0.021285  0.018522  0.010318)
 18:    214.00   0.000020    0.10  0.000030  (-0.004121 -0.001522  0.003199)
 19:    228.53   0.000694    3.51  0.000948  (-0.013532  0.013531  0.024123)
 20:    237.96   0.000911    4.61  0.001195  (-0.005610 -0.031945 -0.011962)
 21:    249.73   0.000113    0.57  0.000141  ( 0.008023  0.007109 -0.005104)
 22:    285.32   0.000465    2.35  0.000509  (-0.011093 -0.004318  0.019165)
 23:    297.54   0.000314    1.59  0.000330  (-0.003123  0.012639 -0.012653)
 24:    326.57   0.000118    0.60  0.000113  ( 0.001064  0.005597  0.008971)
 25:    333.48   0.000334    1.69  0.000312  ( 0.008715 -0.013921  0.006508)
 26:    404.64   0.000955    4.82  0.000736  (-0.007863 -0.019227  0.017455)
 27:    420.06   0.000071    0.36  0.000053  ( 0.007079 -0.001137  0.001180)
 28:    431.86   0.001251    6.32  0.000904  (-0.005517 -0.028951  0.005938)
 29:    450.49   0.001201    6.07  0.000832  (-0.021743 -0.010878  0.015528)
 30:    505.47   0.001738    8.78  0.001073  (-0.025829  0.012235  0.016009)
 31:    558.22   0.002565   12.96  0.001434  ( 0.022577  0.015670 -0.026052)
 32:    579.79   0.004211   21.28  0.002266  (-0.029612 -0.032022 -0.019081)
 33:    587.33   0.000764    3.86  0.000406  ( 0.019232 -0.005933  0.001009)
 34:    610.42   0.001456    7.36  0.000745  (-0.006051  0.024480 -0.010424)
 35:    634.69   0.000250    1.26  0.000123  ( 0.006483 -0.008936  0.000890)
 36:    649.85   0.002767   13.98  0.001329  ( 0.013618 -0.033814  0.000260)
 37:    701.79   0.000311    1.57  0.000138  ( 0.006080  0.003344  0.009493)
 38:    722.74   0.008057   40.72  0.003479  ( 0.045928  0.036745 -0.004418)
 39:    746.09   0.000573    2.89  0.000239  (-0.005404  0.014380 -0.001865)
 40:    774.83   0.003147   15.90  0.001267  ( 0.009765 -0.033859  0.005056)
 41:    788.02   0.002583   13.05  0.001023  ( 0.030867  0.008360 -0.000310)
 42:    811.54   0.000266    1.34  0.000102  ( 0.010099  0.000337  0.000449)
 43:    871.94   0.000068    0.34  0.000024  ( 0.003157  0.002441  0.002908)
 44:    922.60   0.000115    0.58  0.000039  (-0.005855 -0.002128  0.000370)
 45:    937.04   0.001040    5.26  0.000347  ( 0.016863  0.007880  0.000224)
 46:    981.69   0.000146    0.74  0.000046  (-0.006170 -0.002150 -0.001946)
 47:   1001.50   0.002756   13.93  0.000859  (-0.016250  0.024251  0.002575)
 48:   1008.12   0.005512   27.86  0.001706  ( 0.005927  0.020648 -0.035282)
 49:   1013.92   0.001029    5.20  0.000317  ( 0.012768  0.009708  0.007718)
 50:   1016.86   0.000442    2.24  0.000136  ( 0.003650  0.010880 -0.002017)
 51:   1025.75   0.001647    8.33  0.000501  (-0.004265  0.021546 -0.004332)
 52:   1056.80   0.001478    7.47  0.000436  (-0.018435 -0.007671 -0.006146)
 53:   1062.81   0.001172    5.92  0.000344  (-0.005382  0.017070 -0.004876)
 54:   1069.55   0.000535    2.70  0.000156  ( 0.002099 -0.000828  0.012290)
 55:   1091.22   0.000650    3.29  0.000186  (-0.013395 -0.001772  0.001829)
 56:   1096.37   0.000390    1.97  0.000111  ( 0.003575 -0.005570  0.008201)
 57:   1124.08   0.001119    5.65  0.000311  ( 0.006148 -0.009233 -0.013696)
 58:   1138.14   0.000397    2.01  0.000109  (-0.009110  0.001244 -0.004928)
 59:   1145.74   0.006279   31.73  0.001710  (-0.039053 -0.012576 -0.005194)
 60:   1179.68   0.001731    8.75  0.000458  (-0.015582  0.013965 -0.004471)
 61:   1192.95   0.000161    0.81  0.000042  (-0.005456  0.002181 -0.002754)
 62:   1195.76   0.009318   47.09  0.002432  ( 0.015836 -0.037553  0.027762)
 63:   1208.02   0.010365   52.38  0.002677  (-0.049990 -0.006850  0.011469)
 64:   1218.16   0.000099    0.50  0.000025  (-0.003165  0.003796 -0.000934)
 65:   1242.12   0.000995    5.03  0.000250  ( 0.003178 -0.003135  0.015166)
 66:   1292.28   0.004849   24.50  0.001171  ( 0.010351 -0.032307 -0.004476)
 67:   1299.58   0.008783   44.38  0.002109  ( 0.037450  0.023721 -0.011990)
 68:   1326.66   0.009561   48.32  0.002249  (-0.031273  0.025696  0.024714)
 69:   1337.66   0.021195  107.11  0.004944  (-0.019735  0.024158  0.063019)
 70:   1369.12   0.000883    4.46  0.000201  (-0.010923  0.008152 -0.003937)
 71:   1383.70   0.004008   20.26  0.000904  (-0.027349  0.006140  0.010876)
 72:   1400.97   0.004593   23.21  0.001023  (-0.025647  0.013859  0.013159)
 73:   1423.82   0.004327   21.87  0.000948  (-0.022201  0.006221  0.020417)
 74:   1432.96   0.003175   16.04  0.000691  (-0.022608 -0.011755  0.006490)
 75:   1445.36   0.012953   65.46  0.002797  ( 0.012569 -0.044206  0.026162)
 76:   1456.69   0.008170   41.29  0.001750  (-0.016796 -0.029489  0.024463)
 77:   1481.36   0.008351   42.20  0.001759  ( 0.003928 -0.028001 -0.030981)
 78:   1494.88   0.002628   13.28  0.000549  (-0.012936  0.014062  0.013550)
 79:   1502.80   0.000566    2.86  0.000118  ( 0.008609  0.005984 -0.002768)
 80:   1507.01   0.001061    5.36  0.000220  (-0.003387 -0.010235 -0.010172)
 81:   1512.45   0.002497   12.62  0.000515  (-0.012491 -0.015573 -0.010805)
 82:   1514.78   0.003163   15.99  0.000652  ( 0.010084  0.019263 -0.013378)
 83:   1521.78   0.002299   11.62  0.000471  ( 0.019454 -0.009336  0.002422)
 84:   1523.95   0.001191    6.02  0.000244  (-0.013647  0.007267 -0.002221)
 85:   1530.51   0.004705   23.78  0.000959  ( 0.006784 -0.016706 -0.025184)
 86:   1534.47   0.000787    3.98  0.000160  ( 0.004819  0.010744  0.004618)
 87:   1536.43   0.005938   30.01  0.001206  ( 0.026674  0.004479 -0.021781)
 88:   1545.33   0.003543   17.91  0.000716  (-0.023154  0.013212 -0.002198)
 89:   1561.87   0.007195   36.36  0.001438  (-0.007476 -0.028619  0.023719)
 90:   1643.67   0.000545    2.75  0.000103  (-0.005691 -0.002763 -0.007960)
 91:   1664.91   0.000488    2.47  0.000091  (-0.008571  0.004118 -0.001034)
 92:   1747.43   0.041805  211.27  0.007466  ( 0.043438  0.042009  0.061759)
 93:   1758.93   0.058426  295.26  0.010366  ( 0.082277 -0.036878  0.047288)
 94:   3031.82   0.008477   42.84  0.000873  (-0.014800 -0.021150  0.014360)
 95:   3045.19   0.007307   36.92  0.000749  (-0.014131  0.014849 -0.018127)
 96:   3049.50   0.000190    0.96  0.000019  ( 0.001353 -0.002081  0.003642)
 97:   3057.87   0.003850   19.46  0.000393  ( 0.008543  0.016668  0.006487)
 98:   3064.33   0.008646   43.69  0.000881  ( 0.004937 -0.012558  0.026428)
 99:   3072.02   0.000720    3.64  0.000073  ( 0.007333  0.000637 -0.004349)
100:   3080.63   0.007458   37.69  0.000756  ( 0.000707  0.020401  0.018407)
101:   3096.75   0.003276   16.56  0.000330  ( 0.007173 -0.016671 -0.000894)
102:   3097.52   0.003080   15.57  0.000310  (-0.006838 -0.015703 -0.004122)
103:   3119.20   0.006164   31.15  0.000617  ( 0.023360 -0.008092 -0.002352)
104:   3140.86   0.001569    7.93  0.000156  (-0.004022  0.011382 -0.003184)
105:   3167.41   0.002129   10.76  0.000210  (-0.006222  0.004806 -0.012162)
106:   3170.50   0.001088    5.50  0.000107  (-0.002296 -0.005244 -0.008620)
107:   3183.16   0.000253    1.28  0.000025  (-0.003011  0.003934 -0.000503)
108:   3191.47   0.000222    1.12  0.000022  (-0.004391 -0.001253  0.000921)
109:   3193.97   0.006173   31.20  0.000603  ( 0.000139  0.003708  0.024276)
110:   3194.89   0.000430    2.17  0.000042  (-0.001599  0.001767 -0.006029)
111:   3205.00   0.000775    3.92  0.000076  (-0.000226  0.002401 -0.008348)
112:   3207.28   0.005038   25.46  0.000490  ( 0.016203 -0.015021  0.001434)
113:   3232.22   0.001723    8.71  0.000166  ( 0.011314 -0.006024  0.001436)

* The epsilon (eps) is given for a Dirac delta lineshape.
** The dipole moment derivative (T) already includes vibrational overlap.

The first frequency considered to be a vibration is 6
The total number of vibrations considered is 108


--------------------------
THERMOCHEMISTRY AT 298.15K
--------------------------

Temperature         ... 298.15 K
Pressure            ... 1.00 atm
Total Mass          ... 248.33 AMU

Throughout the following assumptions are being made:
  (1) The electronic state is orbitally nondegenerate
  (2) There are no thermally accessible electronically excited states
  (3) Hindered rotations indicated by low frequency modes are not
      treated as such but are treated as vibrations and this may
      cause some error
  (4) All equations used are the standard statistical mechanics
      equations for an ideal gas
  (5) All vibrations are strictly harmonic

freq.      29.56  E(vib)   ...       0.55 
freq.      45.82  E(vib)   ...       0.53 
freq.      50.95  E(vib)   ...       0.52 
freq.      71.70  E(vib)   ...       0.50 
freq.      88.05  E(vib)   ...       0.48 
freq.      97.28  E(vib)   ...       0.46 
freq.     104.84  E(vib)   ...       0.46 
freq.     130.13  E(vib)   ...       0.43 
freq.     155.86  E(vib)   ...       0.40 
freq.     169.79  E(vib)   ...       0.38 
freq.     181.43  E(vib)   ...       0.37 
freq.     195.86  E(vib)   ...       0.36 
freq.     214.00  E(vib)   ...       0.34 
freq.     228.53  E(vib)   ...       0.32 
freq.     237.96  E(vib)   ...       0.32 
freq.     249.73  E(vib)   ...       0.31 
freq.     285.32  E(vib)   ...       0.28 
freq.     297.54  E(vib)   ...       0.27 
freq.     326.57  E(vib)   ...       0.24 
freq.     333.48  E(vib)   ...       0.24 
freq.     404.64  E(vib)   ...       0.19 
freq.     420.06  E(vib)   ...       0.18 
freq.     431.86  E(vib)   ...       0.18 
freq.     450.49  E(vib)   ...       0.17 
freq.     505.47  E(vib)   ...       0.14 
freq.     558.22  E(vib)   ...       0.12 
freq.     579.79  E(vib)   ...       0.11 
freq.     587.33  E(vib)   ...       0.10 
freq.     610.42  E(vib)   ...       0.10 
freq.     634.69  E(vib)   ...       0.09 
freq.     649.85  E(vib)   ...       0.08 
freq.     701.79  E(vib)   ...       0.07 
freq.     722.74  E(vib)   ...       0.07 
freq.     746.09  E(vib)   ...       0.06 
freq.     774.83  E(vib)   ...       0.05 
freq.     788.02  E(vib)   ...       0.05 
freq.     811.54  E(vib)   ...       0.05 
freq.     871.94  E(vib)   ...       0.04 
freq.     922.60  E(vib)   ...       0.03 
freq.     937.04  E(vib)   ...       0.03 
freq.     981.69  E(vib)   ...       0.02 
freq.    1001.50  E(vib)   ...       0.02 
freq.    1008.12  E(vib)   ...       0.02 
freq.    1013.92  E(vib)   ...       0.02 
freq.    1016.86  E(vib)   ...       0.02 
freq.    1025.75  E(vib)   ...       0.02 
freq.    1056.80  E(vib)   ...       0.02 
freq.    1062.81  E(vib)   ...       0.02 
freq.    1069.55  E(vib)   ...       0.02 
freq.    1091.22  E(vib)   ...       0.02 
freq.    1096.37  E(vib)   ...       0.02 
freq.    1124.08  E(vib)   ...       0.01 
freq.    1138.14  E(vib)   ...       0.01 
freq.    1145.74  E(vib)   ...       0.01 
freq.    1179.68  E(vib)   ...       0.01 
freq.    1192.95  E(vib)   ...       0.01 
freq.    1195.76  E(vib)   ...       0.01 
freq.    1208.02  E(vib)   ...       0.01 
freq.    1218.16  E(vib)   ...       0.01 
freq.    1242.12  E(vib)   ...       0.01 
freq.    1292.28  E(vib)   ...       0.01 
freq.    1299.58  E(vib)   ...       0.01 
freq.    1326.66  E(vib)   ...       0.01 
freq.    1337.66  E(vib)   ...       0.01 
freq.    1369.12  E(vib)   ...       0.01 
freq.    1383.70  E(vib)   ...       0.00 
freq.    1400.97  E(vib)   ...       0.00 
freq.    1423.82  E(vib)   ...       0.00 
freq.    1432.96  E(vib)   ...       0.00 
freq.    1445.36  E(vib)   ...       0.00 
freq.    1456.69  E(vib)   ...       0.00 
freq.    1481.36  E(vib)   ...       0.00 
freq.    1494.88  E(vib)   ...       0.00 
freq.    1502.80  E(vib)   ...       0.00 
freq.    1507.01  E(vib)   ...       0.00 
freq.    1512.45  E(vib)   ...       0.00 
freq.    1514.78  E(vib)   ...       0.00 
freq.    1521.78  E(vib)   ...       0.00 
freq.    1523.95  E(vib)   ...       0.00 
freq.    1530.51  E(vib)   ...       0.00 
freq.    1534.47  E(vib)   ...       0.00 
freq.    1536.43  E(vib)   ...       0.00 
freq.    1545.33  E(vib)   ...       0.00 
freq.    1561.87  E(vib)   ...       0.00 
freq.    1643.67  E(vib)   ...       0.00 
freq.    1664.91  E(vib)   ...       0.00 
freq.    1747.43  E(vib)   ...       0.00 
freq.    1758.93  E(vib)   ...       0.00 
freq.    3031.82  E(vib)   ...       0.00 
freq.    3045.19  E(vib)   ...       0.00 
freq.    3049.50  E(vib)   ...       0.00 
freq.    3057.87  E(vib)   ...       0.00 
freq.    3064.33  E(vib)   ...       0.00 
freq.    3072.02  E(vib)   ...       0.00 
freq.    3080.63  E(vib)   ...       0.00 
freq.    3096.75  E(vib)   ...       0.00 
freq.    3097.52  E(vib)   ...       0.00 
freq.    3119.20  E(vib)   ...       0.00 
freq.    3140.86  E(vib)   ...       0.00 
freq.    3167.41  E(vib)   ...       0.00 
freq.    3170.50  E(vib)   ...       0.00 
freq.    3183.16  E(vib)   ...       0.00 
freq.    3191.47  E(vib)   ...       0.00 
freq.    3193.97  E(vib)   ...       0.00 
freq.    3194.89  E(vib)   ...       0.00 
freq.    3205.00  E(vib)   ...       0.00 
freq.    3207.28  E(vib)   ...       0.00 
freq.    3232.22  E(vib)   ...       0.00 

------------
INNER ENERGY
------------

The inner energy is: U= E(el) + E(ZPE) + E(vib) + E(rot) + E(trans)
    E(el)   - is the total energy from the electronic structure calculation
              = E(kin-el) + E(nuc-el) + E(el-el) + E(nuc-nuc)
    E(ZPE)  - the the zero temperature vibrational energy from the frequency calculation
    E(vib)  - the the finite temperature correction to E(ZPE) due to population
              of excited vibrational states
    E(rot)  - is the rotational thermal energy
    E(trans)- is the translational thermal energy

Summary of contributions to the inner energy U:
Electronic energy                ...   -805.06399852 Eh
Zero point energy                ...      0.32583736 Eh     204.47 kcal/mol
Thermal vibrational correction   ...      0.01602217 Eh      10.05 kcal/mol
Thermal rotational correction    ...      0.00141627 Eh       0.89 kcal/mol
Thermal translational correction ...      0.00141627 Eh       0.89 kcal/mol
-----------------------------------------------------------------------
Total thermal energy                   -804.71930644 Eh


Summary of corrections to the electronic energy:
(perhaps to be used in another calculation)
Total thermal correction                  0.01885472 Eh      11.83 kcal/mol
Non-thermal (ZPE) correction              0.32583736 Eh     204.47 kcal/mol
-----------------------------------------------------------------------
Total correction                          0.34469208 Eh     216.30 kcal/mol


--------
ENTHALPY
--------

The enthalpy is H = U + kB*T
                kB is Boltzmann's constant
Total free energy                 ...   -804.71930644 Eh 
Thermal Enthalpy correction       ...      0.00094421 Eh       0.59 kcal/mol
-----------------------------------------------------------------------
Total Enthalpy                    ...   -804.71836223 Eh


Note: Only C1 symmetry has been detected, increase convergence thresholds 
      if your molecule has a higher symmetry. Symmetry factor of 1.0 is   
      used for the rotational entropy correction. 
 

Note: Rotational entropy computed according to Herzberg 
Infrared and Raman Spectra, Chapter V,1, Van Nostrand Reinhold, 1945 
Point Group:  C1, Symmetry Number:   1  
Rotational constants in cm-1:     0.020271     0.010742     0.008882 

Vibrational entropy computed according to the QRRHO of S. Grimme
Chem.Eur.J. 2012 18 9955


-------
ENTROPY
-------

The entropy contributions are T*S = T*(S(el)+S(vib)+S(rot)+S(trans))
     S(el)   - electronic entropy
     S(vib)  - vibrational entropy
     S(rot)  - rotational entropy
     S(trans)- translational entropy
The entropies will be listed as multiplied by the temperature to get
units of energy

Electronic entropy                ...      0.00000000 Eh      0.00 kcal/mol
Vibrational entropy               ...      0.02848650 Eh     17.88 kcal/mol
Rotational entropy                ...      0.01572157 Eh      9.87 kcal/mol
Translational entropy             ...      0.02015944 Eh     12.65 kcal/mol
-----------------------------------------------------------------------
Final entropy term                ...      0.06436752 Eh     40.39 kcal/mol

In case the symmetry of your molecule has not been determined correctly
or in case you have a reason to use a different symmetry number we print 
out the resulting rotational entropy values for sn=1,12 :
 --------------------------------------------------------
|  sn= 1 | S(rot)=       0.01572157 Eh      9.87 kcal/mol|
|  sn= 2 | S(rot)=       0.01506712 Eh      9.45 kcal/mol|
|  sn= 3 | S(rot)=       0.01468428 Eh      9.21 kcal/mol|
|  sn= 4 | S(rot)=       0.01441266 Eh      9.04 kcal/mol|
|  sn= 5 | S(rot)=       0.01420197 Eh      8.91 kcal/mol|
|  sn= 6 | S(rot)=       0.01402983 Eh      8.80 kcal/mol|
|  sn= 7 | S(rot)=       0.01388428 Eh      8.71 kcal/mol|
|  sn= 8 | S(rot)=       0.01375820 Eh      8.63 kcal/mol|
|  sn= 9 | S(rot)=       0.01364699 Eh      8.56 kcal/mol|
|  sn=10 | S(rot)=       0.01354751 Eh      8.50 kcal/mol|
|  sn=11 | S(rot)=       0.01345752 Eh      8.44 kcal/mol|
|  sn=12 | S(rot)=       0.01337537 Eh      8.39 kcal/mol|
 --------------------------------------------------------


-------------------
GIBBS FREE ENERGY
-------------------

The Gibbs free energy is G = H - T*S

Total enthalpy                    ...   -804.71836223 Eh 
Total entropy correction          ...     -0.06436752 Eh    -40.39 kcal/mol
-----------------------------------------------------------------------
Final Gibbs free energy         ...   -804.78272975 Eh

For completeness - the Gibbs free energy minus the electronic energy
G-E(el)                           ...      0.28126877 Eh    176.50 kcal/mol


Timings for individual modules:

Sum of individual times         ...     2152.946 sec (=  35.882 min)
GTO integral calculation        ...       20.216 sec (=   0.337 min)   0.9 %
SCF iterations                  ...      903.544 sec (=  15.059 min)  42.0 %
SCF Gradient evaluation         ...      270.518 sec (=   4.509 min)  12.6 %
Geometry relaxation             ...        1.281 sec (=   0.021 min)   0.1 %
Analytical frequency calculation...      957.387 sec (=  15.956 min)  44.5 %
                             ****ORCA TERMINATED NORMALLY****
TOTAL RUN TIME: 0 days 0 hours 35 minutes 58 seconds 814 msec
