
                                 *****************
                                 * O   R   C   A *
                                 *****************

                                            #,                                       
                                            ###                                      
                                            ####                                     
                                            #####                                    
                                            ######                                   
                                           ########,                                 
                                     ,,################,,,,,                         
                               ,,#################################,,                 
                          ,,##########################################,,             
                       ,#########################################, ''#####,          
                    ,#############################################,,   '####,        
                  ,##################################################,,,,####,       
                ,###########''''           ''''###############################       
              ,#####''   ,,,,##########,,,,          '''####'''          '####       
            ,##' ,,,,###########################,,,                        '##       
           ' ,,###''''                  '''############,,,                           
         ,,##''                                '''############,,,,        ,,,,,,###''
      ,#''                                            '''#######################'''  
     '                                                          ''''####''''         
             ,#######,   #######,   ,#######,      ##                                
            ,#'     '#,  ##    ##  ,#'     '#,    #''#        ######   ,####,        
            ##       ##  ##   ,#'  ##            #'  '#       #        #'  '#        
            ##       ##  #######   ##           ,######,      #####,   #    #        
            '#,     ,#'  ##    ##  '#,     ,#' ,#      #,         ##   #,  ,#        
             '#######'   ##     ##  '#######'  #'      '#     #####' # '####'        



                  #######################################################
                  #                        -***-                        #
                  #          Department of theory and spectroscopy      #
                  #    Directorship and core code : Frank Neese         #
                  #        Max Planck Institute fuer Kohlenforschung    #
                  #                Kaiser Wilhelm Platz 1               #
                  #                 D-45470 Muelheim/Ruhr               #
                  #                      Germany                        #
                  #                                                     #
                  #                  All rights reserved                #
                  #                        -***-                        #
                  #######################################################


                         Program Version 5.0.4 -  RELEASE  -


 With contributions from (in alphabetic order):
   Daniel Aravena         : Magnetic Suceptibility
   Michael Atanasov       : Ab Initio Ligand Field Theory (pilot matlab implementation)
   Alexander A. Auer      : GIAO ZORA, VPT2 properties, NMR spectrum
   Ute Becker             : Parallelization
   Giovanni Bistoni       : ED, misc. LED, open-shell LED, HFLD
   Martin Brehm           : Molecular dynamics
   Dmytro Bykov           : SCF Hessian
   Vijay G. Chilkuri      : MRCI spin determinant printing, contributions to CSF-ICE
   Dipayan Datta          : RHF DLPNO-CCSD density
   Achintya Kumar Dutta   : EOM-CC, STEOM-CC
   Dmitry Ganyushin       : Spin-Orbit,Spin-Spin,Magnetic field MRCI
   Miquel Garcia          : C-PCM and meta-GGA Hessian, CC/C-PCM, Gaussian charge scheme
   Yang Guo               : DLPNO-NEVPT2, F12-NEVPT2, CIM, IAO-localization
   Andreas Hansen         : Spin unrestricted coupled pair/coupled cluster methods
   Benjamin Helmich-Paris : MC-RPA, TRAH-SCF, COSX integrals
   Lee Huntington         : MR-EOM, pCC
   Robert Izsak           : Overlap fitted RIJCOSX, COSX-SCS-MP3, EOM
   Marcus Kettner         : VPT2
   Christian Kollmar      : KDIIS, OOCD, Brueckner-CCSD(T), CCSD density, CASPT2, CASPT2-K
   Simone Kossmann        : Meta GGA functionals, TD-DFT gradient, OOMP2, MP2 Hessian
   Martin Krupicka        : Initial AUTO-CI
   Lucas Lang             : DCDCAS
   Marvin Lechner         : AUTO-CI (C++ implementation), FIC-MRCC
   Dagmar Lenk            : GEPOL surface, SMD
   Dimitrios Liakos       : Extrapolation schemes; Compound Job, initial MDCI parallelization
   Dimitrios Manganas     : Further ROCIS development; embedding schemes
   Dimitrios Pantazis     : SARC Basis sets
   Anastasios Papadopoulos: AUTO-CI, single reference methods and gradients
   Taras Petrenko         : DFT Hessian,TD-DFT gradient, ASA, ECA, R-Raman, ABS, FL, XAS/XES, NRVS
   Peter Pinski           : DLPNO-MP2, DLPNO-MP2 Gradient
   Christoph Reimann      : Effective Core Potentials
   Marius Retegan         : Local ZFS, SOC
   Christoph Riplinger    : Optimizer, TS searches, QM/MM, DLPNO-CCSD(T), (RO)-DLPNO pert. Triples
   Tobias Risthaus        : Range-separated hybrids, TD-DFT gradient, RPA, STAB
   Michael Roemelt        : Original ROCIS implementation
   Masaaki Saitow         : Open-shell DLPNO-CCSD energy and density
   Barbara Sandhoefer     : DKH picture change effects
   Avijit Sen             : IP-ROCIS
   Kantharuban Sivalingam : CASSCF convergence, NEVPT2, FIC-MRCI
   Bernardo de Souza      : ESD, SOC TD-DFT
   Georgi Stoychev        : AutoAux, RI-MP2 NMR, DLPNO-MP2 response
   Willem Van den Heuvel  : Paramagnetic NMR
   Boris Wezisla          : Elementary symmetry handling
   Frank Wennmohs         : Technical directorship


 We gratefully acknowledge several colleagues who have allowed us to
 interface, adapt or use parts of their codes:
   Stefan Grimme, W. Hujo, H. Kruse, P. Pracht,  : VdW corrections, initial TS optimization,
                  C. Bannwarth, S. Ehlert          DFT functionals, gCP, sTDA/sTD-DF
   Ed Valeev, F. Pavosevic, A. Kumar             : LibInt (2-el integral package), F12 methods
   Garnet Chan, S. Sharma, J. Yang, R. Olivares  : DMRG
   Ulf Ekstrom                                   : XCFun DFT Library
   Mihaly Kallay                                 : mrcc  (arbitrary order and MRCC methods)
   Jiri Pittner, Ondrej Demel                    : Mk-CCSD
   Frank Weinhold                                : gennbo (NPA and NBO analysis)
   Christopher J. Cramer and Donald G. Truhlar   : smd solvation model
   Lars Goerigk                                  : TD-DFT with DH, B97 family of functionals
   V. Asgeirsson, H. Jonsson                     : NEB implementation
   FAccTs GmbH                                   : IRC, NEB, NEB-TS, DLPNO-Multilevel, CI-OPT
                                                   MM, QMMM, 2- and 3-layer-ONIOM, Crystal-QMMM,
                                                   LR-CPCM, SF, NACMEs, symmetry and pop. for TD-DFT,
                                                   nearIR, NL-DFT gradient (VV10), updates on ESD,
                                                   ML-optimized integration grids
   S Lehtola, MJT Oliveira, MAL Marques          : LibXC Library
   Liviu Ungur et al                             : ANISO software


 Your calculation uses the libint2 library for the computation of 2-el integrals
 For citations please refer to: http://libint.valeyev.net

 Your ORCA version has been built with support for libXC version: 5.1.0
 For citations please refer to: https://tddft.org/programs/libxc/

 This ORCA versions uses:
   CBLAS   interface :  Fast vector & matrix operations
   LAPACKE interface :  Fast linear algebra routines
   SCALAPACK package :  Parallel linear algebra routines
   Shared memory     :  Shared parallel matrices
   BLAS/LAPACK       :  OpenBLAS 0.3.15  USE64BITINT DYNAMIC_ARCH NO_AFFINITY SkylakeX SINGLE_THREADED
        Core in use  :  SkylakeX
   Copyright (c) 2011-2014, The OpenBLAS Project




***************************************
The coordinates will be read from file: /users/fjb15167/WWenergy/structures/Nn.xyz
***************************************


Your calculation utilizes the atom-pairwise dispersion correction
based on tight binding partial charges (D4)
Cite in your paper:
E.Caldeweyher, C.Bannwarth, S.Grimme, J.Chem.Phys., (2017), 147, 034112.
E.Caldeweyher, S.Ehlert, A.Hansen, H.Neugebauer, S.Grimme, J.Chem.Phys., (2018), in progress.
   

================================================================================

----- Orbital basis set information -----
Your calculation utilizes the basis: 6-31G(d)
   H-He, Li-Ne : W. J. Hehre, R. Ditchfield and J.A. Pople, J. Chem. Phys. 56, 2257 (1972).
                 Note: He and Ne are unpublished basis sets taken from the Gaussian program.
                 Note: Li and B from J. D. Dill and J. A. Pople, J. Chem. Phys. 62, 2921 (1975).
   Na - Ar     : M. M. Francl, W. J. Pietro, W. J. Hehre, J. S. Binkley, M. S. Gordon, 
                 D. J. DeFrees and J. A. Pople, J. Chem. Phys. 77, 3654 (1982).
   K - Zn      : V. A. Rassolov, J. A. Pople, M. A. Ratner, and T. L. Windus, J. Chem. Phys. 109, 1223 (1998).

----- AuxJ basis set information -----
Your calculation utilizes the AutoAux generation procedure.
  G. L. Stoychev, A. A. Auer, F. Neese, J. Chem. Theory Comput. 13, 554 (2017)

----- AuxC basis set information -----
Your calculation utilizes the AutoAux generation procedure.
  G. L. Stoychev, A. A. Auer, F. Neese, J. Chem. Theory Comput. 13, 554 (2017)

----- AuxJK basis set information -----
Your calculation utilizes the AutoAux generation procedure.
  G. L. Stoychev, A. A. Auer, F. Neese, J. Chem. Theory Comput. 13, 554 (2017)

================================================================================
                                        WARNINGS
                       Please study these warnings very carefully!
================================================================================


WARNING: Geometry Optimization
  ===> : Switching off AutoStart
         For restart on a previous wavefunction, please use MOREAD

INFO   : the flag for use of the SHARK integral package has been found!

================================================================================
                                       INPUT FILE
================================================================================
NAME = Nn_water.inp
|  1> ! OPT FREQ B3LYP 6-31G(d) D4 AUTOAUX CPCM(water)
|  2> 
|  3> %PAL NPROCS 4 END
|  4> 
|  5> %maxcore 3375
|  6> 
|  7> *xyzfile 0 1 /users/fjb15167/WWenergy/structures/Nn.xyz
|  8> 
|  9>                          ****END OF INPUT****
================================================================================

                       *****************************
                       * Geometry Optimization Run *
                       *****************************

Geometry optimization settings:
Update method            Update   .... BFGS
Choice of coordinates    CoordSys .... Z-matrix Internals
Initial Hessian          InHess   .... Almoef's Model

Convergence Tolerances:
Energy Change            TolE     ....  5.0000e-06 Eh
Max. Gradient            TolMAXG  ....  3.0000e-04 Eh/bohr
RMS Gradient             TolRMSG  ....  1.0000e-04 Eh/bohr
Max. Displacement        TolMAXD  ....  4.0000e-03 bohr
RMS Displacement         TolRMSD  ....  2.0000e-03 bohr
Strict Convergence                ....  False
------------------------------------------------------------------------------
                        ORCA OPTIMIZATION COORDINATE SETUP
------------------------------------------------------------------------------

The optimization will be done in new redundant internal coordinates
Making redundant internal coordinates   ...  (new redundants) done
Evaluating the initial hessian          ...  (Almloef) done
Evaluating the coordinates              ...  done
Calculating the B-matrix                .... done
Calculating the G-matrix                .... done
Diagonalizing the G-matrix              .... done
Small eigenvalue found = 7.663e-03
Small eigenvalue found = 1.051e-02
Small eigenvalue found = 1.356e-02
Small eigenvalue found = 2.212e-02
The first mode is                       ....   49
The number of degrees of freedom        ....   81

    -----------------------------------------------------------------
                    Redundant Internal Coordinates


    -----------------------------------------------------------------
         Definition                    Initial Value    Approx d2E/dq
    -----------------------------------------------------------------
      1. B(O   4,C   0)                  1.2123         1.074944   
      2. B(C   5,H   3)                  1.0923         0.357111   
      3. B(C   5,C   0)                  1.5307         0.372668   
      4. B(C   5,H   1)                  1.0944         0.354303   
      5. B(C   5,H   2)                  1.0898         0.360410   
      6. B(N   6,C   0)                  1.3883         0.563001   
      7. B(C   7,N   6)                  1.4478         0.452500   
      8. B(H   8,C   7)                  1.0932         0.355951   
      9. B(H   9,C   7)                  1.1002         0.346830   
     10. B(C  10,N   6)                  1.4422         0.461939   
     11. B(H  11,C  10)                  1.0931         0.356042   
     12. B(H  12,C  10)                  1.0936         0.355369   
     13. B(C  13,C  10)                  1.5297         0.373954   
     14. B(O  14,C  13)                  1.2300         1.007163   
     15. B(N  15,C  13)                  1.3664         0.610277   
     16. B(H  16,N  15)                  1.0106         0.431683   
     17. B(H  17,N  15)                  1.0117         0.430036   
     18. B(C  18,C   7)                  1.5270         0.377698   
     19. B(O  19,C  18)                  1.2381         0.977740   
     20. B(N  20,C  18)                  1.3688         0.604927   
     21. B(C  21,N  20)                  1.4532         0.443691   
     22. B(H  22,C  21)                  1.0878         0.363068   
     23. B(H  23,C  21)                  1.0982         0.349458   
     24. B(H  24,C  21)                  1.0002         0.500754   
     25. B(C  25,N  20)                  1.4546         0.441397   
     26. B(H  26,C  25)                  1.0953         0.353191   
     27. B(H  27,C  25)                  1.0965         0.351548   
     28. B(H  28,C  25)                  1.0882         0.362523   
     29. A(O   4,C   0,C   5)          121.5897         0.434439   
     30. A(O   4,C   0,N   6)          123.0155         0.465131   
     31. A(C   5,C   0,N   6)          115.3779         0.387399   
     32. A(C   0,C   5,H   2)          106.5162         0.324235   
     33. A(C   0,C   5,H   1)          112.0941         0.323327   
     34. A(C   0,C   5,H   3)          110.9801         0.323746   
     35. A(H   2,C   5,H   3)          109.2257         0.290498   
     36. A(H   1,C   5,H   2)          109.0088         0.290139   
     37. A(H   1,C   5,H   3)          108.9446         0.289720   
     38. A(C   7,N   6,C  10)          116.4684         0.384693   
     39. A(C   0,N   6,C  10)          123.4762         0.399684   
     40. A(C   0,N   6,C   7)          116.1251         0.398235   
     41. A(H   9,C   7,C  18)          110.3413         0.322908   
     42. A(H   8,C   7,C  18)          111.1868         0.324286   
     43. A(N   6,C   7,C  18)          112.0357         0.373865   
     44. A(H   8,C   7,H   9)          107.3013         0.288607   
     45. A(N   6,C   7,H   9)          110.0568         0.330667   
     46. A(N   6,C   7,H   8)          105.7231         0.332091   
     47. A(H  12,C  10,C  13)          111.4143         0.323669   
     48. A(H  11,C  10,C  13)          108.6850         0.323770   
     49. A(N   6,C  10,C  13)          112.1168         0.374554   
     50. A(H  11,C  10,H  12)          106.1240         0.289721   
     51. A(N   6,C  10,H  12)          107.8558         0.333140   
     52. A(N   6,C  10,H  11)          110.4823         0.333244   
     53. A(O  14,C  13,N  15)          123.0460         0.466453   
     54. A(C  10,C  13,N  15)          114.2599         0.393132   
     55. A(C  10,C  13,O  14)          122.6191         0.429649   
     56. A(H  16,N  15,H  17)          117.7331         0.302842   
     57. A(C  13,N  15,H  17)          117.3144         0.357329   
     58. A(C  13,N  15,H  16)          121.1792         0.357561   
     59. A(C   7,C  18,O  19)          121.6173         0.428135   
     60. A(O  19,C  18,N  20)          122.3482         0.463182   
     61. A(C   7,C  18,N  20)          116.0321         0.393212   
     62. A(C  21,N  20,C  25)          115.5050         0.380365   
     63. A(C  18,N  20,C  25)          118.8280         0.401541   
     64. A(C  18,N  20,C  21)          124.8878         0.401908   
     65. A(H  23,C  21,H  24)          109.2174         0.305008   
     66. A(H  22,C  21,H  24)          109.2441         0.306884   
     67. A(N  20,C  21,H  24)          106.7002         0.350450   
     68. A(H  22,C  21,H  23)          108.9063         0.289846   
     69. A(N  20,C  21,H  23)          111.3673         0.330006   
     70. A(N  20,C  21,H  22)          111.3504         0.332099   
     71. A(H  27,C  25,H  28)          109.5816         0.290049   
     72. A(H  26,C  25,H  28)          109.8674         0.290262   
     73. A(N  20,C  25,H  28)          108.2735         0.331731   
     74. A(H  26,C  25,H  27)          108.7085         0.288866   
     75. A(N  20,C  25,H  27)          110.7236         0.330048   
     76. A(N  20,C  25,H  26)          109.6785         0.330303   
     77. D(H   2,C   5,C   0,N   6)   -177.4259         0.010390   
     78. D(H   3,C   5,C   0,O   4)   -117.6670         0.010390   
     79. D(H   1,C   5,C   0,N   6)    -58.2807         0.010390   
     80. D(H   3,C   5,C   0,N   6)     63.7871         0.010390   
     81. D(H   2,C   5,C   0,O   4)      1.1199         0.010390   
     82. D(H   1,C   5,C   0,O   4)    120.2651         0.010390   
     83. D(C   7,N   6,C   0,C   5)   -170.3348         0.025330   
     84. D(C   7,N   6,C   0,O   4)     11.1425         0.025330   
     85. D(C  10,N   6,C   0,C   5)    -13.4865         0.025330   
     86. D(C  10,N   6,C   0,O   4)    167.9907         0.025330   
     87. D(H   9,C   7,N   6,C  10)    -52.7827         0.017470   
     88. D(H   9,C   7,N   6,C   0)    105.7268         0.017470   
     89. D(H   8,C   7,N   6,C  10)   -168.3573         0.017470   
     90. D(C  18,C   7,N   6,C   0)   -131.1126         0.017470   
     91. D(C  18,C   7,N   6,C  10)     70.3780         0.017470   
     92. D(H   8,C   7,N   6,C   0)     -9.8479         0.017470   
     93. D(C  13,C  10,N   6,C   7)     77.1206         0.018218   
     94. D(C  13,C  10,N   6,C   0)    -79.6549         0.018218   
     95. D(H  12,C  10,N   6,C   7)    -45.9020         0.018218   
     96. D(H  11,C  10,N   6,C   7)   -161.4833         0.018218   
     97. D(H  11,C  10,N   6,C   0)     41.7411         0.018218   
     98. D(H  12,C  10,N   6,C   0)    157.3225         0.018218   
     99. D(N  15,C  13,C  10,H  12)    -46.7341         0.010457   
    100. D(N  15,C  13,C  10,H  11)     69.8520         0.010457   
    101. D(N  15,C  13,C  10,N   6)   -167.7250         0.010457   
    102. D(O  14,C  13,C  10,H  12)    136.3283         0.010457   
    103. D(O  14,C  13,C  10,H  11)   -107.0857         0.010457   
    104. D(O  14,C  13,C  10,N   6)     15.3373         0.010457   
    105. D(H  17,N  15,C  13,C  10)    175.0431         0.030085   
    106. D(H  16,N  15,C  13,O  14)   -165.6570         0.030085   
    107. D(H  16,N  15,C  13,C  10)     17.4201         0.030085   
    108. D(H  17,N  15,C  13,O  14)     -8.0340         0.030085   
    109. D(N  20,C  18,C   7,H   9)    -63.5868         0.010653   
    110. D(N  20,C  18,C   7,H   8)     55.3515         0.010653   
    111. D(N  20,C  18,C   7,N   6)    173.4132         0.010653   
    112. D(O  19,C  18,C   7,H   9)    115.8618         0.010653   
    113. D(O  19,C  18,C   7,H   8)   -125.1998         0.010653   
    114. D(O  19,C  18,C   7,N   6)     -7.1382         0.010653   
    115. D(C  25,N  20,C  18,O  19)     -4.5256         0.029521   
    116. D(C  25,N  20,C  18,C   7)    174.9186         0.029521   
    117. D(C  21,N  20,C  18,O  19)   -173.9385         0.029521   
    118. D(C  21,N  20,C  18,C   7)      5.5057         0.029521   
    119. D(H  24,C  21,N  20,C  25)     47.5549         0.016789   
    120. D(H  24,C  21,N  20,C  18)   -142.7182         0.016789   
    121. D(H  23,C  21,N  20,C  25)    -71.5488         0.016789   
    122. D(H  23,C  21,N  20,C  18)     98.1781         0.016789   
    123. D(H  22,C  21,N  20,C  25)    166.6813         0.016789   
    124. D(H  22,C  21,N  20,C  18)    -23.5918         0.016789   
    125. D(H  28,C  25,N  20,C  21)   -179.0934         0.016614   
    126. D(H  28,C  25,N  20,C  18)     10.5190         0.016614   
    127. D(H  27,C  25,N  20,C  21)     60.7547         0.016614   
    128. D(H  27,C  25,N  20,C  18)   -109.6329         0.016614   
    129. D(H  26,C  25,N  20,C  21)    -59.2135         0.016614   
    130. D(H  26,C  25,N  20,C  18)    130.3989         0.016614   
    -----------------------------------------------------------------

Number of atoms                         .... 29
Number of degrees of freedom            .... 130

         *************************************************************
         *                GEOMETRY OPTIMIZATION CYCLE   1            *
         *************************************************************
---------------------------------
CARTESIAN COORDINATES (ANGSTROEM)
---------------------------------
  C      1.539000   -1.736000   -0.689000
  H      2.847000   -0.883000   -2.226000
  H      3.392000   -2.397000   -1.469000
  H      3.528000   -0.861000   -0.582000
  O      1.169000   -2.873000   -0.489000
  C      2.917000   -1.434000   -1.283000
  N      0.746000   -0.626000   -0.431000
  C     -0.464000   -0.869000    0.326000
  H     -0.567000   -1.956000    0.379000
  H     -0.345000   -0.501000    1.356000
  C      1.248000    0.726000   -0.424000
  H      1.941000    0.881000   -1.255000
  H      0.404000    1.398000   -0.603000
  C      1.966000    1.067000    0.883000
  O      2.329000    0.207000    1.684000
  N      2.226000    2.398000    1.050000
  H      1.743000    3.098000    0.504000
  H      2.630000    2.685000    1.932000
  C     -1.687000   -0.230000   -0.328000
  O     -1.582000    0.518000   -1.309000
  N     -2.896000   -0.525000    0.242000
  C     -3.074000   -1.291000    1.464000
  H     -2.221000   -1.939000    1.653000
  H     -3.220000   -0.633000    2.331000
  H     -3.892000   -1.852000    1.335000
  C     -4.089000    0.138000   -0.261000
  H     -4.867000   -0.606000   -0.463000
  H     -4.472000    0.857000    0.473000
  H     -3.828000    0.659000   -1.180000

----------------------------
CARTESIAN COORDINATES (A.U.)
----------------------------
  NO LB      ZA    FRAG     MASS         X           Y           Z
   0 C     6.0000    0    12.011    2.908289   -3.280565   -1.302021
   1 H     1.0000    0     1.008    5.380050   -1.668628   -4.206530
   2 H     1.0000    0     1.008    6.409951   -4.529674   -2.776008
   3 H     1.0000    0     1.008    6.666954   -1.627054   -1.099821
   4 O     8.0000    0    15.999    2.209090   -5.429183   -0.924076
   5 C     6.0000    0    12.011    5.512331   -2.709867   -2.424519
   6 N     7.0000    0    14.007    1.409736   -1.182969   -0.814472
   7 C     6.0000    0    12.011   -0.876833   -1.642172    0.616051
   8 H     1.0000    0     1.008   -1.071475   -3.696304    0.716206
   9 H     1.0000    0     1.008   -0.651956   -0.946753    2.562469
  10 C     6.0000    0    12.011    2.358378    1.371941   -0.801244
  11 H     1.0000    0     1.008    3.667958    1.664849   -2.371606
  12 H     1.0000    0     1.008    0.763449    2.641837   -1.139505
  13 C     6.0000    0    12.011    3.715202    2.016338    1.668628
  14 O     8.0000    0    15.999    4.401172    0.391173    3.182299
  15 N     7.0000    0    14.007    4.206530    4.531563    1.984212
  16 H     1.0000    0     1.008    3.293793    5.854372    0.952422
  17 H     1.0000    0     1.008    4.969980    5.073915    3.650951
  18 C     6.0000    0    12.011   -3.187968   -0.434637   -0.619830
  19 O     8.0000    0    15.999   -2.989547    0.978878   -2.473652
  20 N     7.0000    0    14.007   -5.472647   -0.992106    0.457314
  21 C     6.0000    0    12.011   -5.809018   -2.439636    2.766559
  22 H     1.0000    0     1.008   -4.197082   -3.664179    3.123717
  23 H     1.0000    0     1.008   -6.084918   -1.196197    4.404952
  24 H     1.0000    0     1.008   -7.354814   -3.499773    2.522784
  25 C     6.0000    0    12.011   -7.727090    0.260782   -0.493219
  26 H     1.0000    0     1.008   -9.197297   -1.145174   -0.874943
  27 H     1.0000    0     1.008   -8.450855    1.619495    0.893840
  28 H     1.0000    0     1.008   -7.233872    1.245330   -2.229877

--------------------------------
INTERNAL COORDINATES (ANGSTROEM)
--------------------------------
 C      0   0   0     0.000000000000     0.00000000     0.00000000
 H      1   0   0     2.191082380925     0.00000000     0.00000000
 H      2   1   0     1.778277256223    63.44169869     0.00000000
 H      3   2   1     1.778921302363    60.03727515   284.29099560
 O      1   2   3     1.212299055514   131.53279516   315.64148885
 C      3   2   1     1.089766029935    35.58262432   320.14131740
 N      1   2   3     1.388349019519    99.21151510   163.87578430
 C      7   1   2     1.447825265700   116.12508070   166.16056025
 H      8   7   1     1.093154609376   105.72307242   350.15213503
 H      8   7   1     1.100220432459   110.05677160   105.72675573
 C      7   1   2     1.442205602541   123.47615402   323.00876847
 H     11   7   1     1.093085083605   110.48228296    41.74113992
 H     11   7   1     1.093600018288   107.85577341   157.32245638
 C     11   7   1     1.529723504428   112.11682273   280.34506291
 O     14  11   7     1.230028454955   122.61908802    15.33731836
 N     14  11   7     1.366400380562   114.25990308   192.27499396
 H     16  14  11     1.010645833119   121.17915605    17.42011464
 H     16  14  11     1.011686216176   117.31438253   175.04310862
 C      8   7   1     1.527012115211   112.03570473   228.88742849
 O     19   8   7     1.238099349810   121.61733221   352.86183226
 N     19   8   7     1.368797282288   116.03208183   173.41320692
 C     21  19   8     1.453177208740   124.88784100     5.50569300
 H     22  21  19     1.087765599750   111.35038585   336.40824213
 H     22  21  19     1.098166198715   111.36732800    98.17813655
 H     22  21  19     1.000242970483   106.70019675   217.28178617
 C     21  19   8     1.454588257893   118.82801109   174.91859116
 H     26  21  19     1.095273481830   109.67850647   130.39885655
 H     26  21  19     1.096542748825   110.72362551   250.36706018
 H     26  21  19     1.088174158855   108.27352339    10.51897660

---------------------------
INTERNAL COORDINATES (A.U.)
---------------------------
 C      0   0   0     0.000000000000     0.00000000     0.00000000
 H      1   0   0     4.140545636808     0.00000000     0.00000000
 H      2   1   0     3.360457004442    63.44169869     0.00000000
 H      3   2   1     3.361674075264    60.03727515   284.29099560
 O      1   2   3     2.290913207333   131.53279516   315.64148885
 C      3   2   1     2.059359346628    35.58262432   320.14131740
 N      1   2   3     2.623599425189    99.21151510   163.87578430
 C      7   1   2     2.735993241945   116.12508070   166.16056025
 H      8   7   1     2.065762833754   105.72307242   350.15213503
 H      8   7   1     2.079115304292   110.05677160   105.72675573
 C      7   1   2     2.725373617609   123.47615402   323.00876847
 H     11   7   1     2.065631449088   110.48228296    41.74113992
 H     11   7   1     2.066604534616   107.85577341   157.32245638
 C     11   7   1     2.890758483992   112.11682273   280.34506291
 O     14  11   7     2.324416916796   122.61908802    15.33731836
 N     14  11   7     2.582122508548   114.25990308   192.27499396
 H     16  14  11     1.909843842983   121.17915605    17.42011464
 H     16  14  11     1.911809882035   117.31438253   175.04310862
 C      8   7   1     2.885634700928   112.03570473   228.88742849
 O     19   8   7     2.339668697727   121.61733221   352.86183226
 N     19   8   7     2.586651996381   116.03208183   173.41320692
 C     21  19   8     2.746106948574   124.88784100     5.50569300
 H     22  21  19     2.055579081429   111.35038585   336.40824213
 H     22  21  19     2.075233365101   111.36732800    98.17813655
 H     22  21  19     1.890185281592   106.70019675   217.28178617
 C     21  19   8     2.748773445035   118.82801109   174.91859116
 H     26  21  19     2.069766922405   109.67850647   130.39885655
 H     26  21  19     2.072165489416   110.72362551   250.36706018
 H     26  21  19     2.056351146246   108.27352339    10.51897660

---------------------
BASIS SET INFORMATION
---------------------
There are 4 groups of distinct atoms

 Group   1 Type C   : 10s4p1d contracted to 3s2p1d pattern {631/31/1}
 Group   2 Type H   : 4s contracted to 2s pattern {31}
 Group   3 Type O   : 10s4p1d contracted to 3s2p1d pattern {631/31/1}
 Group   4 Type N   : 10s4p1d contracted to 3s2p1d pattern {631/31/1}

Atom   0C    basis set group =>   1
Atom   1H    basis set group =>   2
Atom   2H    basis set group =>   2
Atom   3H    basis set group =>   2
Atom   4O    basis set group =>   3
Atom   5C    basis set group =>   1
Atom   6N    basis set group =>   4
Atom   7C    basis set group =>   1
Atom   8H    basis set group =>   2
Atom   9H    basis set group =>   2
Atom  10C    basis set group =>   1
Atom  11H    basis set group =>   2
Atom  12H    basis set group =>   2
Atom  13C    basis set group =>   1
Atom  14O    basis set group =>   3
Atom  15N    basis set group =>   4
Atom  16H    basis set group =>   2
Atom  17H    basis set group =>   2
Atom  18C    basis set group =>   1
Atom  19O    basis set group =>   3
Atom  20N    basis set group =>   4
Atom  21C    basis set group =>   1
Atom  22H    basis set group =>   2
Atom  23H    basis set group =>   2
Atom  24H    basis set group =>   2
Atom  25C    basis set group =>   1
Atom  26H    basis set group =>   2
Atom  27H    basis set group =>   2
Atom  28H    basis set group =>   2
---------------------------------
AUXILIARY/J BASIS SET INFORMATION
---------------------------------
There are 4 groups of distinct atoms

 Group   1 Type C   : 13s11p10d2f contracted to 13s11p10d2f pattern {1111111111111/11111111111/1111111111/11}
 Group   2 Type H   : 9s2p contracted to 9s2p pattern {111111111/11}
 Group   3 Type O   : 14s11p10d2f contracted to 14s11p10d2f pattern {11111111111111/11111111111/1111111111/11}
 Group   4 Type N   : 14s11p10d2f contracted to 14s11p10d2f pattern {11111111111111/11111111111/1111111111/11}

Atom   0C    basis set group =>   1
Atom   1H    basis set group =>   2
Atom   2H    basis set group =>   2
Atom   3H    basis set group =>   2
Atom   4O    basis set group =>   3
Atom   5C    basis set group =>   1
Atom   6N    basis set group =>   4
Atom   7C    basis set group =>   1
Atom   8H    basis set group =>   2
Atom   9H    basis set group =>   2
Atom  10C    basis set group =>   1
Atom  11H    basis set group =>   2
Atom  12H    basis set group =>   2
Atom  13C    basis set group =>   1
Atom  14O    basis set group =>   3
Atom  15N    basis set group =>   4
Atom  16H    basis set group =>   2
Atom  17H    basis set group =>   2
Atom  18C    basis set group =>   1
Atom  19O    basis set group =>   3
Atom  20N    basis set group =>   4
Atom  21C    basis set group =>   1
Atom  22H    basis set group =>   2
Atom  23H    basis set group =>   2
Atom  24H    basis set group =>   2
Atom  25C    basis set group =>   1
Atom  26H    basis set group =>   2
Atom  27H    basis set group =>   2
Atom  28H    basis set group =>   2
---------------------------------
AUXILIARY/C BASIS SET INFORMATION
---------------------------------
There are 4 groups of distinct atoms

 Group   1 Type C   : 13s11p10d2f contracted to 13s11p10d2f pattern {1111111111111/11111111111/1111111111/11}
 Group   2 Type H   : 9s2p contracted to 9s2p pattern {111111111/11}
 Group   3 Type O   : 14s11p10d2f contracted to 14s11p10d2f pattern {11111111111111/11111111111/1111111111/11}
 Group   4 Type N   : 14s11p10d2f contracted to 14s11p10d2f pattern {11111111111111/11111111111/1111111111/11}

Atom   0C    basis set group =>   1
Atom   1H    basis set group =>   2
Atom   2H    basis set group =>   2
Atom   3H    basis set group =>   2
Atom   4O    basis set group =>   3
Atom   5C    basis set group =>   1
Atom   6N    basis set group =>   4
Atom   7C    basis set group =>   1
Atom   8H    basis set group =>   2
Atom   9H    basis set group =>   2
Atom  10C    basis set group =>   1
Atom  11H    basis set group =>   2
Atom  12H    basis set group =>   2
Atom  13C    basis set group =>   1
Atom  14O    basis set group =>   3
Atom  15N    basis set group =>   4
Atom  16H    basis set group =>   2
Atom  17H    basis set group =>   2
Atom  18C    basis set group =>   1
Atom  19O    basis set group =>   3
Atom  20N    basis set group =>   4
Atom  21C    basis set group =>   1
Atom  22H    basis set group =>   2
Atom  23H    basis set group =>   2
Atom  24H    basis set group =>   2
Atom  25C    basis set group =>   1
Atom  26H    basis set group =>   2
Atom  27H    basis set group =>   2
Atom  28H    basis set group =>   2
----------------------------------
AUXILIARY/JK BASIS SET INFORMATION
----------------------------------
There are 4 groups of distinct atoms

 Group   1 Type C   : 13s11p10d2f contracted to 13s11p10d2f pattern {1111111111111/11111111111/1111111111/11}
 Group   2 Type H   : 9s2p contracted to 9s2p pattern {111111111/11}
 Group   3 Type O   : 14s11p10d2f contracted to 14s11p10d2f pattern {11111111111111/11111111111/1111111111/11}
 Group   4 Type N   : 14s11p10d2f contracted to 14s11p10d2f pattern {11111111111111/11111111111/1111111111/11}

Atom   0C    basis set group =>   1
Atom   1H    basis set group =>   2
Atom   2H    basis set group =>   2
Atom   3H    basis set group =>   2
Atom   4O    basis set group =>   3
Atom   5C    basis set group =>   1
Atom   6N    basis set group =>   4
Atom   7C    basis set group =>   1
Atom   8H    basis set group =>   2
Atom   9H    basis set group =>   2
Atom  10C    basis set group =>   1
Atom  11H    basis set group =>   2
Atom  12H    basis set group =>   2
Atom  13C    basis set group =>   1
Atom  14O    basis set group =>   3
Atom  15N    basis set group =>   4
Atom  16H    basis set group =>   2
Atom  17H    basis set group =>   2
Atom  18C    basis set group =>   1
Atom  19O    basis set group =>   3
Atom  20N    basis set group =>   4
Atom  21C    basis set group =>   1
Atom  22H    basis set group =>   2
Atom  23H    basis set group =>   2
Atom  24H    basis set group =>   2
Atom  25C    basis set group =>   1
Atom  26H    basis set group =>   2
Atom  27H    basis set group =>   2
Atom  28H    basis set group =>   2


           ************************************************************
           *        Program running with 4 parallel MPI-processes     *
           *              working on a common directory               *
           ************************************************************
------------------------------------------------------------------------------
                           ORCA GTO INTEGRAL CALCULATION
                           -- RI-GTO INTEGRALS CHOSEN --
------------------------------------------------------------------------------
------------------------------------------------------------------------------
                   ___                                                        
                  /   \      - P O W E R E D   B Y -                         
                 /     \                                                     
                 |  |  |   _    _      __       _____    __    __             
                 |  |  |  | |  | |    /  \     |  _  \  |  |  /  |          
                  \  \/   | |  | |   /    \    | | | |  |  | /  /          
                 / \  \   | |__| |  /  /\  \   | |_| |  |  |/  /          
                |  |  |   |  __  | /  /__\  \  |    /   |      \           
                |  |  |   | |  | | |   __   |  |    \   |  |\   \          
                \     /   | |  | | |  |  |  |  | |\  \  |  | \   \       
                 \___/    |_|  |_| |__|  |__|  |_| \__\ |__|  \__/        
                                                                              
                      - O R C A' S   B I G   F R I E N D -                    
                                      &                                       
                       - I N T E G R A L  F E E D E R -                       
                                                                              
 v1 FN, 2020, v2 2021                                                         
------------------------------------------------------------------------------


Reading SHARK input file Nn_water.SHARKINP.tmp ... ok
----------------------
SHARK INTEGRAL PACKAGE
----------------------

Number of atoms                             ...     29
Number of basis functions                   ...    226
Number of shells                            ...    114
Maximum angular momentum                    ...      2
Integral batch strategy                     ... SHARK/LIBINT Hybrid
RI-J (if used) integral strategy            ... SPLIT-RIJ (Revised 2003 algorithm where possible)
Printlevel                                  ...      1
Contraction scheme used                     ... SEGMENTED contraction
Coulomb Range Separation                    ... NOT USED
Exchange Range Separation                   ... NOT USED
Finite Nucleus Model                        ... NOT USED
Auxiliary Coulomb fitting basis             ... AVAILABLE
   # of basis functions in Aux-J            ...   1771
   # of shells in Aux-J                     ...    675
   Maximum angular momentum in Aux-J        ...      3
Auxiliary J/K fitting basis                 ... AVAILABLE
   # of basis functions in Aux-JK           ...   1771
   # of shells in Aux-JK                    ...    675
   Maximum angular momentum in Aux-JK       ...      3
Auxiliary Correlation fitting basis         ... AVAILABLE
   # of basis functions in Aux-C            ...   1771
   # of shells in Aux-C                     ...    675
   Maximum angular momentum in Aux-C        ...      3
Auxiliary 'external' fitting basis          ... NOT available
Integral threshold                          ...     2.500000e-11
Primitive cut-off                           ...     2.500000e-12
Primitive pair pre-selection threshold      ...     2.500000e-12

Calculating pre-screening integrals         ... done (  0.0 sec) Dimension = 114
Organizing shell pair data                  ... done (  0.0 sec)
Shell pair information
Total number of shell pairs                 ...      6555
Shell pairs after pre-screening             ...      5474
Total number of primitive shell pairs       ...     36924
Primitive shell pairs kept                  ...     18115
          la=0 lb=0:   2093 shell pairs
          la=1 lb=0:   1788 shell pairs
          la=1 lb=1:    385 shell pairs
          la=2 lb=0:    779 shell pairs
          la=2 lb=1:    349 shell pairs
          la=2 lb=2:     80 shell pairs

Calculating one electron integrals          ... done (  0.0 sec)
Calculating RI/J V-Matrix + Cholesky decomp.... done (  0.5 sec)
Calculating RI/JK V-Matrix + Cholesky decomp... done (  0.2 sec)
Calculating RI/C V-Matrix + Cholesky decomp.... done (  0.2 sec)
Calculating Nuclear repulsion               ... done (  0.0 sec) ENN=    957.788331760970 Eh

SHARK setup successfully completed in   1.5 seconds

Maximum memory used throughout the entire GTOINT-calculation: 28.1 MB


           ************************************************************
           *        Program running with 4 parallel MPI-processes     *
           *              working on a common directory               *
           ************************************************************
-------------------------------------------------------------------------------
                                 ORCA SCF
-------------------------------------------------------------------------------

------------
SCF SETTINGS
------------
Hamiltonian:
 Density Functional     Method          .... DFT(GTOs)
 Exchange Functional    Exchange        .... B88
   X-Alpha parameter    XAlpha          ....  0.666667
   Becke's b parameter  XBeta           ....  0.004200
 Correlation Functional Correlation     .... LYP
 LDA part of GGA corr.  LDAOpt          .... VWN-5
 Gradients option       PostSCFGGA      .... off
 Hybrid DFT is turned on
   Fraction HF Exchange ScalHFX         ....  0.200000
   Scaling of DF-GGA-X  ScalDFX         ....  0.720000
   Scaling of DF-GGA-C  ScalDFC         ....  0.810000
   Scaling of DF-LDA-C  ScalLDAC        ....  1.000000
   Perturbative correction              ....  0.000000
   Density functional embedding theory  .... OFF
   NL short-range parameter             ....  4.800000
 RI-approximation to the Coulomb term is turned on
   Number of AuxJ basis functions       .... 1771
   RIJ-COSX (HFX calculated with COS-X)).... on


General Settings:
 Integral files         IntName         .... Nn_water
 Hartree-Fock type      HFTyp           .... RHF
 Total Charge           Charge          ....    0
 Multiplicity           Mult            ....    1
 Number of Electrons    NEL             ....  108
 Basis Dimension        Dim             ....  226
 Nuclear Repulsion      ENuc            ....    957.7883317610 Eh

Convergence Acceleration:
 DIIS                   CNVDIIS         .... on
   Start iteration      DIISMaxIt       ....    12
   Startup error        DIISStart       ....  0.200000
   # of expansion vecs  DIISMaxEq       ....     5
   Bias factor          DIISBfac        ....   1.050
   Max. coefficient     DIISMaxC        ....  10.000
 Trust-Rad. Augm. Hess. CNVTRAH         .... auto
   Auto Start mean grad. ratio tolernc. ....  1.125000
   Auto Start start iteration           ....    20
   Auto Start num. interpolation iter.  ....    10
   Max. Number of Micro iterations      ....    16
   Max. Number of Macro iterations      .... Maxiter - #DIIS iter
   Number of Davidson start vectors     ....     2
   Converg. threshold I  (grad. norm)   ....   1.000e-05
   Converg. threshold II (energy diff.) ....   1.000e-08
   Grad. Scal. Fac. for Micro threshold ....   0.100
   Minimum threshold for Micro iter.    ....   0.010
   NR start threshold (gradient norm)   ....   0.001
   Initial trust radius                 ....   0.400
   Minimum AH scaling param. (alpha)    ....   1.000
   Maximum AH scaling param. (alpha)    .... 1000.000
   Orbital update algorithm             .... Taylor
   White noise on init. David. guess    .... on
   Maximum white noise                  ....   0.010
   Quad. conv. algorithm                .... NR
 SOSCF                  CNVSOSCF        .... on
   Start iteration      SOSCFMaxIt      ....   150
   Startup grad/error   SOSCFStart      ....  0.003300
 Level Shifting         CNVShift        .... on
   Level shift para.    LevelShift      ....    0.2500
   Turn off err/grad.   ShiftErr        ....    0.0010
 Zerner damping         CNVZerner       .... off
 Static damping         CNVDamp         .... on
   Fraction old density DampFac         ....    0.7000
   Max. Damping (<1)    DampMax         ....    0.9800
   Min. Damping (>=0)   DampMin         ....    0.0000
   Turn off err/grad.   DampErr         ....    0.1000
 Fernandez-Rico         CNVRico         .... off

SCF Procedure:
 Maximum # iterations   MaxIter         ....   125
 SCF integral mode      SCFMode         .... Direct
   Integral package                     .... SHARK and LIBINT hybrid scheme
 Reset frequency        DirectResetFreq ....    20
 Integral Threshold     Thresh          ....  2.500e-11 Eh
 Primitive CutOff       TCut            ....  2.500e-12 Eh

Convergence Tolerance:
 Convergence Check Mode ConvCheckMode   .... Total+1el-Energy
 Convergence forced     ConvForced      .... 0
 Energy Change          TolE            ....  1.000e-08 Eh
 1-El. energy change                    ....  1.000e-05 Eh
 Orbital Gradient       TolG            ....  1.000e-05
 Orbital Rotation angle TolX            ....  1.000e-05
 DIIS Error             TolErr          ....  5.000e-07


Diagonalization of the overlap matrix:
Smallest eigenvalue                        ... 2.558e-03
Time for diagonalization                   ...    0.009 sec
Threshold for overlap eigenvalues          ... 1.000e-08
Number of eigenvalues below threshold      ... 0
Time for construction of square roots      ...    0.004 sec
Total time needed                          ...    0.014 sec

Time for model grid setup =    0.222 sec

------------------------------
INITIAL GUESS: MODEL POTENTIAL
------------------------------
Loading Hartree-Fock densities                     ... done
Calculating cut-offs                               ... done
Initializing the effective Hamiltonian             ... done
Setting up the integral package (SHARK)            ... done
Starting the Coulomb interaction                   ... done (   0.1 sec)
Reading the grid                                   ... done
Mapping shells                                     ... done
Starting the XC term evaluation                    ... done (   0.1 sec)
  promolecular density results
     # of electrons  =    107.990076536
     EX              =    -89.951838127
     EC              =     -3.689011291
     EX+EC           =    -93.640849418
Transforming the Hamiltonian                       ... done (   0.0 sec)
Diagonalizing the Hamiltonian                      ... done (   0.0 sec)
Back transforming the eigenvectors                 ... done (   0.0 sec)
Now organizing SCF variables                       ... done
                      ------------------
                      INITIAL GUESS DONE (   0.5 sec)
                      ------------------
-------------------
DFT GRID GENERATION
-------------------

General Integration Accuracy     IntAcc      ... 4.388
Radial Grid Type                 RadialGrid  ... OptM3 with GC (2021)
Angular Grid (max. ang.)         AngularGrid ... 4 (Lebedev-302)
Angular grid pruning method      GridPruning ... 4 (adaptive)
Weight generation scheme         WeightScheme... Becke
Basis function cutoff            BFCut       ... 1.0000e-11
Integration weight cutoff        WCut        ... 1.0000e-14
Angular grids for H and He will be reduced by one unit
Partially contracted basis set               ... off
Rotationally invariant grid construction     ... off

Total number of grid points                  ...   132075
Total number of batches                      ...     2076
Average number of points per batch           ...       63
Average number of grid points per atom       ...     4554
Time for grid setup =    1.017 sec

--------------------
COSX GRID GENERATION
--------------------

GRIDX 1
-------
General Integration Accuracy     IntAcc      ... 3.816
Radial Grid Type                 RadialGrid  ... OptM3 with GC (2021)
Angular Grid (max. ang.)         AngularGrid ... 1 (Lebedev-50)
Angular grid pruning method      GridPruning ... 4 (adaptive)
Weight generation scheme         WeightScheme... Becke
Basis function cutoff            BFCut       ... 1.0000e-11
Integration weight cutoff        WCut        ... 1.0000e-14
Angular grids for H and He will be reduced by one unit
Partially contracted basis set               ... on
Rotationally invariant grid construction     ... off

Total number of grid points                  ...    16837
Total number of batches                      ...      280
Average number of points per batch           ...       60
Average number of grid points per atom       ...      581
UseSFitting                                  ... on

GRIDX 2
-------
General Integration Accuracy     IntAcc      ... 4.020
Radial Grid Type                 RadialGrid  ... OptM3 with GC (2021)
Angular Grid (max. ang.)         AngularGrid ... 2 (Lebedev-110)
Angular grid pruning method      GridPruning ... 4 (adaptive)
Weight generation scheme         WeightScheme... Becke
Basis function cutoff            BFCut       ... 1.0000e-11
Integration weight cutoff        WCut        ... 1.0000e-14
Angular grids for H and He will be reduced by one unit
Partially contracted basis set               ... on
Rotationally invariant grid construction     ... off

Total number of grid points                  ...    36085
Total number of batches                      ...      577
Average number of points per batch           ...       62
Average number of grid points per atom       ...     1244
UseSFitting                                  ... on

GRIDX 3
-------
General Integration Accuracy     IntAcc      ... 4.338
Radial Grid Type                 RadialGrid  ... OptM3 with GC (2021)
Angular Grid (max. ang.)         AngularGrid ... 3 (Lebedev-194)
Angular grid pruning method      GridPruning ... 4 (adaptive)
Weight generation scheme         WeightScheme... Becke
Basis function cutoff            BFCut       ... 1.0000e-11
Integration weight cutoff        WCut        ... 1.0000e-14
Angular grids for H and He will be reduced by one unit
Partially contracted basis set               ... on
Rotationally invariant grid construction     ... off

Total number of grid points                  ...    78827
Total number of batches                      ...     1245
Average number of points per batch           ...       63
Average number of grid points per atom       ...     2718
UseSFitting                                  ... on

Time for X-Grid setup             =    1.761 sec


--------------------
CPCM SOLVATION MODEL
--------------------
CPCM parameters:
  Epsilon                                         ...      80.4000
  Refrac                                          ...       1.3300
  Rsolv                                           ...       1.3000
  Surface type                                    ... GAUSSIAN VDW
  Epsilon function type                           ...         CPCM
Radii:
 Radius for C  used is    3.8550 Bohr (=   2.0400 Ang.)
 Radius for H  used is    2.4944 Bohr (=   1.3200 Ang.)
 Radius for O  used is    3.4469 Bohr (=   1.8240 Ang.)
 Radius for N  used is    3.5149 Bohr (=   1.8600 Ang.)
Calculating surface                               ...        done! (  0.0s)
GEPOL surface points                              ...         1561
GEPOL Volume                                      ...    1645.3778
GEPOL Surface-area                                ...     898.9950
Calculating surface distance matrix               ...        done! (  0.0s)
Performing Cholesky decomposition & store         ...        done! (  0.1s)
Overall time for CPCM initialization              ...                 0.1s
--------------
SCF ITERATIONS
--------------
ITER       Energy         Delta-E        Max-DP      RMS-DP      [F,P]     Damp
               ***  Starting incremental Fock matrix formation  ***
  0   -702.9760581238   0.000000000000 0.09466153  0.00240389  0.2703922 0.7000
  1   -703.2015129096  -0.225454785802 0.05488939  0.00154080  0.1119314 0.7000
                               ***Turning on DIIS***
  2   -703.2838031326  -0.082290222996 0.06807396  0.00223272  0.0395246 0.0000
  3   -703.4212482705  -0.137445137922 0.03550122  0.00104760  0.0552689 0.0000
  4   -703.4473833028  -0.026135032252 0.00951076  0.00032483  0.0129627 0.0000
  5   -703.4493382775  -0.001954974689 0.00291942  0.00009892  0.0041175 0.0000
                      *** Initiating the SOSCF procedure ***
                           *** Shutting down DIIS ***
                      *** Re-Reading the Fockian *** 
                      *** Removing any level shift *** 
ITER      Energy       Delta-E        Grad      Rot      Max-DP    RMS-DP
  6   -703.44941724  -0.0000789637  0.000215  0.000215  0.000864  0.000030
               *** Restarting incremental Fock matrix formation ***
  7   -703.44944211  -0.0000248702  0.000067  0.000216  0.000456  0.000018
  8   -703.44944266  -0.0000005450  0.000084  0.000125  0.000254  0.000007
  9   -703.44944316  -0.0000005049  0.000035  0.000072  0.000134  0.000005
 10   -703.44944318  -0.0000000221  0.000031  0.000051  0.000075  0.000002
 11   -703.44944323  -0.0000000515  0.000010  0.000026  0.000036  0.000001
 12   -703.44944323   0.0000000011  0.000007  0.000009  0.000016  0.000000
                  ***Gradient check signals convergence***
              ***Rediagonalizing the Fockian in SOSCF/NRSCF***

               *****************************************************
               *                     SUCCESS                       *
               *           SCF CONVERGED AFTER  13 CYCLES          *
               *****************************************************

Old exchange energy                            =    -18.298081936 Eh
New exchange energy                            =    -18.298093529 Eh
Exchange energy change after final integration =     -0.000011593 Eh
Total energy after final integration           =   -703.449454831 Eh
Final COS-X integration done in                =     7.807 sec

----------------
TOTAL SCF ENERGY
----------------

Total Energy       :         -703.44945483 Eh          -19141.83282 eV

Components:
Nuclear Repulsion  :          957.78833176 Eh           26062.74551 eV
Electronic Energy  :        -1661.23778659 Eh          -45204.57833 eV
One Electron Energy:        -2860.87757171 Eh          -77848.43646 eV
Two Electron Energy:         1199.63978512 Eh           32643.85813 eV
Max COSX asymmetry :            0.00000421 Eh               0.00011 eV
CPCM Dielectric    :           -0.03351813 Eh              -0.91207 eV

Virial components:
Potential Energy   :        -1402.88127834 Eh          -38174.34033 eV
Kinetic Energy     :          699.43182351 Eh           19032.50751 eV
Virial Ratio       :            2.00574414


DFT components:
N(Alpha)           :       53.999964049010 electrons
N(Beta)            :       53.999964049010 electrons
N(Total)           :      107.999928098019 electrons
E(X)               :      -72.710264059811 Eh       
E(C)               :       -4.347586295458 Eh       
E(XC)              :      -77.057850355268 Eh       
DFET-embed. en.    :        0.000000000000 Eh       
CPCM Solvation Model Properties:
Surface-charge          :           -0.01740342
Charge-correction       :           -0.00012927 Eh              -0.00352 eV
Free-energy (cav+disp)  :  This term is not implemented in the current solvation scheme

---------------
SCF CONVERGENCE
---------------

  Last Energy change         ...   -3.2296e-09  Tolerance :   1.0000e-08
  Last MAX-Density change    ...    2.6645e-15  Tolerance :   1.0000e-07
  Last RMS-Density change    ...    4.1397e-17  Tolerance :   5.0000e-09
  Last Orbital Gradient      ...    1.5861e-06  Tolerance :   1.0000e-05
  Last Orbital Rotation      ...    4.9525e-06  Tolerance :   1.0000e-05

             **** THE GBW FILE WAS UPDATED (Nn_water.gbw) ****
             **** DENSITY Nn_water.scfp WAS UPDATED ****
             **** ENERGY FILE WAS UPDATED (Nn_water.en.tmp) ****
             **** THE GBW FILE WAS UPDATED (Nn_water.gbw) ****
             **** DENSITY Nn_water.scfp WAS UPDATED ****
----------------
ORBITAL ENERGIES
----------------

  NO   OCC          E(Eh)            E(eV) 
   0   2.0000     -19.116703      -520.1919 
   1   2.0000     -19.114635      -520.1357 
   2   2.0000     -19.108653      -519.9729 
   3   2.0000     -14.355776      -390.6405 
   4   2.0000     -14.354179      -390.5971 
   5   2.0000     -14.341548      -390.2534 
   6   2.0000     -10.287263      -279.9307 
   7   2.0000     -10.283644      -279.8322 
   8   2.0000     -10.280918      -279.7580 
   9   2.0000     -10.212966      -277.9089 
  10   2.0000     -10.209544      -277.8158 
  11   2.0000     -10.193956      -277.3916 
  12   2.0000     -10.192599      -277.3547 
  13   2.0000     -10.169759      -276.7332 
  14   2.0000      -1.044492       -28.4221 
  15   2.0000      -1.032426       -28.0937 
  16   2.0000      -1.028164       -27.9778 
  17   2.0000      -0.934183       -25.4204 
  18   2.0000      -0.928443       -25.2642 
  19   2.0000      -0.897657       -24.4265 
  20   2.0000      -0.760896       -20.7050 
  21   2.0000      -0.732464       -19.9314 
  22   2.0000      -0.720406       -19.6032 
  23   2.0000      -0.706545       -19.2261 
  24   2.0000      -0.663723       -18.0608 
  25   2.0000      -0.596290       -16.2259 
  26   2.0000      -0.553814       -15.0700 
  27   2.0000      -0.539780       -14.6882 
  28   2.0000      -0.515690       -14.0326 
  29   2.0000      -0.505460       -13.7543 
  30   2.0000      -0.498053       -13.5527 
  31   2.0000      -0.478276       -13.0146 
  32   2.0000      -0.473236       -12.8774 
  33   2.0000      -0.465508       -12.6671 
  34   2.0000      -0.456274       -12.4158 
  35   2.0000      -0.438146       -11.9226 
  36   2.0000      -0.429237       -11.6801 
  37   2.0000      -0.417090       -11.3496 
  38   2.0000      -0.409167       -11.1340 
  39   2.0000      -0.402900       -10.9635 
  40   2.0000      -0.399683       -10.8759 
  41   2.0000      -0.395158       -10.7528 
  42   2.0000      -0.392124       -10.6702 
  43   2.0000      -0.383660       -10.4399 
  44   2.0000      -0.375847       -10.2273 
  45   2.0000      -0.361382        -9.8337 
  46   2.0000      -0.358353        -9.7513 
  47   2.0000      -0.347547        -9.4572 
  48   2.0000      -0.271152        -7.3784 
  49   2.0000      -0.265015        -7.2114 
  50   2.0000      -0.259395        -7.0585 
  51   2.0000      -0.253243        -6.8911 
  52   2.0000      -0.239141        -6.5074 
  53   2.0000      -0.232795        -6.3347 
  54   0.0000       0.022278         0.6062 
  55   0.0000       0.027074         0.7367 
  56   0.0000       0.029077         0.7912 
  57   0.0000       0.094589         2.5739 
  58   0.0000       0.106382         2.8948 
  59   0.0000       0.115326         3.1382 
  60   0.0000       0.132394         3.6026 
  61   0.0000       0.137720         3.7476 
  62   0.0000       0.150184         4.0867 
  63   0.0000       0.156729         4.2648 
  64   0.0000       0.165891         4.5141 
  65   0.0000       0.168169         4.5761 
  66   0.0000       0.171926         4.6783 
  67   0.0000       0.179843         4.8938 
  68   0.0000       0.180697         4.9170 
  69   0.0000       0.191443         5.2094 
  70   0.0000       0.200903         5.4669 
  71   0.0000       0.211589         5.7576 
  72   0.0000       0.213183         5.8010 
  73   0.0000       0.214636         5.8405 
  74   0.0000       0.229064         6.2332 
  75   0.0000       0.250364         6.8127 
  76   0.0000       0.260474         7.0879 
  77   0.0000       0.275173         7.4878 
  78   0.0000       0.285906         7.7799 
  79   0.0000       0.340548         9.2668 
  80   0.0000       0.342167         9.3108 
  81   0.0000       0.354995         9.6599 
  82   0.0000       0.372348        10.1321 
  83   0.0000       0.383395        10.4327 
  84   0.0000       0.410529        11.1711 
  85   0.0000       0.495237        13.4761 
  86   0.0000       0.507100        13.7989 
  87   0.0000       0.518026        14.0962 
  88   0.0000       0.521178        14.1820 
  89   0.0000       0.529047        14.3961 
  90   0.0000       0.541372        14.7315 
  91   0.0000       0.552215        15.0265 
  92   0.0000       0.564945        15.3729 
  93   0.0000       0.569708        15.5026 
  94   0.0000       0.598899        16.2969 
  95   0.0000       0.609657        16.5896 
  96   0.0000       0.630500        17.1568 
  97   0.0000       0.635012        17.2796 
  98   0.0000       0.641468        17.4552 
  99   0.0000       0.660471        17.9723 
 100   0.0000       0.674238        18.3469 
 101   0.0000       0.682396        18.5690 
 102   0.0000       0.691241        18.8096 
 103   0.0000       0.709037        19.2939 
 104   0.0000       0.721240        19.6259 
 105   0.0000       0.729987        19.8640 
 106   0.0000       0.736128        20.0311 
 107   0.0000       0.743097        20.2207 
 108   0.0000       0.764554        20.8046 
 109   0.0000       0.781158        21.2564 
 110   0.0000       0.803362        21.8606 
 111   0.0000       0.820081        22.3155 
 112   0.0000       0.823038        22.3960 
 113   0.0000       0.833498        22.6806 
 114   0.0000       0.846038        23.0219 
 115   0.0000       0.859530        23.3890 
 116   0.0000       0.868348        23.6289 
 117   0.0000       0.871973        23.7276 
 118   0.0000       0.884464        24.0675 
 119   0.0000       0.891617        24.2621 
 120   0.0000       0.894603        24.3434 
 121   0.0000       0.905840        24.6492 
 122   0.0000       0.906475        24.6664 
 123   0.0000       0.921297        25.0698 
 124   0.0000       0.928863        25.2757 
 125   0.0000       0.937238        25.5036 
 126   0.0000       0.950214        25.8566 
 127   0.0000       0.957983        26.0680 
 128   0.0000       0.972485        26.4627 
 129   0.0000       0.985758        26.8238 
 130   0.0000       0.990939        26.9648 
 131   0.0000       1.001395        27.2494 
 132   0.0000       1.008745        27.4493 
 133   0.0000       1.015583        27.6354 
 134   0.0000       1.053243        28.6602 
 135   0.0000       1.065877        29.0040 
 136   0.0000       1.093831        29.7647 
 137   0.0000       1.117615        30.4118 
 138   0.0000       1.127781        30.6885 
 139   0.0000       1.131289        30.7839 
 140   0.0000       1.161359        31.6022 
 141   0.0000       1.186116        32.2759 
 142   0.0000       1.211669        32.9712 
 143   0.0000       1.268326        34.5129 
 144   0.0000       1.296554        35.2810 
 145   0.0000       1.322969        35.9998 
 146   0.0000       1.332363        36.2554 
 147   0.0000       1.345318        36.6080 
 148   0.0000       1.363182        37.0941 
 149   0.0000       1.397561        38.0296 
 150   0.0000       1.398467        38.0542 
 151   0.0000       1.414229        38.4831 
 152   0.0000       1.443719        39.2856 
 153   0.0000       1.461442        39.7679 
 154   0.0000       1.477181        40.1961 
 155   0.0000       1.542895        41.9843 
 156   0.0000       1.563582        42.5472 
 157   0.0000       1.580587        43.0100 
 158   0.0000       1.646319        44.7986 
 159   0.0000       1.676535        45.6208 
 160   0.0000       1.689300        45.9682 
 161   0.0000       1.720426        46.8152 
 162   0.0000       1.732441        47.1421 
 163   0.0000       1.734515        47.1985 
 164   0.0000       1.768799        48.1315 
 165   0.0000       1.778670        48.4001 
 166   0.0000       1.793674        48.8083 
 167   0.0000       1.804799        49.1111 
 168   0.0000       1.808575        49.2138 
 169   0.0000       1.827975        49.7417 
 170   0.0000       1.837011        49.9876 
 171   0.0000       1.859216        50.5918 
 172   0.0000       1.882035        51.2128 
 173   0.0000       1.905741        51.8579 
 174   0.0000       1.917344        52.1736 
 175   0.0000       1.932261        52.5795 
 176   0.0000       1.947178        52.9854 
 177   0.0000       1.956179        53.2303 
 178   0.0000       1.965760        53.4911 
 179   0.0000       1.972408        53.6719 
 180   0.0000       1.998660        54.3863 
 181   0.0000       2.018507        54.9264 
 182   0.0000       2.025149        55.1071 
 183   0.0000       2.050486        55.7966 
 184   0.0000       2.058897        56.0254 
 185   0.0000       2.074472        56.4492 
 186   0.0000       2.087421        56.8016 
 187   0.0000       2.101418        57.1825 
 188   0.0000       2.111893        57.4675 
 189   0.0000       2.126450        57.8636 
 190   0.0000       2.149734        58.4972 
 191   0.0000       2.184576        59.4453 
 192   0.0000       2.227637        60.6171 
 193   0.0000       2.235466        60.8301 
 194   0.0000       2.263030        61.5802 
 195   0.0000       2.274992        61.9057 
 196   0.0000       2.296531        62.4918 
 197   0.0000       2.302920        62.6656 
 198   0.0000       2.327569        63.3364 
 199   0.0000       2.341258        63.7089 
 200   0.0000       2.379419        64.7473 
 201   0.0000       2.412030        65.6347 
 202   0.0000       2.426685        66.0334 
 203   0.0000       2.447909        66.6110 
 204   0.0000       2.459966        66.9391 
 205   0.0000       2.485794        67.6419 
 206   0.0000       2.512040        68.3561 
 207   0.0000       2.543555        69.2137 
 208   0.0000       2.583789        70.3085 
 209   0.0000       2.597212        70.6737 
 210   0.0000       2.623980        71.4021 
 211   0.0000       2.633387        71.6581 
 212   0.0000       2.657862        72.3241 
 213   0.0000       2.676667        72.8358 
 214   0.0000       2.690284        73.2064 
 215   0.0000       2.720437        74.0269 
 216   0.0000       2.764410        75.2234 
 217   0.0000       2.849110        77.5282 
 218   0.0000       2.923111        79.5419 
 219   0.0000       2.968644        80.7809 
 220   0.0000       2.996779        81.5465 
 221   0.0000       3.011920        81.9585 
 222   0.0000       3.037881        82.6650 
 223   0.0000       3.083884        83.9167 
 224   0.0000       3.179583        86.5208 
 225   0.0000       3.204511        87.1992 

                    ********************************
                    * MULLIKEN POPULATION ANALYSIS *
                    ********************************

-----------------------
MULLIKEN ATOMIC CHARGES
-----------------------
   0 C :    0.523081
   1 H :    0.194647
   2 H :    0.176078
   3 H :    0.191199
   4 O :   -0.504917
   5 C :   -0.565815
   6 N :   -0.358563
   7 C :   -0.282681
   8 H :    0.212220
   9 H :    0.196229
  10 C :   -0.279075
  11 H :    0.214964
  12 H :    0.208319
  13 C :    0.540043
  14 O :   -0.522973
  15 N :   -0.739943
  16 H :    0.380590
  17 H :    0.369530
  18 C :    0.544306
  19 O :   -0.536166
  20 N :   -0.383829
  21 C :   -0.325521
  22 H :    0.190690
  23 H :    0.171870
  24 H :    0.191292
  25 C :   -0.333164
  26 H :    0.172223
  27 H :    0.170182
  28 H :    0.185184
Sum of atomic charges:    0.0000000

--------------------------------
MULLIKEN REDUCED ORBITAL CHARGES
--------------------------------
  0 C s       :     2.981534  s :     2.981534
      pz      :     0.788842  p :     2.384728
      px      :     0.828261
      py      :     0.767625
      dz2     :     0.008001  d :     0.110657
      dxz     :     0.008150
      dyz     :     0.026864
      dx2y2   :     0.030405
      dxy     :     0.037237
  1 H s       :     0.805353  s :     0.805353
  2 H s       :     0.823922  s :     0.823922
  3 H s       :     0.808801  s :     0.808801
  4 O s       :     3.838341  s :     3.838341
      pz      :     1.515012  p :     4.640038
      px      :     1.697579
      py      :     1.427447
      dz2     :     0.002760  d :     0.026538
      dxz     :     0.000998
      dyz     :     0.008437
      dx2y2   :     0.007323
      dxy     :     0.007021
  5 C s       :     3.326484  s :     3.326484
      pz      :     1.083493  p :     3.207722
      px      :     1.008954
      py      :     1.115275
      dz2     :     0.005187  d :     0.031609
      dxz     :     0.006069
      dyz     :     0.007554
      dx2y2   :     0.005998
      dxy     :     0.006801
  6 N s       :     3.529613  s :     3.529613
      pz      :     1.520886  p :     3.791696
      px      :     1.193551
      py      :     1.077259
      dz2     :     0.004671  d :     0.037254
      dxz     :     0.006016
      dyz     :     0.005906
      dx2y2   :     0.009142
      dxy     :     0.011518
  7 C s       :     3.235745  s :     3.235745
      pz      :     1.013187  p :     2.994737
      px      :     0.856467
      py      :     1.125083
      dz2     :     0.013899  d :     0.052199
      dxz     :     0.012642
      dyz     :     0.004548
      dx2y2   :     0.014266
      dxy     :     0.006845
  8 H s       :     0.787780  s :     0.787780
  9 H s       :     0.803771  s :     0.803771
 10 C s       :     3.239148  s :     3.239148
      pz      :     1.031500  p :     2.987358
      px      :     1.083175
      py      :     0.872683
      dz2     :     0.009203  d :     0.052568
      dxz     :     0.011162
      dyz     :     0.009250
      dx2y2   :     0.009488
      dxy     :     0.013465
 11 H s       :     0.785036  s :     0.785036
 12 H s       :     0.791681  s :     0.791681
 13 C s       :     2.990867  s :     2.990867
      pz      :     0.836985  p :     2.360160
      px      :     0.791203
      py      :     0.731971
      dz2     :     0.025692  d :     0.108929
      dxz     :     0.012935
      dyz     :     0.024647
      dx2y2   :     0.023146
      dxy     :     0.022510
 14 O s       :     3.855859  s :     3.855859
      pz      :     1.545204  p :     4.641633
      px      :     1.513189
      py      :     1.583240
      dz2     :     0.005618  d :     0.025482
      dxz     :     0.003812
      dyz     :     0.007056
      dx2y2   :     0.003895
      dxy     :     0.005102
 15 N s       :     3.601338  s :     3.601338
      pz      :     1.378249  p :     4.113832
      px      :     1.579872
      py      :     1.155712
      dz2     :     0.004791  d :     0.024772
      dxz     :     0.003584
      dyz     :     0.007026
      dx2y2   :     0.003164
      dxy     :     0.006208
 16 H s       :     0.619410  s :     0.619410
 17 H s       :     0.630470  s :     0.630470
 18 C s       :     2.976985  s :     2.976985
      pz      :     0.776722  p :     2.371106
      px      :     0.805146
      py      :     0.789238
      dz2     :     0.023039  d :     0.107603
      dxz     :     0.031669
      dyz     :     0.014595
      dx2y2   :     0.015680
      dxy     :     0.022620
 19 O s       :     3.862198  s :     3.862198
      pz      :     1.416639  p :     4.648918
      px      :     1.787163
      py      :     1.445115
      dz2     :     0.008296  d :     0.025050
      dxz     :     0.003975
      dyz     :     0.007183
      dx2y2   :     0.003239
      dxy     :     0.002357
 20 N s       :     3.539294  s :     3.539294
      pz      :     1.264679  p :     3.807024
      px      :     1.103976
      py      :     1.438369
      dz2     :     0.007731  d :     0.037512
      dxz     :     0.008890
      dyz     :     0.005515
      dx2y2   :     0.006670
      dxy     :     0.008706
 21 C s       :     3.239430  s :     3.239430
      pz      :     0.889795  p :     3.036728
      px      :     1.122633
      py      :     1.024300
      dz2     :     0.015207  d :     0.049362
      dxz     :     0.003787
      dyz     :     0.014611
      dx2y2   :     0.003270
      dxy     :     0.012487
 22 H s       :     0.809310  s :     0.809310
 23 H s       :     0.828130  s :     0.828130
 24 H s       :     0.808708  s :     0.808708
 25 C s       :     3.260060  s :     3.260060
      pz      :     1.088610  p :     3.025113
      px      :     0.894673
      py      :     1.041829
      dz2     :     0.006893  d :     0.047992
      dxz     :     0.008888
      dyz     :     0.010193
      dx2y2   :     0.006062
      dxy     :     0.015956
 26 H s       :     0.827777  s :     0.827777
 27 H s       :     0.829818  s :     0.829818
 28 H s       :     0.814816  s :     0.814816


                     *******************************
                     * LOEWDIN POPULATION ANALYSIS *
                     *******************************

----------------------
LOEWDIN ATOMIC CHARGES
----------------------
   0 C :    0.116890
   1 H :    0.155015
   2 H :    0.147211
   3 H :    0.154414
   4 O :   -0.302130
   5 C :   -0.399343
   6 N :   -0.067826
   7 C :   -0.197568
   8 H :    0.166397
   9 H :    0.150230
  10 C :   -0.200094
  11 H :    0.166853
  12 H :    0.161932
  13 C :    0.101160
  14 O :   -0.323188
  15 N :   -0.359315
  16 H :    0.277806
  17 H :    0.272863
  18 C :    0.108034
  19 O :   -0.335602
  20 N :   -0.076719
  21 C :   -0.281010
  22 H :    0.149621
  23 H :    0.134417
  24 H :    0.145178
  25 C :   -0.280765
  26 H :    0.135314
  27 H :    0.132299
  28 H :    0.147930

-------------------------------
LOEWDIN REDUCED ORBITAL CHARGES
-------------------------------
  0 C s       :     2.849319  s :     2.849319
      pz      :     0.822902  p :     2.771262
      px      :     0.965643
      py      :     0.982717
      dz2     :     0.018424  d :     0.262529
      dxz     :     0.016582
      dyz     :     0.059301
      dx2y2   :     0.075911
      dxy     :     0.092311
  1 H s       :     0.844985  s :     0.844985
  2 H s       :     0.852789  s :     0.852789
  3 H s       :     0.845586  s :     0.845586
  4 O s       :     3.545415  s :     3.545415
      pz      :     1.502763  p :     4.701876
      px      :     1.699280
      py      :     1.499833
      dz2     :     0.006497  d :     0.054838
      dxz     :     0.001853
      dyz     :     0.013463
      dx2y2   :     0.017637
      dxy     :     0.015388
  5 C s       :     2.986697  s :     2.986697
      pz      :     1.128995  p :     3.351011
      px      :     1.073020
      py      :     1.148996
      dz2     :     0.009740  d :     0.061635
      dxz     :     0.012643
      dyz     :     0.013392
      dx2y2   :     0.012405
      dxy     :     0.013455
  6 N s       :     3.089564  s :     3.089564
      pz      :     1.501322  p :     3.881208
      px      :     1.228984
      py      :     1.150901
      dz2     :     0.010869  d :     0.097054
      dxz     :     0.013181
      dyz     :     0.014219
      dx2y2   :     0.026012
      dxy     :     0.032772
  7 C s       :     2.925201  s :     2.925201
      pz      :     1.066976  p :     3.161465
      px      :     0.955301
      py      :     1.139187
      dz2     :     0.028172  d :     0.110903
      dxz     :     0.029092
      dyz     :     0.008574
      dx2y2   :     0.030522
      dxy     :     0.014543
  8 H s       :     0.833603  s :     0.833603
  9 H s       :     0.849770  s :     0.849770
 10 C s       :     2.926837  s :     2.926837
      pz      :     1.087523  p :     3.160407
      px      :     1.110999
      py      :     0.961885
      dz2     :     0.020220  d :     0.112850
      dxz     :     0.023883
      dyz     :     0.020590
      dx2y2   :     0.020295
      dxy     :     0.027862
 11 H s       :     0.833147  s :     0.833147
 12 H s       :     0.838068  s :     0.838068
 13 C s       :     2.858537  s :     2.858537
      pz      :     0.971084  p :     2.780843
      px      :     0.838768
      py      :     0.970992
      dz2     :     0.062082  d :     0.259459
      dxz     :     0.030112
      dyz     :     0.058407
      dx2y2   :     0.059566
      dxy     :     0.049292
 14 O s       :     3.560596  s :     3.560596
      pz      :     1.577335  p :     4.710408
      px      :     1.512588
      py      :     1.620485
      dz2     :     0.009985  d :     0.052184
      dxz     :     0.007422
      dyz     :     0.017642
      dx2y2   :     0.008251
      dxy     :     0.008885
 15 N s       :     3.186703  s :     3.186703
      pz      :     1.360620  p :     4.116910
      px      :     1.557502
      py      :     1.198788
      dz2     :     0.010322  d :     0.055702
      dxz     :     0.005143
      dyz     :     0.016884
      dx2y2   :     0.009979
      dxy     :     0.013374
 16 H s       :     0.722194  s :     0.722194
 17 H s       :     0.727137  s :     0.727137
 18 C s       :     2.851176  s :     2.851176
      pz      :     0.927836  p :     2.785282
      px      :     0.971788
      py      :     0.885658
      dz2     :     0.050053  d :     0.255508
      dxz     :     0.079449
      dyz     :     0.036133
      dx2y2   :     0.036264
      dxy     :     0.053610
 19 O s       :     3.563137  s :     3.563137
      pz      :     1.467433  p :     4.720747
      px      :     1.775686
      py      :     1.477629
      dz2     :     0.014392  d :     0.051718
      dxz     :     0.008018
      dyz     :     0.018514
      dx2y2   :     0.006078
      dxy     :     0.004715
 20 N s       :     3.090249  s :     3.090249
      pz      :     1.293548  p :     3.889481
      px      :     1.171440
      py      :     1.424492
      dz2     :     0.019703  d :     0.096990
      dxz     :     0.024692
      dyz     :     0.012574
      dx2y2   :     0.018997
      dxy     :     0.021024
 21 C s       :     2.946310  s :     2.946310
      pz      :     0.990449  p :     3.236150
      px      :     1.158346
      py      :     1.087355
      dz2     :     0.031765  d :     0.098550
      dxz     :     0.007371
      dyz     :     0.030085
      dx2y2   :     0.005999
      dxy     :     0.023330
 22 H s       :     0.850379  s :     0.850379
 23 H s       :     0.865583  s :     0.865583
 24 H s       :     0.854822  s :     0.854822
 25 C s       :     2.962417  s :     2.962417
      pz      :     1.132619  p :     3.222907
      px      :     0.988288
      py      :     1.102001
      dz2     :     0.013017  d :     0.095441
      dxz     :     0.018238
      dyz     :     0.019106
      dx2y2   :     0.012536
      dxy     :     0.032545
 26 H s       :     0.864686  s :     0.864686
 27 H s       :     0.867701  s :     0.867701
 28 H s       :     0.852070  s :     0.852070


                      *****************************
                      * MAYER POPULATION ANALYSIS *
                      *****************************

  NA   - Mulliken gross atomic population
  ZA   - Total nuclear charge
  QA   - Mulliken gross atomic charge
  VA   - Mayer's total valence
  BVA  - Mayer's bonded valence
  FA   - Mayer's free valence

  ATOM       NA         ZA         QA         VA         BVA        FA
  0 C      5.4769     6.0000     0.5231     3.9932     3.9932     0.0000
  1 H      0.8054     1.0000     0.1946     0.9241     0.9241     0.0000
  2 H      0.8239     1.0000     0.1761     0.9400     0.9400    -0.0000
  3 H      0.8088     1.0000     0.1912     0.9339     0.9339    -0.0000
  4 O      8.5049     8.0000    -0.5049     2.0605     2.0605    -0.0000
  5 C      6.5658     6.0000    -0.5658     3.7913     3.7913     0.0000
  6 N      7.3586     7.0000    -0.3586     3.1235     3.1235     0.0000
  7 C      6.2827     6.0000    -0.2827     3.7431     3.7431    -0.0000
  8 H      0.7878     1.0000     0.2122     0.9484     0.9484     0.0000
[...]
      2      -0.000005   0.000061  -0.000006
      3      -0.000017   0.000020  -0.000000
      4       0.000035  -0.000058  -0.000003
      5      -0.000049   0.000081  -0.000006
      6      -0.000119   0.000056  -0.000010
      7       0.000236  -0.000286   0.000010
      8       0.000103  -0.000150   0.000002
      9       0.000045  -0.000362  -0.000014
     10       0.000028   0.000033  -0.000013
     11       0.000049   0.000130   0.000003
     12       0.000002  -0.000015  -0.000004
     13       0.000015  -0.000057   0.000012
     14       0.000003  -0.000010   0.000005
     15       0.000003   0.000015  -0.000003
     16      -0.000024   0.000015   0.000001
     17      -0.000005  -0.000007   0.000002
     18      -0.000017  -0.000007  -0.000083
     19       0.000007  -0.000011  -0.000002
     20       0.000030  -0.000013  -0.000001
     21      -0.000058   0.000032  -0.000005
     22      -0.000060   0.000004  -0.000002
     23      -0.000181  -0.000013   0.000000
     24      -0.000189  -0.000129   0.000030
     25      -0.001259  -0.000211   0.000045
     26       0.000421   0.000081  -0.000003
     27      -0.000260   0.000077   0.000008
     28       0.001397   0.000014  -0.000003
     29       0.002144  -0.000092   0.000039
     30       0.000017  -0.000310  -0.000108
     31       0.000009   0.000334  -0.000190
     32      -0.000017  -0.000490  -0.000433
     33      -0.000185  -0.001622  -0.000610
     34      -0.000070  -0.001175  -0.000520
     35       0.000247   0.002178   0.000836
     36      -0.000068   0.002688  -0.001066
     37       0.000022  -0.003870   0.000581
     38      -0.000046  -0.000403  -0.000588
     39       0.000005  -0.000315   0.000648
     40       0.000001  -0.001408   0.000007
     41       0.000002  -0.000734   0.000830
     42      -0.000001   0.000442  -0.000261
     43      -0.000001  -0.001074   0.000587
     44      -0.000001   0.000376  -0.000283
     45      -0.000000   0.012023   0.054842
     46      -0.000001   0.050944  -0.027210
     47      -0.000003   0.014243   0.061737
     48       0.000008   0.306188  -0.331233
     49      -0.000006  -0.491111   0.541837
     50       0.000007   0.343906  -0.374276
     51      -0.000003  -0.473630  -0.430641
     52      -0.000008  -0.181790  -0.171052
     53      -0.000008  -0.535197  -0.484087
     54      -0.000062   0.000032  -0.000005
     55       0.000423   0.000000   0.000001
     56      -0.001100   0.000003  -0.000002
     57       0.000790  -0.000016   0.000003
     58      -0.000177  -0.000002   0.000000
     59       0.000395  -0.000004   0.000001
     60       0.000119  -0.000015   0.000003
     61       0.000028   0.000001  -0.000001
     62      -0.000221   0.000001  -0.000001
     63      -0.006857   0.000006  -0.000001
     64       0.003248   0.000000  -0.000001
     65      -0.001517  -0.000003  -0.000000
     66       0.067040  -0.000018   0.000002
     67      -0.040139   0.000022  -0.000004
     68       0.030612  -0.000023   0.000003
     69       0.001861  -0.000012   0.000002
     70      -0.012369   0.000026  -0.000005
     71      -0.008248   0.000032  -0.000007
     72       0.014770  -0.000043   0.000006
     73       0.011972  -0.000021   0.000001
     74       0.000728   0.000008  -0.000002
     75       0.036497   0.000004  -0.000000
     76       0.022725  -0.000000  -0.000001
     77      -0.078978   0.000006  -0.000002
     78      -0.130461  -0.000037   0.000005
     79      -0.165186  -0.000016  -0.000000
     80      -0.013772  -0.000004  -0.000000
     81      -0.066232  -0.000029   0.000006
     82       0.139022   0.000029  -0.000006
     83       0.071577   0.000009  -0.000002
     84      -0.252157   0.000016  -0.000002
     85      -0.244726   0.000006  -0.000002
     86       0.887360  -0.000016   0.000003


-----------
IR SPECTRUM
-----------

 Mode   freq       eps      Int      T**2         TX        TY        TZ
       cm**-1   L/(mol*cm) km/mol    a.u.
----------------------------------------------------------------------------
  6:     12.96   0.000128    0.65  0.003093  (-0.048949 -0.019673 -0.017614)
  7:     28.26   0.003684   18.62  0.040676  ( 0.148690 -0.057344 -0.123607)
  8:     33.61   0.002214   11.19  0.020554  (-0.103329 -0.096215 -0.024900)
  9:     47.47   0.001805    9.12  0.011867  (-0.103741  0.028553  0.017014)
 10:     63.83   0.000827    4.18  0.004041  (-0.025902 -0.031608 -0.048696)
 11:     70.33   0.000352    1.78  0.001563  ( 0.021081 -0.032322 -0.008618)
 12:     96.91   0.001635    8.26  0.005266  (-0.031497 -0.001275 -0.065360)
 13:    104.22   0.000621    3.14  0.001860  ( 0.005468  0.017350 -0.039105)
 14:    135.60   0.000972    4.91  0.002237  (-0.036590 -0.029615 -0.004626)
 15:    192.37   0.002111   10.67  0.003425  ( 0.010467 -0.032025 -0.047855)
 16:    199.43   0.001067    5.39  0.001669  ( 0.015711 -0.012930 -0.035425)
 17:    208.56   0.066840  337.78  0.100013  (-0.240524  0.009783  0.205099)
 18:    227.41   0.001540    7.78  0.002113  ( 0.014816  0.043238  0.004941)
 19:    245.86   0.000260    1.32  0.000330  ( 0.005893 -0.006602 -0.015876)
 20:    305.01   0.002660   13.44  0.002722  (-0.042919  0.029549  0.002522)
 21:    357.10   0.001193    6.03  0.001043  ( 0.026710 -0.011272 -0.014224)
 22:    392.66   0.003258   16.46  0.002589  (-0.047060 -0.007674 -0.017763)
 23:    412.86   0.001080    5.46  0.000817  (-0.013022  0.016409  0.019437)
 24:    423.62   0.002213   11.19  0.001630  (-0.037118  0.013339  0.008647)
 25:    445.95   0.000716    3.62  0.000501  (-0.013049 -0.002900 -0.017955)
 26:    492.20   0.000183    0.93  0.000116  (-0.007939  0.002516 -0.006841)
 27:    533.31   0.007750   39.16  0.004535  ( 0.059158  0.002143 -0.032100)
 28:    558.57   0.005804   29.33  0.003242  (-0.027812 -0.048176 -0.012159)
 29:    588.74   0.003841   19.41  0.002036  ( 0.001463 -0.019094 -0.040856)
 30:    592.70   0.002781   14.05  0.001464  ( 0.006586  0.031612  0.020528)
 31:    621.23   0.001145    5.79  0.000575  ( 0.023214 -0.005995  0.000603)
 32:    644.79   0.001904    9.62  0.000921  ( 0.003105 -0.008134  0.029080)
 33:    704.04   0.001585    8.01  0.000703  (-0.021376  0.008851 -0.012935)
 34:    808.16   0.002684   13.57  0.001037  (-0.007456  0.009490 -0.029847)
 35:    823.67   0.001499    7.58  0.000568  (-0.005080  0.006326  0.022411)
 36:    850.84   0.001431    7.23  0.000525  ( 0.006306 -0.013152  0.017664)
 37:    965.69   0.000266    1.35  0.000086  (-0.001793  0.005835  0.006985)
 38:    978.44   0.002427   12.27  0.000774  (-0.005553 -0.026923  0.004292)
 39:    995.79   0.012094   61.12  0.003790  (-0.044388  0.020500  0.037409)
 40:   1015.72   0.008790   44.42  0.002701  ( 0.001251 -0.050050 -0.013926)
 41:   1061.07   0.002834   14.32  0.000833  ( 0.015921  0.004035  0.023740)
 42:   1087.65   0.002255   11.40  0.000647  ( 0.002180  0.003860 -0.025046)
 43:   1105.37   0.001472    7.44  0.000416  ( 0.019877  0.001841 -0.004137)
 44:   1123.70   0.001237    6.25  0.000343  ( 0.017276 -0.005955 -0.003081)
 45:   1133.38   0.000629    3.18  0.000173  ( 0.004126  0.002721 -0.012197)
 46:   1167.38   0.043750  221.10  0.011695  (-0.102583 -0.002785  0.034120)
 47:   1182.39   0.002003   10.12  0.000529  ( 0.020918 -0.009428  0.001482)
 48:   1237.40   0.002797   14.13  0.000705  (-0.023125 -0.008360  0.010031)
 49:   1275.71   0.042882  216.71  0.010490  ( 0.055410 -0.075403 -0.041643)
 50:   1288.41   0.013037   65.88  0.003158  (-0.039909 -0.023387 -0.031904)
 51:   1324.41   0.018909   95.56  0.004455  (-0.008977 -0.058908 -0.030078)
 52:   1354.98   0.016874   85.28  0.003886  (-0.054787 -0.029692  0.001747)
 53:   1384.58   0.009561   48.32  0.002155  (-0.034868  0.004400  0.030328)
 54:   1405.92   0.004078   20.61  0.000905  (-0.026861 -0.008320  0.010698)
 55:   1425.97   0.012683   64.09  0.002776  ( 0.028768  0.024595  0.036647)
 56:   1442.00   0.012442   62.88  0.002693  ( 0.042806  0.001604 -0.029285)
 57:   1452.78   0.017609   88.99  0.003783  ( 0.053193 -0.030585  0.004199)
 58:   1468.69   0.013501   68.23  0.002869  (-0.011237 -0.052083 -0.005462)
 59:   1482.58   0.013314   67.28  0.002802  ( 0.030171 -0.001280 -0.043480)
 60:   1488.85   0.023773  120.14  0.004983  ( 0.029078 -0.037038 -0.052589)
 61:   1492.52   0.004562   23.06  0.000954  ( 0.016235 -0.024964  0.008193)
 62:   1502.37   0.004913   24.83  0.001020  ( 0.021436 -0.020085  0.012553)
 63:   1504.71   0.002229   11.26  0.000462  ( 0.016333  0.001076  0.013938)
 64:   1511.55   0.003956   19.99  0.000817  ( 0.017895  0.019682  0.010442)
 65:   1518.94   0.008296   41.92  0.001704  ( 0.027631 -0.016403 -0.025920)
 66:   1521.13   0.011803   59.65  0.002421  (-0.029904  0.036046  0.015097)
 67:   1554.54   0.017523   88.55  0.003518  ( 0.058501 -0.007461 -0.006283)
 68:   1635.67   0.032954  166.53  0.006287  ( 0.024603  0.068828  0.030734)
 69:   1715.46   0.126974  641.67  0.023098  ( 0.067447  0.119395 -0.065528)
 70:   1725.12   0.088033  444.88  0.015925  (-0.033831  0.062662  0.104181)
 71:   1758.58   0.116185  587.15  0.020617  ( 0.042815 -0.133893  0.029273)
 72:   3039.09   0.007468   37.74  0.000767  (-0.008905  0.000370 -0.026218)
 73:   3044.27   0.019116   96.61  0.001960  ( 0.037804 -0.011853 -0.019747)
 74:   3062.83   0.000614    3.10  0.000063  ( 0.004470  0.003263 -0.005654)
 75:   3078.01   0.004492   22.70  0.000455  (-0.013478  0.001956  0.016429)
 76:   3093.68   0.004995   25.25  0.000504  (-0.001788  0.022296  0.001891)
 77:   3095.67   0.010600   53.57  0.001069  ( 0.010299  0.029939  0.008129)
 78:   3106.27   0.004814   24.33  0.000484  ( 0.011638  0.018645 -0.000705)
 79:   3131.91   0.001229    6.21  0.000122  ( 0.007787 -0.004224  0.006629)
 80:   3137.50   0.001424    7.20  0.000142  (-0.011101  0.003463  0.002528)
 81:   3144.61   0.001170    5.91  0.000116  (-0.010621 -0.000517  0.001730)
 82:   3171.64   0.002920   14.75  0.000287  (-0.003689  0.015169  0.006599)
 83:   3186.90   0.002825   14.28  0.000277  (-0.014618  0.006868 -0.003976)
 84:   3192.44   0.001116    5.64  0.000109  (-0.002930  0.003713 -0.009311)
 85:   3571.99   0.018709   94.55  0.001635  (-0.006751 -0.038823 -0.009040)
 86:   3692.21   0.017112   86.48  0.001446  (-0.023732  0.012825 -0.026806)

* The epsilon (eps) is given for a Dirac delta lineshape.
** The dipole moment derivative (T) already includes vibrational overlap.

The first frequency considered to be a vibration is 6
The total number of vibrations considered is 81


--------------------------
THERMOCHEMISTRY AT 298.15K
--------------------------

Temperature         ... 298.15 K
Pressure            ... 1.00 atm
Total Mass          ... 201.23 AMU

Throughout the following assumptions are being made:
  (1) The electronic state is orbitally nondegenerate
  (2) There are no thermally accessible electronically excited states
  (3) Hindered rotations indicated by low frequency modes are not
      treated as such but are treated as vibrations and this may
      cause some error
  (4) All equations used are the standard statistical mechanics
      equations for an ideal gas
  (5) All vibrations are strictly harmonic

freq.      12.96  E(vib)   ...       0.57 
freq.      28.26  E(vib)   ...       0.55 
freq.      33.61  E(vib)   ...       0.55 
freq.      47.47  E(vib)   ...       0.53 
freq.      63.83  E(vib)   ...       0.51 
freq.      70.33  E(vib)   ...       0.50 
freq.      96.91  E(vib)   ...       0.46 
freq.     104.22  E(vib)   ...       0.46 
freq.     135.60  E(vib)   ...       0.42 
freq.     192.37  E(vib)   ...       0.36 
freq.     199.43  E(vib)   ...       0.35 
freq.     208.56  E(vib)   ...       0.34 
freq.     227.41  E(vib)   ...       0.33 
freq.     245.86  E(vib)   ...       0.31 
freq.     305.01  E(vib)   ...       0.26 
freq.     357.10  E(vib)   ...       0.22 
freq.     392.66  E(vib)   ...       0.20 
freq.     412.86  E(vib)   ...       0.19 
freq.     423.62  E(vib)   ...       0.18 
freq.     445.95  E(vib)   ...       0.17 
freq.     492.20  E(vib)   ...       0.14 
freq.     533.31  E(vib)   ...       0.13 
freq.     558.57  E(vib)   ...       0.12 
freq.     588.74  E(vib)   ...       0.10 
freq.     592.70  E(vib)   ...       0.10 
freq.     621.23  E(vib)   ...       0.09 
freq.     644.79  E(vib)   ...       0.09 
freq.     704.04  E(vib)   ...       0.07 
freq.     808.16  E(vib)   ...       0.05 
freq.     823.67  E(vib)   ...       0.05 
freq.     850.84  E(vib)   ...       0.04 
freq.     965.69  E(vib)   ...       0.03 
freq.     978.44  E(vib)   ...       0.03 
freq.     995.79  E(vib)   ...       0.02 
freq.    1015.72  E(vib)   ...       0.02 
freq.    1061.07  E(vib)   ...       0.02 
freq.    1087.65  E(vib)   ...       0.02 
freq.    1105.37  E(vib)   ...       0.02 
freq.    1123.70  E(vib)   ...       0.01 
freq.    1133.38  E(vib)   ...       0.01 
freq.    1167.38  E(vib)   ...       0.01 
freq.    1182.39  E(vib)   ...       0.01 
freq.    1237.40  E(vib)   ...       0.01 
freq.    1275.71  E(vib)   ...       0.01 
freq.    1288.41  E(vib)   ...       0.01 
freq.    1324.41  E(vib)   ...       0.01 
freq.    1354.98  E(vib)   ...       0.01 
freq.    1384.58  E(vib)   ...       0.00 
freq.    1405.92  E(vib)   ...       0.00 
freq.    1425.97  E(vib)   ...       0.00 
freq.    1442.00  E(vib)   ...       0.00 
freq.    1452.78  E(vib)   ...       0.00 
freq.    1468.69  E(vib)   ...       0.00 
freq.    1482.58  E(vib)   ...       0.00 
freq.    1488.85  E(vib)   ...       0.00 
freq.    1492.52  E(vib)   ...       0.00 
freq.    1502.37  E(vib)   ...       0.00 
freq.    1504.71  E(vib)   ...       0.00 
freq.    1511.55  E(vib)   ...       0.00 
freq.    1518.94  E(vib)   ...       0.00 
freq.    1521.13  E(vib)   ...       0.00 
freq.    1554.54  E(vib)   ...       0.00 
freq.    1635.67  E(vib)   ...       0.00 
freq.    1715.46  E(vib)   ...       0.00 
freq.    1725.12  E(vib)   ...       0.00 
freq.    1758.58  E(vib)   ...       0.00 
freq.    3039.09  E(vib)   ...       0.00 
freq.    3044.27  E(vib)   ...       0.00 
freq.    3062.83  E(vib)   ...       0.00 
freq.    3078.01  E(vib)   ...       0.00 
freq.    3093.68  E(vib)   ...       0.00 
freq.    3095.67  E(vib)   ...       0.00 
freq.    3106.27  E(vib)   ...       0.00 
freq.    3131.91  E(vib)   ...       0.00 
freq.    3137.50  E(vib)   ...       0.00 
freq.    3144.61  E(vib)   ...       0.00 
freq.    3171.64  E(vib)   ...       0.00 
freq.    3186.90  E(vib)   ...       0.00 
freq.    3192.44  E(vib)   ...       0.00 
freq.    3571.99  E(vib)   ...       0.00 
freq.    3692.21  E(vib)   ...       0.00 

------------
INNER ENERGY
------------

The inner energy is: U= E(el) + E(ZPE) + E(vib) + E(rot) + E(trans)
    E(el)   - is the total energy from the electronic structure calculation
              = E(kin-el) + E(nuc-el) + E(el-el) + E(nuc-nuc)
    E(ZPE)  - the the zero temperature vibrational energy from the frequency calculation
    E(vib)  - the the finite temperature correction to E(ZPE) due to population
              of excited vibrational states
    E(rot)  - is the rotational thermal energy
    E(trans)- is the translational thermal energy

Summary of contributions to the inner energy U:
Electronic energy                ...   -703.50600282 Eh
Zero point energy                ...      0.24207964 Eh     151.91 kcal/mol
Thermal vibrational correction   ...      0.01388886 Eh       8.72 kcal/mol
Thermal rotational correction    ...      0.00141627 Eh       0.89 kcal/mol
Thermal translational correction ...      0.00141627 Eh       0.89 kcal/mol
-----------------------------------------------------------------------
Total thermal energy                   -703.24720177 Eh


Summary of corrections to the electronic energy:
(perhaps to be used in another calculation)
Total thermal correction                  0.01672141 Eh      10.49 kcal/mol
Non-thermal (ZPE) correction              0.24207964 Eh     151.91 kcal/mol
-----------------------------------------------------------------------
Total correction                          0.25880105 Eh     162.40 kcal/mol


--------
ENTHALPY
--------

The enthalpy is H = U + kB*T
                kB is Boltzmann's constant
Total free energy                 ...   -703.24720177 Eh 
Thermal Enthalpy correction       ...      0.00094421 Eh       0.59 kcal/mol
-----------------------------------------------------------------------
Total Enthalpy                    ...   -703.24625756 Eh


Note: Only C1 symmetry has been detected, increase convergence thresholds 
      if your molecule has a higher symmetry. Symmetry factor of 1.0 is   
      used for the rotational entropy correction. 
 

Note: Rotational entropy computed according to Herzberg 
Infrared and Raman Spectra, Chapter V,1, Van Nostrand Reinhold, 1945 
Point Group:  C1, Symmetry Number:   1  
Rotational constants in cm-1:     0.031641     0.013793     0.011501 

Vibrational entropy computed according to the QRRHO of S. Grimme
Chem.Eur.J. 2012 18 9955


-------
ENTROPY
-------

The entropy contributions are T*S = T*(S(el)+S(vib)+S(rot)+S(trans))
     S(el)   - electronic entropy
     S(vib)  - vibrational entropy
     S(rot)  - rotational entropy
     S(trans)- translational entropy
The entropies will be listed as multiplied by the temperature to get
units of energy

Electronic entropy                ...      0.00000000 Eh      0.00 kcal/mol
Vibrational entropy               ...      0.02579701 Eh     16.19 kcal/mol
Rotational entropy                ...      0.01527136 Eh      9.58 kcal/mol
Translational entropy             ...      0.01986158 Eh     12.46 kcal/mol
-----------------------------------------------------------------------
Final entropy term                ...      0.06092995 Eh     38.23 kcal/mol

In case the symmetry of your molecule has not been determined correctly
or in case you have a reason to use a different symmetry number we print 
out the resulting rotational entropy values for sn=1,12 :
 --------------------------------------------------------
|  sn= 1 | S(rot)=       0.01527136 Eh      9.58 kcal/mol|
|  sn= 2 | S(rot)=       0.01461690 Eh      9.17 kcal/mol|
|  sn= 3 | S(rot)=       0.01423407 Eh      8.93 kcal/mol|
|  sn= 4 | S(rot)=       0.01396245 Eh      8.76 kcal/mol|
|  sn= 5 | S(rot)=       0.01375176 Eh      8.63 kcal/mol|
|  sn= 6 | S(rot)=       0.01357961 Eh      8.52 kcal/mol|
|  sn= 7 | S(rot)=       0.01343407 Eh      8.43 kcal/mol|
|  sn= 8 | S(rot)=       0.01330799 Eh      8.35 kcal/mol|
|  sn= 9 | S(rot)=       0.01319678 Eh      8.28 kcal/mol|
|  sn=10 | S(rot)=       0.01309730 Eh      8.22 kcal/mol|
|  sn=11 | S(rot)=       0.01300731 Eh      8.16 kcal/mol|
|  sn=12 | S(rot)=       0.01292516 Eh      8.11 kcal/mol|
 --------------------------------------------------------


-------------------
GIBBS FREE ENERGY
-------------------

The Gibbs free energy is G = H - T*S

Total enthalpy                    ...   -703.24625756 Eh 
Total entropy correction          ...     -0.06092995 Eh    -38.23 kcal/mol
-----------------------------------------------------------------------
Final Gibbs free energy         ...   -703.30718751 Eh

For completeness - the Gibbs free energy minus the electronic energy
G-E(el)                           ...      0.19881531 Eh    124.76 kcal/mol


Timings for individual modules:

Sum of individual times         ...     1553.928 sec (=  25.899 min)
GTO integral calculation        ...       20.971 sec (=   0.350 min)   1.3 %
SCF iterations                  ...      864.779 sec (=  14.413 min)  55.7 %
SCF Gradient evaluation         ...      234.509 sec (=   3.908 min)  15.1 %
Geometry relaxation             ...        1.357 sec (=   0.023 min)   0.1 %
Analytical frequency calculation...      432.312 sec (=   7.205 min)  27.8 %
                             ****ORCA TERMINATED NORMALLY****
TOTAL RUN TIME: 0 days 0 hours 26 minutes 0 seconds 574 msec
