
                                 *****************
                                 * O   R   C   A *
                                 *****************

                                            #,                                       
                                            ###                                      
                                            ####                                     
                                            #####                                    
                                            ######                                   
                                           ########,                                 
                                     ,,################,,,,,                         
                               ,,#################################,,                 
                          ,,##########################################,,             
                       ,#########################################, ''#####,          
                    ,#############################################,,   '####,        
                  ,##################################################,,,,####,       
                ,###########''''           ''''###############################       
              ,#####''   ,,,,##########,,,,          '''####'''          '####       
            ,##' ,,,,###########################,,,                        '##       
           ' ,,###''''                  '''############,,,                           
         ,,##''                                '''############,,,,        ,,,,,,###''
      ,#''                                            '''#######################'''  
     '                                                          ''''####''''         
             ,#######,   #######,   ,#######,      ##                                
            ,#'     '#,  ##    ##  ,#'     '#,    #''#        ######   ,####,        
            ##       ##  ##   ,#'  ##            #'  '#       #        #'  '#        
            ##       ##  #######   ##           ,######,      #####,   #    #        
            '#,     ,#'  ##    ##  '#,     ,#' ,#      #,         ##   #,  ,#        
             '#######'   ##     ##  '#######'  #'      '#     #####' # '####'        



                  #######################################################
                  #                        -***-                        #
                  #          Department of theory and spectroscopy      #
                  #    Directorship and core code : Frank Neese         #
                  #        Max Planck Institute fuer Kohlenforschung    #
                  #                Kaiser Wilhelm Platz 1               #
                  #                 D-45470 Muelheim/Ruhr               #
                  #                      Germany                        #
                  #                                                     #
                  #                  All rights reserved                #
                  #                        -***-                        #
                  #######################################################


                         Program Version 5.0.4 -  RELEASE  -


 With contributions from (in alphabetic order):
   Daniel Aravena         : Magnetic Suceptibility
   Michael Atanasov       : Ab Initio Ligand Field Theory (pilot matlab implementation)
   Alexander A. Auer      : GIAO ZORA, VPT2 properties, NMR spectrum
   Ute Becker             : Parallelization
   Giovanni Bistoni       : ED, misc. LED, open-shell LED, HFLD
   Martin Brehm           : Molecular dynamics
   Dmytro Bykov           : SCF Hessian
   Vijay G. Chilkuri      : MRCI spin determinant printing, contributions to CSF-ICE
   Dipayan Datta          : RHF DLPNO-CCSD density
   Achintya Kumar Dutta   : EOM-CC, STEOM-CC
   Dmitry Ganyushin       : Spin-Orbit,Spin-Spin,Magnetic field MRCI
   Miquel Garcia          : C-PCM and meta-GGA Hessian, CC/C-PCM, Gaussian charge scheme
   Yang Guo               : DLPNO-NEVPT2, F12-NEVPT2, CIM, IAO-localization
   Andreas Hansen         : Spin unrestricted coupled pair/coupled cluster methods
   Benjamin Helmich-Paris : MC-RPA, TRAH-SCF, COSX integrals
   Lee Huntington         : MR-EOM, pCC
   Robert Izsak           : Overlap fitted RIJCOSX, COSX-SCS-MP3, EOM
   Marcus Kettner         : VPT2
   Christian Kollmar      : KDIIS, OOCD, Brueckner-CCSD(T), CCSD density, CASPT2, CASPT2-K
   Simone Kossmann        : Meta GGA functionals, TD-DFT gradient, OOMP2, MP2 Hessian
   Martin Krupicka        : Initial AUTO-CI
   Lucas Lang             : DCDCAS
   Marvin Lechner         : AUTO-CI (C++ implementation), FIC-MRCC
   Dagmar Lenk            : GEPOL surface, SMD
   Dimitrios Liakos       : Extrapolation schemes; Compound Job, initial MDCI parallelization
   Dimitrios Manganas     : Further ROCIS development; embedding schemes
   Dimitrios Pantazis     : SARC Basis sets
   Anastasios Papadopoulos: AUTO-CI, single reference methods and gradients
   Taras Petrenko         : DFT Hessian,TD-DFT gradient, ASA, ECA, R-Raman, ABS, FL, XAS/XES, NRVS
   Peter Pinski           : DLPNO-MP2, DLPNO-MP2 Gradient
   Christoph Reimann      : Effective Core Potentials
   Marius Retegan         : Local ZFS, SOC
   Christoph Riplinger    : Optimizer, TS searches, QM/MM, DLPNO-CCSD(T), (RO)-DLPNO pert. Triples
   Tobias Risthaus        : Range-separated hybrids, TD-DFT gradient, RPA, STAB
   Michael Roemelt        : Original ROCIS implementation
   Masaaki Saitow         : Open-shell DLPNO-CCSD energy and density
   Barbara Sandhoefer     : DKH picture change effects
   Avijit Sen             : IP-ROCIS
   Kantharuban Sivalingam : CASSCF convergence, NEVPT2, FIC-MRCI
   Bernardo de Souza      : ESD, SOC TD-DFT
   Georgi Stoychev        : AutoAux, RI-MP2 NMR, DLPNO-MP2 response
   Willem Van den Heuvel  : Paramagnetic NMR
   Boris Wezisla          : Elementary symmetry handling
   Frank Wennmohs         : Technical directorship


 We gratefully acknowledge several colleagues who have allowed us to
 interface, adapt or use parts of their codes:
   Stefan Grimme, W. Hujo, H. Kruse, P. Pracht,  : VdW corrections, initial TS optimization,
                  C. Bannwarth, S. Ehlert          DFT functionals, gCP, sTDA/sTD-DF
   Ed Valeev, F. Pavosevic, A. Kumar             : LibInt (2-el integral package), F12 methods
   Garnet Chan, S. Sharma, J. Yang, R. Olivares  : DMRG
   Ulf Ekstrom                                   : XCFun DFT Library
   Mihaly Kallay                                 : mrcc  (arbitrary order and MRCC methods)
   Jiri Pittner, Ondrej Demel                    : Mk-CCSD
   Frank Weinhold                                : gennbo (NPA and NBO analysis)
   Christopher J. Cramer and Donald G. Truhlar   : smd solvation model
   Lars Goerigk                                  : TD-DFT with DH, B97 family of functionals
   V. Asgeirsson, H. Jonsson                     : NEB implementation
   FAccTs GmbH                                   : IRC, NEB, NEB-TS, DLPNO-Multilevel, CI-OPT
                                                   MM, QMMM, 2- and 3-layer-ONIOM, Crystal-QMMM,
                                                   LR-CPCM, SF, NACMEs, symmetry and pop. for TD-DFT,
                                                   nearIR, NL-DFT gradient (VV10), updates on ESD,
                                                   ML-optimized integration grids
   S Lehtola, MJT Oliveira, MAL Marques          : LibXC Library
   Liviu Ungur et al                             : ANISO software


 Your calculation uses the libint2 library for the computation of 2-el integrals
 For citations please refer to: http://libint.valeyev.net

 Your ORCA version has been built with support for libXC version: 5.1.0
 For citations please refer to: https://tddft.org/programs/libxc/

 This ORCA versions uses:
   CBLAS   interface :  Fast vector & matrix operations
   LAPACKE interface :  Fast linear algebra routines
   SCALAPACK package :  Parallel linear algebra routines
   Shared memory     :  Shared parallel matrices
   BLAS/LAPACK       :  OpenBLAS 0.3.15  USE64BITINT DYNAMIC_ARCH NO_AFFINITY SkylakeX SINGLE_THREADED
        Core in use  :  SkylakeX
   Copyright (c) 2011-2014, The OpenBLAS Project




***************************************
The coordinates will be read from file: /users/fjb15167/WWenergy/structures/Nfe.xyz
***************************************


Your calculation utilizes the atom-pairwise dispersion correction
based on tight binding partial charges (D4)
Cite in your paper:
E.Caldeweyher, C.Bannwarth, S.Grimme, J.Chem.Phys., (2017), 147, 034112.
E.Caldeweyher, S.Ehlert, A.Hansen, H.Neugebauer, S.Grimme, J.Chem.Phys., (2018), in progress.
   

================================================================================

----- Orbital basis set information -----
Your calculation utilizes the basis: 6-31G(d)
   H-He, Li-Ne : W. J. Hehre, R. Ditchfield and J.A. Pople, J. Chem. Phys. 56, 2257 (1972).
                 Note: He and Ne are unpublished basis sets taken from the Gaussian program.
                 Note: Li and B from J. D. Dill and J. A. Pople, J. Chem. Phys. 62, 2921 (1975).
   Na - Ar     : M. M. Francl, W. J. Pietro, W. J. Hehre, J. S. Binkley, M. S. Gordon, 
                 D. J. DeFrees and J. A. Pople, J. Chem. Phys. 77, 3654 (1982).
   K - Zn      : V. A. Rassolov, J. A. Pople, M. A. Ratner, and T. L. Windus, J. Chem. Phys. 109, 1223 (1998).

----- AuxJ basis set information -----
Your calculation utilizes the AutoAux generation procedure.
  G. L. Stoychev, A. A. Auer, F. Neese, J. Chem. Theory Comput. 13, 554 (2017)

----- AuxC basis set information -----
Your calculation utilizes the AutoAux generation procedure.
  G. L. Stoychev, A. A. Auer, F. Neese, J. Chem. Theory Comput. 13, 554 (2017)

----- AuxJK basis set information -----
Your calculation utilizes the AutoAux generation procedure.
  G. L. Stoychev, A. A. Auer, F. Neese, J. Chem. Theory Comput. 13, 554 (2017)

================================================================================
                                        WARNINGS
                       Please study these warnings very carefully!
================================================================================


WARNING: Geometry Optimization
  ===> : Switching off AutoStart
         For restart on a previous wavefunction, please use MOREAD

INFO   : the flag for use of the SHARK integral package has been found!

================================================================================
                                       INPUT FILE
================================================================================
NAME = Nfe_water.inp
|  1> ! OPT FREQ B3LYP 6-31G(d) D4 AUTOAUX CPCM(water)
|  2> 
|  3> %PAL NPROCS 4 END
|  4> 
|  5> %maxcore 3375
|  6> 
|  7> *xyzfile 0 1 /users/fjb15167/WWenergy/structures/Nfe.xyz
|  8> 
|  9>                          ****END OF INPUT****
================================================================================

                       *****************************
                       * Geometry Optimization Run *
                       *****************************

Geometry optimization settings:
Update method            Update   .... BFGS
Choice of coordinates    CoordSys .... Z-matrix Internals
Initial Hessian          InHess   .... Almoef's Model

Convergence Tolerances:
Energy Change            TolE     ....  5.0000e-06 Eh
Max. Gradient            TolMAXG  ....  3.0000e-04 Eh/bohr
RMS Gradient             TolRMSG  ....  1.0000e-04 Eh/bohr
Max. Displacement        TolMAXD  ....  4.0000e-03 bohr
RMS Displacement         TolRMSD  ....  2.0000e-03 bohr
Strict Convergence                ....  False
------------------------------------------------------------------------------
                        ORCA OPTIMIZATION COORDINATE SETUP
------------------------------------------------------------------------------

The optimization will be done in new redundant internal coordinates
Making redundant internal coordinates   ...  (new redundants) done
Evaluating the initial hessian          ...  (Almloef) done
Evaluating the coordinates              ...  done
Calculating the B-matrix                .... done
Calculating the G-matrix                .... done
Diagonalizing the G-matrix              .... done
Small eigenvalue found = 2.790e-03
Small eigenvalue found = 4.893e-03
Small eigenvalue found = 7.091e-03
Small eigenvalue found = 1.154e-02
Small eigenvalue found = 2.025e-02
Small eigenvalue found = 2.221e-02
Small eigenvalue found = 2.860e-02
The first mode is                       ....   79
The number of degrees of freedom        ....  108

    -----------------------------------------------------------------
                    Redundant Internal Coordinates


    -----------------------------------------------------------------
         Definition                    Initial Value    Approx d2E/dq
    -----------------------------------------------------------------
      1. B(H   1,C   0)                  1.0928         0.356441   
      2. B(H   2,C   0)                  1.0946         0.354056   
      3. B(H   3,C   0)                  1.0888         0.361722   
      4. B(C   4,C   0)                  1.5153         0.394285   
      5. B(O   5,C   4)                  1.2395         0.972698   
      6. B(N   6,C   4)                  1.3726         0.596508   
      7. B(C   7,N   6)                  1.4604         0.432146   
      8. B(H   8,C   7)                  1.0946         0.354030   
      9. B(H   9,C   7)                  1.0903         0.359684   
     10. B(C  10,N   6)                  1.4613         0.430617   
     11. B(H  11,C  10)                  1.0941         0.354660   
     12. B(H  12,C  10)                  1.0946         0.354011   
     13. B(C  13,C  10)                  1.5371         0.363951   
     14. B(H  14,C  13)                  1.0940         0.354808   
     15. B(H  15,C  13)                  1.0968         0.351192   
     16. B(C  16,C  13)                  1.5049         0.409643   
     17. B(C  17,C  16)                  1.4032         0.595164   
     18. B(C  18,C  16)                  1.3997         0.603000   
     19. B(C  19,C  17)                  1.3959         0.611443   
     20. B(H  20,C  17)                  1.0895         0.360777   
     21. B(C  21,C  18)                  1.3968         0.609339   
     22. B(H  22,C  18)                  1.0892         0.361197   
     23. B(C  23,C  21)                  1.3964         0.610198   
     24. B(C  23,C  19)                  1.3975         0.607865   
     25. B(H  24,C  19)                  1.0884         0.362279   
     26. B(H  25,C  21)                  1.0880         0.362703   
     27. B(H  26,C  23)                  1.0867         0.364517   
     28. B(C  27,C   7)                  1.5258         0.379368   
     29. B(N  28,C  27)                  1.3644         0.614883   
     30. B(O  29,C  27)                  1.2415         0.965626   
     31. B(C  30,N  28)                  1.4548         0.441003   
     32. B(H  31,C  30)                  1.0977         0.350090   
     33. B(H  32,C  30)                  1.0953         0.353186   
     34. B(H  33,C  30)                  1.0882         0.362537   
     35. B(C  34,N  28)                  1.4554         0.440057   
     36. B(H  35,C  34)                  1.0983         0.349329   
     37. B(H  36,C  34)                  1.0879         0.362883   
     38. B(H  37,C  34)                  1.0933         0.355712   
     39. A(H   3,C   0,C   4)          107.2091         0.327453   
     40. A(H   2,C   0,H   3)          108.8619         0.290272   
     41. A(H   2,C   0,C   4)          110.7417         0.326299   
     42. A(H   1,C   0,H   3)          109.5021         0.290578   
     43. A(H   1,C   0,C   4)          112.4604         0.326660   
     44. A(H   1,C   0,H   2)          108.0134         0.289603   
     45. A(O   5,C   4,N   6)          122.0134         0.461561   
     46. A(C   0,C   4,N   6)          116.9811         0.395213   
     47. A(C   0,C   4,O   5)          121.0012         0.431049   
     48. A(C   4,N   6,C  10)          124.7615         0.398813   
     49. A(C   4,N   6,C   7)          119.0979         0.399061   
     50. A(C   7,N   6,C  10)          116.0491         0.377015   
     51. A(H   8,C   7,H   9)          109.0230         0.290012   
     52. A(H   9,C   7,C  27)          113.6679         0.325078   
     53. A(N   6,C   7,H   9)          107.9814         0.330141   
     54. A(N   6,C   7,H   8)          109.6465         0.329278   
     55. A(H   8,C   7,C  27)          105.3640         0.324233   
     56. A(N   6,C   7,C  27)          111.0916         0.371194   
     57. A(H  12,C  10,C  13)          108.7341         0.322032   
     58. A(H  11,C  10,C  13)          109.9603         0.322128   
     59. A(N   6,C  10,C  13)          113.6969         0.368333   
     60. A(H  11,C  10,H  12)          107.0560         0.289370   
     61. A(N   6,C  10,H  12)          106.9181         0.329082   
     62. A(N   6,C  10,H  11)          110.2091         0.329182   
     63. A(H  15,C  13,C  16)          110.5010         0.327921   
     64. A(H  14,C  13,C  16)          109.8792         0.328476   
     65. A(C  10,C  13,C  16)          110.3713         0.367485   
     66. A(H  14,C  13,H  15)          107.2067         0.289027   
     67. A(C  10,C  13,H  15)          109.8757         0.321610   
     68. A(C  10,C  13,H  14)          108.9400         0.322150   
     69. A(C  17,C  16,C  18)          119.1049         0.428743   
     70. A(C  13,C  16,C  18)          121.4998         0.401199   
     71. A(C  13,C  16,C  17)          119.3163         0.400276   
     72. A(C  16,C  17,C  19)          120.3258         0.429814   
     73. A(C  19,C  17,H  20)          120.5197         0.352192   
     74. A(C  16,C  17,H  20)          119.1538         0.350589   
     75. A(C  21,C  18,H  22)          119.8331         0.352056   
     76. A(C  16,C  18,H  22)          119.6003         0.351434   
     77. A(C  16,C  18,C  21)          120.5572         0.430558   
     78. A(C  23,C  19,H  24)          120.0359         0.352090   
     79. A(C  17,C  19,H  24)          119.7384         0.352440   
     80. A(C  17,C  19,C  23)          120.2255         0.431447   
     81. A(C  23,C  21,H  25)          120.0714         0.352388   
     82. A(C  18,C  21,H  25)          119.8691         0.352304   
     83. A(C  18,C  21,C  23)          120.0593         0.431476   
     84. A(C  21,C  23,H  26)          120.0991         0.352685   
     85. A(C  19,C  23,H  26)          120.1783         0.352457   
     86. A(C  19,C  23,C  21)          119.7211         0.431289   
     87. A(N  28,C  27,O  29)          122.7340         0.463509   
     88. A(C   7,C  27,O  29)          119.2301         0.427517   
     89. A(C   7,C  27,N  28)          118.0156         0.394643   
     90. A(C  30,N  28,C  34)          115.4460         0.379764   
     91. A(C  27,N  28,C  34)          118.1948         0.402482   
     92. A(C  27,N  28,C  30)          125.1468         0.402635   
     93. A(H  32,C  30,H  33)          108.7774         0.290263   
     94. A(H  31,C  30,H  33)          108.4786         0.289862   
     95. A(N  28,C  30,H  33)          111.9470         0.331685   
     96. A(H  31,C  30,H  32)          108.2516         0.288677   
     97. A(N  28,C  30,H  32)          109.0128         0.330253   
     98. A(N  28,C  30,H  31)          110.2910         0.329773   
     99. A(H  35,C  34,H  36)          109.2772         0.289806   
    100. A(N  28,C  34,H  36)          108.6415         0.331619   
    101. A(N  28,C  34,H  35)          110.7795         0.329538   
    102. A(H  36,C  34,H  37)          110.2430         0.290631   
    103. A(H  35,C  34,H  37)          108.6550         0.288901   
    104. A(N  28,C  34,H  37)          109.2410         0.330526   
    105. D(N   6,C   4,C   0,H   2)    -67.9334         0.011553   
    106. D(O   5,C   4,C   0,H   1)   -127.7172         0.011553   
    107. D(N   6,C   4,C   0,H   1)     53.0219         0.011553   
    108. D(O   5,C   4,C   0,H   2)    111.3274         0.011553   
    109. D(O   5,C   4,C   0,H   3)     -7.3051         0.011553   
    110. D(N   6,C   4,C   0,H   3)    173.4341         0.011553   
    111. D(C   7,N   6,C   4,O   5)     -5.5981         0.028648   
    112. D(C  10,N   6,C   4,C   0)     -2.7224         0.028648   
    113. D(C  10,N   6,C   4,O   5)    178.0248         0.028648   
    114. D(C   7,N   6,C   4,C   0)    173.6547         0.028648   
    115. D(C  27,C   7,N   6,C   4)    127.0918         0.015922   
    116. D(H   8,C   7,N   6,C   4)   -116.8538         0.015922   
    117. D(H   9,C   7,N   6,C  10)    178.5018         0.015922   
    118. D(H   8,C   7,N   6,C  10)     59.8337         0.015922   
    119. D(H   9,C   7,N   6,C   4)      1.8143         0.015922   
    120. D(C  27,C   7,N   6,C  10)    -56.2207         0.015922   
    121. D(C  13,C  10,N   6,C   7)     95.3058         0.015809   
    122. D(C  13,C  10,N   6,C   4)    -88.2177         0.015809   
    123. D(H  12,C  10,N   6,C   7)    -24.7020         0.015809   
    124. D(H  11,C  10,N   6,C   7)   -140.7199         0.015809   
    125. D(H  11,C  10,N   6,C   4)     35.7567         0.015809   
    126. D(H  12,C  10,N   6,C   4)    151.7745         0.015809   
    127. D(C  16,C  13,C  10,N   6)   -167.5611         0.010611   
    128. D(C  16,C  13,C  10,H  11)     68.3299         0.010611   
    129. D(H  15,C  13,C  10,H  12)   -170.6923         0.010611   
    130. D(H  15,C  13,C  10,H  11)    -53.7764         0.010611   
    131. D(H  15,C  13,C  10,N   6)     70.3326         0.010611   
    132. D(H  14,C  13,C  10,H  12)     72.1386         0.010611   
    133. D(H  14,C  13,C  10,H  11)   -170.9456         0.010611   
    134. D(C  16,C  13,C  10,H  12)    -48.5859         0.010611   
    135. D(H  14,C  13,C  10,N   6)    -46.8366         0.010611   
    136. D(C  18,C  16,C  13,H  15)     23.4578         0.012429   
    137. D(C  18,C  16,C  13,H  14)    141.5590         0.012429   
    138. D(C  18,C  16,C  13,C  10)    -98.2796         0.012429   
    139. D(C  17,C  16,C  13,H  15)   -159.8029         0.012429   
    140. D(C  17,C  16,C  13,H  14)    -41.7016         0.012429   
    141. D(C  17,C  16,C  13,C  10)     78.4598         0.012429   
    142. D(H  20,C  17,C  16,C  18)    179.4997         0.024398   
    143. D(H  20,C  17,C  16,C  13)      2.6815         0.024398   
    144. D(C  19,C  17,C  16,C  18)     -0.8024         0.024398   
    145. D(C  19,C  17,C  16,C  13)   -177.6206         0.024398   
    146. D(H  22,C  18,C  16,C  17)    179.7590         0.025080   
    147. D(H  22,C  18,C  16,C  13)     -3.4949         0.025080   
    148. D(C  21,C  18,C  16,C  17)      0.8733         0.025080   
    149. D(C  21,C  18,C  16,C  13)    177.6193         0.025080   
    150. D(H  24,C  19,C  17,H  20)      0.0771         0.025828   
    151. D(H  24,C  19,C  17,C  16)   -179.6167         0.025828   
    152. D(C  23,C  19,C  17,H  20)   -179.7916         0.025828   
    153. D(C  23,C  19,C  17,C  16)      0.5147         0.025828   
    154. D(H  25,C  21,C  18,H  22)      0.6333         0.025640   
    155. D(H  25,C  21,C  18,C  16)    179.5165         0.025640   
    156. D(C  23,C  21,C  18,H  22)   -179.5377         0.025640   
    157. D(C  23,C  21,C  18,C  16)     -0.6545         0.025640   
    158. D(H  26,C  23,C  21,H  25)     -0.2635         0.025717   
    159. D(H  26,C  23,C  21,C  18)    179.9079         0.025717   
    160. D(C  19,C  23,C  21,H  25)   -179.8187         0.025717   
    161. D(C  19,C  23,C  21,C  18)      0.3527         0.025717   
    162. D(H  26,C  23,C  19,H  24)      0.2923         0.025509   
    163. D(H  26,C  23,C  19,C  17)   -179.8394         0.025509   
    164. D(C  21,C  23,C  19,H  24)    179.8471         0.025509   
    165. D(C  21,C  23,C  19,C  17)     -0.2846         0.025509   
    166. D(N  28,C  27,C   7,H   8)    163.0618         0.010742   
    167. D(N  28,C  27,C   7,N   6)    -78.2728         0.010742   
    168. D(O  29,C  27,C   7,H   9)   -137.8403         0.010742   
    169. D(O  29,C  27,C   7,H   8)    -18.5323         0.010742   
    170. D(O  29,C  27,C   7,N   6)    100.1331         0.010742   
    171. D(N  28,C  27,C   7,H   9)     43.7538         0.010742   
    172. D(C  34,N  28,C  27,O  29)     -2.9836         0.030576   
    173. D(C  34,N  28,C  27,C   7)    175.3626         0.030576   
    174. D(C  30,N  28,C  27,O  29)   -169.7945         0.030576   
    175. D(C  30,N  28,C  27,C   7)      8.5518         0.030576   
    176. D(H  33,C  30,N  28,C  34)    176.4249         0.016584   
    177. D(H  33,C  30,N  28,C  27)    -16.4426         0.016584   
    178. D(H  32,C  30,N  28,C  34)     56.0328         0.016584   
    179. D(H  32,C  30,N  28,C  27)   -136.8347         0.016584   
    180. D(H  31,C  30,N  28,C  34)    -62.6906         0.016584   
    181. D(H  31,C  30,N  28,C  27)    104.4419         0.016584   
    182. D(H  37,C  34,N  28,C  30)    -52.3203         0.016513   
    183. D(H  37,C  34,N  28,C  27)    139.6034         0.016513   
    184. D(H  36,C  34,N  28,C  30)   -172.6192         0.016513   
    185. D(H  36,C  34,N  28,C  27)     19.3046         0.016513   
    186. D(H  35,C  34,N  28,C  30)     67.3368         0.016513   
    187. D(H  35,C  34,N  28,C  27)   -100.7394         0.016513   
    -----------------------------------------------------------------

Number of atoms                         .... 38
Number of degrees of freedom            .... 187

         *************************************************************
         *                GEOMETRY OPTIMIZATION CYCLE   1            *
         *************************************************************
---------------------------------
CARTESIAN COORDINATES (ANGSTROEM)
---------------------------------
  C     -1.531000    3.230000   -0.350000
  H     -0.755000    2.993000   -1.082000
  H     -1.065000    3.787000    0.469000
  H     -2.290000    3.857000   -0.815000
  C     -2.231000    1.992000    0.173000
  O     -3.467000    1.901000    0.153000
  N     -1.436000    0.994000    0.679000
  C     -2.064000   -0.157000    1.322000
  H     -1.771000   -0.195000    2.376000
  H     -3.145000   -0.030000    1.258000
  C      0.025000    1.020000    0.695000
  H      0.383000    2.039000    0.870000
  H      0.345000    0.416000    1.550000
  C      0.667000    0.450000   -0.580000
  H      0.181000   -0.498000   -0.829000
  H      0.496000    1.133000   -1.421000
  C      2.141000    0.230000   -0.371000
  C      2.573000   -0.900000    0.340000
  C      3.089000    1.161000   -0.811000
  C      3.932000   -1.099000    0.589000
  H      1.835000   -1.621000    0.690000
  C      4.449000    0.961000   -0.563000
  H      2.763000    2.039000   -1.367000
  C      4.873000   -0.168000    0.141000
  H      4.257000   -1.982000    1.136000
  H      5.177000    1.688000   -0.917000
  H      5.931000   -0.325000    0.333000
  C     -1.564000   -1.465000    0.716000
  N     -2.083000   -1.855000   -0.484000
  O     -0.688000   -2.113000    1.311000
  C     -2.948000   -1.043000   -1.326000
  H     -2.386000   -0.652000   -2.184000
  H     -3.764000   -1.667000   -1.706000
  H     -3.374000   -0.203000   -0.781000
  C     -1.536000   -3.047000   -1.115000
  H     -0.828000   -2.777000   -1.910000
  H     -1.020000   -3.635000   -0.359000
  H     -2.351000   -3.628000   -1.555000

----------------------------
CARTESIAN COORDINATES (A.U.)
----------------------------
  NO LB      ZA    FRAG     MASS         X           Y           Z
   0 C     6.0000    0    12.011   -2.893171    6.103815   -0.661404
   1 H     1.0000    0     1.008   -1.426743    5.655950   -2.044684
   2 H     1.0000    0     1.008   -2.012558    7.156393    0.886282
   3 H     1.0000    0     1.008   -4.327473    7.288674   -1.540127
   4 C     6.0000    0    12.011   -4.215979    3.764334    0.326923
   5 O     8.0000    0    15.999   -6.551681    3.592369    0.289128
   6 N     7.0000    0    14.007   -2.713647    1.878388    1.283124
   7 C     6.0000    0    12.011   -3.900395   -0.296687    2.498218
   8 H     1.0000    0     1.008   -3.346705   -0.368497    4.489989
   9 H     1.0000    0     1.008   -5.943189   -0.056692    2.377275
  10 C     6.0000    0    12.011    0.047243    1.927521    1.313360
  11 H     1.0000    0     1.008    0.723765    3.853152    1.644062
  12 H     1.0000    0     1.008    0.651956    0.786126    2.929076
  13 C     6.0000    0    12.011    1.260447    0.850377   -1.096041
  14 H     1.0000    0     1.008    0.342040   -0.941084   -1.566583
  15 H     1.0000    0     1.008    0.937304    2.141060   -2.685301
  16 C     6.0000    0    12.011    4.045904    0.434637   -0.701088
  17 C     6.0000    0    12.011    4.862265   -1.700754    0.642507
  18 C     6.0000    0    12.011    5.837364    2.193972   -1.532568
  19 C     6.0000    0    12.011    7.430403   -2.076809    1.113049
  20 H     1.0000    0     1.008    3.467647   -3.063246    1.303911
  21 C     6.0000    0    12.011    8.407392    1.816027   -1.063916
  22 H     1.0000    0     1.008    5.221313    3.853152   -2.583256
  23 C     6.0000    0    12.011    9.208635   -0.317474    0.266451
  24 H     1.0000    0     1.008    8.044564   -3.745437    2.146729
  25 H     1.0000    0     1.008    9.783112    3.189858   -1.732879
  26 H     1.0000    0     1.008   11.207966   -0.614161    0.629279
  27 C     6.0000    0    12.011   -2.955532   -2.768449    1.353044
  28 N     7.0000    0    14.007   -3.936300   -3.505442   -0.914627
  29 O     8.0000    0    15.999   -1.300132   -3.992991    2.477431
  30 C     6.0000    0    12.011   -5.570913   -1.970984   -2.505777
  31 H     1.0000    0     1.008   -4.508887   -1.232101   -4.127162
  32 H     1.0000    0     1.008   -7.112929   -3.150173   -3.223873
  33 H     1.0000    0     1.008   -6.375936   -0.383614   -1.475876
  34 C     6.0000    0    12.011   -2.902619   -5.757996   -2.107045
  35 H     1.0000    0     1.008   -1.564693   -5.247769   -3.609377
  36 H     1.0000    0     1.008   -1.927521   -6.869154   -0.678412
  37 H     1.0000    0     1.008   -4.442746   -6.855926   -2.938524

--------------------------------
INTERNAL COORDINATES (ANGSTROEM)
--------------------------------
 C      0   0   0     0.000000000000     0.00000000     0.00000000
 H      1   0   0     1.092780398799     0.00000000     0.00000000
 H      1   2   0     1.094607692281   108.01336878     0.00000000
 H      1   2   3     1.088776836638   109.50212553   118.41189973
 C      1   2   3     1.515312838987   112.46041576   237.49262217
 O      5   1   2     1.239506756738   121.00116116   232.28277195
 N      5   1   2     1.372612472623   116.98114940    53.02193674
 C      7   5   1     1.460354066656   119.09792699   173.65467969
 H      8   7   5     1.094627333845   109.64650327   243.14616047
 H      8   7   5     1.090314633489   107.98138976     1.81433338
 C      7   5   1     1.461318924807   124.76145528   357.27758679
 H     11   7   5     1.094143500643   110.20905974    35.75666837
 H     11   7   5     1.094641950594   106.91806952   151.77454400
 C     11   7   5     1.537104095369   113.69685729   271.78229893
 H     14  11   7     1.094029707092   108.94002641   313.16341768
 H     14  11   7     1.096818581170   109.87574393    70.33256704
 C     14  11   7     1.504910960821   110.37131591   192.43893045
 C     17  14  11     1.403226638858   119.31626786    78.45979326
 C     17  14  11     1.399666031595   121.49984879   261.72043173
 C     18  17  14     1.395880725564   120.32575403   182.37943751
 H     18  17  14     1.089488412054   119.15383801     2.68151109
 C     19  17  14     1.396819243854   120.55721451   177.61933750
 H     19  17  14     1.089172162700   119.60029598   356.50508403
 C     22  19  17     1.396435820222   120.05929924   359.34546716
 H     20  18  17     1.088357937445   119.73844673   180.38333347
 H     22  19  17     1.088039061799   119.86910101   179.51650767
 H     24  22  19     1.086681646114   120.09912266   179.90789498
 C      8   7   5     1.525811259626   111.09162781   127.09179410
 N     28   8   7     1.364353693146   118.01556655   281.72716174
 O     28   8   7     1.241493052739   119.23012265   100.13308888
 C     29  28   8     1.454830918011   125.14675513     8.55176574
 H     31  29  28     1.097674359726   110.29104265   104.44186090
 H     31  29  28     1.095277133880   109.01284257   223.16528166
 H     31  29  28     1.088164050132   111.94701205   343.55741427
 C     29  28   8     1.455415404618   118.19483674   175.36264014
 H     35  29  28     1.098266361135   110.77952706   259.26057754
 H     35  29  28     1.087904407565   108.64150255    19.30455332
 H     35  29  28     1.093337093489   109.24098343   139.60344256

---------------------------
INTERNAL COORDINATES (A.U.)
---------------------------
 C      0   0   0     0.000000000000     0.00000000     0.00000000
 H      1   0   0     2.065055678248     0.00000000     0.00000000
 H      1   2   0     2.068508762494   108.01336878     0.00000000
 H      1   2   3     2.057490042203   109.50212553   118.41189973
 C      1   2   3     2.863526272901   112.46041576   237.49262217
 O      5   1   2     2.342328311380   121.00116116   232.28277195
 N      5   1   2     2.593861661262   116.98114940    53.02193674
 C      7   5   1     2.759669244539   119.09792699   173.65467969
 H      8   7   5     2.068545879671   109.64650327   243.14616047
 H      8   7   5     2.060396057101   107.98138976     1.81433338
 C      7   5   1     2.761492562202   124.76145528   357.27758679
 H     11   7   5     2.067631567426   110.20905974    35.75666837
 H     11   7   5     2.068573501324   106.91806952   151.77454400
 C     11   7   5     2.904705779576   113.69685729   271.78229893
 H     14  11   7     2.067416528778   108.94002641   313.16341768
 H     14  11   7     2.072686737008   109.87574393    70.33256704
 C     14  11   7     2.843869571888   110.37131591   192.43893045
 C     17  14  11     2.651714051264   119.31626786    78.45979326
 C     17  14  11     2.644985478666   121.49984879   261.72043173
 C     18  17  14     2.637832286935   120.32575403   182.37943751
 H     18  17  14     2.058834724863   119.15383801     2.68151109
 C     19  17  14     2.639605829474   120.55721451   177.61933750
 H     19  17  14     2.058237100193   119.60029598   356.50508403
 C     22  19  17     2.638881263818   120.05929924   359.34546716
 H     20  18  17     2.056698437451   119.73844673   180.38333347
 H     22  19  17     2.056095849808   119.86910101   179.51650767
 H     24  22  19     2.053530705913   120.09912266   179.90789498
 C      8   7   5     2.883365412746   111.09162781   127.09179410
 N     28   8   7     2.578254829849   118.01556655   281.72716174
 O     28   8   7     2.346081866843   119.23012265   100.13308888
 C     29  28   8     2.749232006202   125.14675513     8.55176574
 H     31  29  28     2.074303924110   110.29104265   104.44186090
 H     31  29  28     2.069773823779   109.01284257   223.16528166
 H     31  29  28     2.056332043528   111.94701205   343.55741427
 C     29  28   8     2.750336525819   118.19483674   175.36264014
 H     35  29  28     2.075422644643   110.77952706   259.26057754
 H     35  29  28     2.055841390184   108.64150255    19.30455332
 H     35  29  28     2.066107678753   109.24098343   139.60344256

---------------------
BASIS SET INFORMATION
---------------------
There are 4 groups of distinct atoms

 Group   1 Type C   : 10s4p1d contracted to 3s2p1d pattern {631/31/1}
 Group   2 Type H   : 4s contracted to 2s pattern {31}
 Group   3 Type O   : 10s4p1d contracted to 3s2p1d pattern {631/31/1}
 Group   4 Type N   : 10s4p1d contracted to 3s2p1d pattern {631/31/1}

Atom   0C    basis set group =>   1
Atom   1H    basis set group =>   2
Atom   2H    basis set group =>   2
Atom   3H    basis set group =>   2
Atom   4C    basis set group =>   1
Atom   5O    basis set group =>   3
Atom   6N    basis set group =>   4
Atom   7C    basis set group =>   1
Atom   8H    basis set group =>   2
Atom   9H    basis set group =>   2
Atom  10C    basis set group =>   1
Atom  11H    basis set group =>   2
Atom  12H    basis set group =>   2
Atom  13C    basis set group =>   1
Atom  14H    basis set group =>   2
Atom  15H    basis set group =>   2
Atom  16C    basis set group =>   1
Atom  17C    basis set group =>   1
Atom  18C    basis set group =>   1
Atom  19C    basis set group =>   1
Atom  20H    basis set group =>   2
Atom  21C    basis set group =>   1
Atom  22H    basis set group =>   2
Atom  23C    basis set group =>   1
Atom  24H    basis set group =>   2
Atom  25H    basis set group =>   2
Atom  26H    basis set group =>   2
Atom  27C    basis set group =>   1
Atom  28N    basis set group =>   4
Atom  29O    basis set group =>   3
Atom  30C    basis set group =>   1
Atom  31H    basis set group =>   2
Atom  32H    basis set group =>   2
Atom  33H    basis set group =>   2
Atom  34C    basis set group =>   1
Atom  35H    basis set group =>   2
Atom  36H    basis set group =>   2
Atom  37H    basis set group =>   2
---------------------------------
AUXILIARY/J BASIS SET INFORMATION
---------------------------------
There are 4 groups of distinct atoms

 Group   1 Type C   : 13s11p10d2f contracted to 13s11p10d2f pattern {1111111111111/11111111111/1111111111/11}
 Group   2 Type H   : 9s2p contracted to 9s2p pattern {111111111/11}
 Group   3 Type O   : 14s11p10d2f contracted to 14s11p10d2f pattern {11111111111111/11111111111/1111111111/11}
 Group   4 Type N   : 14s11p10d2f contracted to 14s11p10d2f pattern {11111111111111/11111111111/1111111111/11}

Atom   0C    basis set group =>   1
Atom   1H    basis set group =>   2
Atom   2H    basis set group =>   2
Atom   3H    basis set group =>   2
Atom   4C    basis set group =>   1
Atom   5O    basis set group =>   3
Atom   6N    basis set group =>   4
Atom   7C    basis set group =>   1
Atom   8H    basis set group =>   2
Atom   9H    basis set group =>   2
Atom  10C    basis set group =>   1
Atom  11H    basis set group =>   2
Atom  12H    basis set group =>   2
Atom  13C    basis set group =>   1
Atom  14H    basis set group =>   2
Atom  15H    basis set group =>   2
Atom  16C    basis set group =>   1
Atom  17C    basis set group =>   1
Atom  18C    basis set group =>   1
Atom  19C    basis set group =>   1
Atom  20H    basis set group =>   2
Atom  21C    basis set group =>   1
Atom  22H    basis set group =>   2
Atom  23C    basis set group =>   1
Atom  24H    basis set group =>   2
Atom  25H    basis set group =>   2
Atom  26H    basis set group =>   2
Atom  27C    basis set group =>   1
Atom  28N    basis set group =>   4
Atom  29O    basis set group =>   3
Atom  30C    basis set group =>   1
Atom  31H    basis set group =>   2
Atom  32H    basis set group =>   2
Atom  33H    basis set group =>   2
Atom  34C    basis set group =>   1
Atom  35H    basis set group =>   2
Atom  36H    basis set group =>   2
Atom  37H    basis set group =>   2
---------------------------------
AUXILIARY/C BASIS SET INFORMATION
---------------------------------
There are 4 groups of distinct atoms

 Group   1 Type C   : 13s11p10d2f contracted to 13s11p10d2f pattern {1111111111111/11111111111/1111111111/11}
 Group   2 Type H   : 9s2p contracted to 9s2p pattern {111111111/11}
 Group   3 Type O   : 14s11p10d2f contracted to 14s11p10d2f pattern {11111111111111/11111111111/1111111111/11}
 Group   4 Type N   : 14s11p10d2f contracted to 14s11p10d2f pattern {11111111111111/11111111111/1111111111/11}

Atom   0C    basis set group =>   1
Atom   1H    basis set group =>   2
Atom   2H    basis set group =>   2
Atom   3H    basis set group =>   2
Atom   4C    basis set group =>   1
Atom   5O    basis set group =>   3
Atom   6N    basis set group =>   4
Atom   7C    basis set group =>   1
Atom   8H    basis set group =>   2
Atom   9H    basis set group =>   2
Atom  10C    basis set group =>   1
Atom  11H    basis set group =>   2
Atom  12H    basis set group =>   2
Atom  13C    basis set group =>   1
Atom  14H    basis set group =>   2
Atom  15H    basis set group =>   2
Atom  16C    basis set group =>   1
Atom  17C    basis set group =>   1
Atom  18C    basis set group =>   1
Atom  19C    basis set group =>   1
Atom  20H    basis set group =>   2
Atom  21C    basis set group =>   1
Atom  22H    basis set group =>   2
Atom  23C    basis set group =>   1
Atom  24H    basis set group =>   2
Atom  25H    basis set group =>   2
Atom  26H    basis set group =>   2
Atom  27C    basis set group =>   1
Atom  28N    basis set group =>   4
Atom  29O    basis set group =>   3
Atom  30C    basis set group =>   1
Atom  31H    basis set group =>   2
Atom  32H    basis set group =>   2
Atom  33H    basis set group =>   2
Atom  34C    basis set group =>   1
Atom  35H    basis set group =>   2
Atom  36H    basis set group =>   2
Atom  37H    basis set group =>   2
----------------------------------
AUXILIARY/JK BASIS SET INFORMATION
----------------------------------
There are 4 groups of distinct atoms

 Group   1 Type C   : 13s11p10d2f contracted to 13s11p10d2f pattern {1111111111111/11111111111/1111111111/11}
 Group   2 Type H   : 9s2p contracted to 9s2p pattern {111111111/11}
 Group   3 Type O   : 14s11p10d2f contracted to 14s11p10d2f pattern {11111111111111/11111111111/1111111111/11}
 Group   4 Type N   : 14s11p10d2f contracted to 14s11p10d2f pattern {11111111111111/11111111111/1111111111/11}

Atom   0C    basis set group =>   1
Atom   1H    basis set group =>   2
Atom   2H    basis set group =>   2
Atom   3H    basis set group =>   2
Atom   4C    basis set group =>   1
Atom   5O    basis set group =>   3
Atom   6N    basis set group =>   4
Atom   7C    basis set group =>   1
Atom   8H    basis set group =>   2
Atom   9H    basis set group =>   2
Atom  10C    basis set group =>   1
Atom  11H    basis set group =>   2
Atom  12H    basis set group =>   2
Atom  13C    basis set group =>   1
Atom  14H    basis set group =>   2
Atom  15H    basis set group =>   2
Atom  16C    basis set group =>   1
Atom  17C    basis set group =>   1
Atom  18C    basis set group =>   1
Atom  19C    basis set group =>   1
Atom  20H    basis set group =>   2
Atom  21C    basis set group =>   1
Atom  22H    basis set group =>   2
Atom  23C    basis set group =>   1
Atom  24H    basis set group =>   2
Atom  25H    basis set group =>   2
Atom  26H    basis set group =>   2
Atom  27C    basis set group =>   1
Atom  28N    basis set group =>   4
Atom  29O    basis set group =>   3
Atom  30C    basis set group =>   1
Atom  31H    basis set group =>   2
Atom  32H    basis set group =>   2
Atom  33H    basis set group =>   2
Atom  34C    basis set group =>   1
Atom  35H    basis set group =>   2
Atom  36H    basis set group =>   2
Atom  37H    basis set group =>   2


           ************************************************************
           *        Program running with 4 parallel MPI-processes     *
           *              working on a common directory               *
           ************************************************************
------------------------------------------------------------------------------
                           ORCA GTO INTEGRAL CALCULATION
                           -- RI-GTO INTEGRALS CHOSEN --
------------------------------------------------------------------------------
------------------------------------------------------------------------------
                   ___                                                        
                  /   \      - P O W E R E D   B Y -                         
                 /     \                                                     
                 |  |  |   _    _      __       _____    __    __             
                 |  |  |  | |  | |    /  \     |  _  \  |  |  /  |          
                  \  \/   | |  | |   /    \    | | | |  |  | /  /          
                 / \  \   | |__| |  /  /\  \   | |_| |  |  |/  /          
                |  |  |   |  __  | /  /__\  \  |    /   |      \           
                |  |  |   | |  | | |   __   |  |    \   |  |\   \          
                \     /   | |  | | |  |  |  |  | |\  \  |  | \   \       
                 \___/    |_|  |_| |__|  |__|  |_| \__\ |__|  \__/        
                                                                              
                      - O R C A' S   B I G   F R I E N D -                    
                                      &                                       
                       - I N T E G R A L  F E E D E R -                       
                                                                              
 v1 FN, 2020, v2 2021                                                         
------------------------------------------------------------------------------


Reading SHARK input file Nfe_water.SHARKINP.tmp ... ok
----------------------
SHARK INTEGRAL PACKAGE
----------------------

Number of atoms                             ...     38
Number of basis functions                   ...    292
Number of shells                            ...    148
Maximum angular momentum                    ...      2
Integral batch strategy                     ... SHARK/LIBINT Hybrid
RI-J (if used) integral strategy            ... SPLIT-RIJ (Revised 2003 algorithm where possible)
Printlevel                                  ...      1
Contraction scheme used                     ... SEGMENTED contraction
Coulomb Range Separation                    ... NOT USED
Exchange Range Separation                   ... NOT USED
Finite Nucleus Model                        ... NOT USED
Auxiliary Coulomb fitting basis             ... AVAILABLE
   # of basis functions in Aux-J            ...   2284
   # of shells in Aux-J                     ...    872
   Maximum angular momentum in Aux-J        ...      3
Auxiliary J/K fitting basis                 ... AVAILABLE
   # of basis functions in Aux-JK           ...   2284
   # of shells in Aux-JK                    ...    872
   Maximum angular momentum in Aux-JK       ...      3
Auxiliary Correlation fitting basis         ... AVAILABLE
   # of basis functions in Aux-C            ...   2284
   # of shells in Aux-C                     ...    872
   Maximum angular momentum in Aux-C        ...      3
Auxiliary 'external' fitting basis          ... NOT available
Integral threshold                          ...     2.500000e-11
Primitive cut-off                           ...     2.500000e-12
Primitive pair pre-selection threshold      ...     2.500000e-12

Calculating pre-screening integrals         ... done (  0.1 sec) Dimension = 148
Organizing shell pair data                  ... done (  0.1 sec)
Shell pair information
Total number of shell pairs                 ...     11026
Shell pairs after pre-screening             ...      8783
Total number of primitive shell pairs       ...     61863
Primitive shell pairs kept                  ...     27668
          la=0 lb=0:   3404 shell pairs
          la=1 lb=0:   2881 shell pairs
          la=1 lb=1:    616 shell pairs
          la=2 lb=0:   1227 shell pairs
          la=2 lb=1:    537 shell pairs
          la=2 lb=2:    118 shell pairs

Calculating one electron integrals          ... done (  0.0 sec)
Calculating RI/J V-Matrix + Cholesky decomp.... done (  0.4 sec)
Calculating RI/JK V-Matrix + Cholesky decomp... done (  0.4 sec)
Calculating RI/C V-Matrix + Cholesky decomp.... done (  0.3 sec)
Calculating Nuclear repulsion               ... done (  0.0 sec) ENN=   1355.550014315197 Eh

SHARK setup successfully completed in   1.6 seconds

Maximum memory used throughout the entire GTOINT-calculation: 44.3 MB


           ************************************************************
           *        Program running with 4 parallel MPI-processes     *
           *              working on a common directory               *
           ************************************************************
-------------------------------------------------------------------------------
                                 ORCA SCF
-------------------------------------------------------------------------------

------------
SCF SETTINGS
------------
Hamiltonian:
 Density Functional     Method          .... DFT(GTOs)
 Exchange Functional    Exchange        .... B88
   X-Alpha parameter    XAlpha          ....  0.666667
   Becke's b parameter  XBeta           ....  0.004200
 Correlation Functional Correlation     .... LYP
 LDA part of GGA corr.  LDAOpt          .... VWN-5
 Gradients option       PostSCFGGA      .... off
 Hybrid DFT is turned on
   Fraction HF Exchange ScalHFX         ....  0.200000
   Scaling of DF-GGA-X  ScalDFX         ....  0.720000
   Scaling of DF-GGA-C  ScalDFC         ....  0.810000
   Scaling of DF-LDA-C  ScalLDAC        ....  1.000000
   Perturbative correction              ....  0.000000
   Density functional embedding theory  .... OFF
   NL short-range parameter             ....  4.800000
 RI-approximation to the Coulomb term is turned on
   Number of AuxJ basis functions       .... 2284
   RIJ-COSX (HFX calculated with COS-X)).... on


General Settings:
 Integral files         IntName         .... Nfe_water
 Hartree-Fock type      HFTyp           .... RHF
 Total Charge           Charge          ....    0
 Multiplicity           Mult            ....    1
 Number of Electrons    NEL             ....  134
 Basis Dimension        Dim             ....  292
 Nuclear Repulsion      ENuc            ....   1355.5500143152 Eh

Convergence Acceleration:
 DIIS                   CNVDIIS         .... on
   Start iteration      DIISMaxIt       ....    12
   Startup error        DIISStart       ....  0.200000
   # of expansion vecs  DIISMaxEq       ....     5
   Bias factor          DIISBfac        ....   1.050
   Max. coefficient     DIISMaxC        ....  10.000
 Trust-Rad. Augm. Hess. CNVTRAH         .... auto
   Auto Start mean grad. ratio tolernc. ....  1.125000
   Auto Start start iteration           ....    20
   Auto Start num. interpolation iter.  ....    10
   Max. Number of Micro iterations      ....    16
   Max. Number of Macro iterations      .... Maxiter - #DIIS iter
   Number of Davidson start vectors     ....     2
   Converg. threshold I  (grad. norm)   ....   1.000e-05
   Converg. threshold II (energy diff.) ....   1.000e-08
   Grad. Scal. Fac. for Micro threshold ....   0.100
   Minimum threshold for Micro iter.    ....   0.010
   NR start threshold (gradient norm)   ....   0.001
   Initial trust radius                 ....   0.400
   Minimum AH scaling param. (alpha)    ....   1.000
   Maximum AH scaling param. (alpha)    .... 1000.000
   Orbital update algorithm             .... Taylor
   White noise on init. David. guess    .... on
   Maximum white noise                  ....   0.010
   Quad. conv. algorithm                .... NR
 SOSCF                  CNVSOSCF        .... on
   Start iteration      SOSCFMaxIt      ....   150
   Startup grad/error   SOSCFStart      ....  0.003300
 Level Shifting         CNVShift        .... on
   Level shift para.    LevelShift      ....    0.2500
   Turn off err/grad.   ShiftErr        ....    0.0010
 Zerner damping         CNVZerner       .... off
 Static damping         CNVDamp         .... on
   Fraction old density DampFac         ....    0.7000
   Max. Damping (<1)    DampMax         ....    0.9800
   Min. Damping (>=0)   DampMin         ....    0.0000
   Turn off err/grad.   DampErr         ....    0.1000
 Fernandez-Rico         CNVRico         .... off

SCF Procedure:
 Maximum # iterations   MaxIter         ....   125
 SCF integral mode      SCFMode         .... Direct
   Integral package                     .... SHARK and LIBINT hybrid scheme
 Reset frequency        DirectResetFreq ....    20
 Integral Threshold     Thresh          ....  2.500e-11 Eh
 Primitive CutOff       TCut            ....  2.500e-12 Eh

Convergence Tolerance:
 Convergence Check Mode ConvCheckMode   .... Total+1el-Energy
 Convergence forced     ConvForced      .... 0
 Energy Change          TolE            ....  1.000e-08 Eh
 1-El. energy change                    ....  1.000e-05 Eh
 Orbital Gradient       TolG            ....  1.000e-05
 Orbital Rotation angle TolX            ....  1.000e-05
 DIIS Error             TolErr          ....  5.000e-07


Diagonalization of the overlap matrix:
Smallest eigenvalue                        ... 4.758e-04
Time for diagonalization                   ...    0.124 sec
Threshold for overlap eigenvalues          ... 1.000e-08
Number of eigenvalues below threshold      ... 0
Time for construction of square roots      ...    0.010 sec
Total time needed                          ...    0.270 sec

Time for model grid setup =    0.344 sec

------------------------------
INITIAL GUESS: MODEL POTENTIAL
------------------------------
Loading Hartree-Fock densities                     ... done
Calculating cut-offs                               ... done
Initializing the effective Hamiltonian             ... done
Setting up the integral package (SHARK)            ... done
Starting the Coulomb interaction                   ... done (   0.3 sec)
Reading the grid                                   ... done
Mapping shells                                     ... done
Starting the XC term evaluation                    ... done (   0.2 sec)
  promolecular density results
     # of electrons  =    133.996646886
     EX              =   -107.487182990
     EC              =     -4.510175231
     EX+EC           =   -111.997358221
Transforming the Hamiltonian                       ... done (   0.0 sec)
Diagonalizing the Hamiltonian                      ... done (   0.0 sec)
Back transforming the eigenvectors                 ... done (   0.0 sec)
Now organizing SCF variables                       ... done
                      ------------------
                      INITIAL GUESS DONE (   1.7 sec)
                      ------------------
-------------------
DFT GRID GENERATION
-------------------

General Integration Accuracy     IntAcc      ... 4.388
Radial Grid Type                 RadialGrid  ... OptM3 with GC (2021)
Angular Grid (max. ang.)         AngularGrid ... 4 (Lebedev-302)
Angular grid pruning method      GridPruning ... 4 (adaptive)
Weight generation scheme         WeightScheme... Becke
Basis function cutoff            BFCut       ... 1.0000e-11
Integration weight cutoff        WCut        ... 1.0000e-14
Angular grids for H and He will be reduced by one unit
Partially contracted basis set               ... off
Rotationally invariant grid construction     ... off

Total number of grid points                  ...   170908
Total number of batches                      ...     2689
Average number of points per batch           ...       63
Average number of grid points per atom       ...     4498
Time for grid setup =    4.253 sec

--------------------
COSX GRID GENERATION
--------------------

GRIDX 1
-------
General Integration Accuracy     IntAcc      ... 3.816
Radial Grid Type                 RadialGrid  ... OptM3 with GC (2021)
Angular Grid (max. ang.)         AngularGrid ... 1 (Lebedev-50)
Angular grid pruning method      GridPruning ... 4 (adaptive)
Weight generation scheme         WeightScheme... Becke
Basis function cutoff            BFCut       ... 1.0000e-11
Integration weight cutoff        WCut        ... 1.0000e-14
Angular grids for H and He will be reduced by one unit
Partially contracted basis set               ... on
Rotationally invariant grid construction     ... off

Total number of grid points                  ...    21743
Total number of batches                      ...      360
Average number of points per batch           ...       60
Average number of grid points per atom       ...      572
UseSFitting                                  ... on

GRIDX 2
-------
General Integration Accuracy     IntAcc      ... 4.020
Radial Grid Type                 RadialGrid  ... OptM3 with GC (2021)
Angular Grid (max. ang.)         AngularGrid ... 2 (Lebedev-110)
Angular grid pruning method      GridPruning ... 4 (adaptive)
Weight generation scheme         WeightScheme... Becke
Basis function cutoff            BFCut       ... 1.0000e-11
Integration weight cutoff        WCut        ... 1.0000e-14
Angular grids for H and He will be reduced by one unit
Partially contracted basis set               ... on
Rotationally invariant grid construction     ... off

Total number of grid points                  ...    46237
Total number of batches                      ...      741
Average number of points per batch           ...       62
Average number of grid points per atom       ...     1217
UseSFitting                                  ... on

GRIDX 3
-------
General Integration Accuracy     IntAcc      ... 4.338
Radial Grid Type                 RadialGrid  ... OptM3 with GC (2021)
Angular Grid (max. ang.)         AngularGrid ... 3 (Lebedev-194)
Angular grid pruning method      GridPruning ... 4 (adaptive)
Weight generation scheme         WeightScheme... Becke
Basis function cutoff            BFCut       ... 1.0000e-11
Integration weight cutoff        WCut        ... 1.0000e-14
Angular grids for H and He will be reduced by one unit
Partially contracted basis set               ... on
Rotationally invariant grid construction     ... off

Total number of grid points                  ...   100767
Total number of batches                      ...     1597
Average number of points per batch           ...       63
Average number of grid points per atom       ...     2652
UseSFitting                                  ... on

Time for X-Grid setup             =    4.673 sec


--------------------
CPCM SOLVATION MODEL
--------------------
CPCM parameters:
  Epsilon                                         ...      80.4000
  Refrac                                          ...       1.3300
  Rsolv                                           ...       1.3000
  Surface type                                    ... GAUSSIAN VDW
  Epsilon function type                           ...         CPCM
Radii:
 Radius for C  used is    3.8550 Bohr (=   2.0400 Ang.)
 Radius for H  used is    2.4944 Bohr (=   1.3200 Ang.)
 Radius for O  used is    3.4469 Bohr (=   1.8240 Ang.)
 Radius for N  used is    3.5149 Bohr (=   1.8600 Ang.)
Calculating surface                               ...        done! (  0.0s)
GEPOL surface points                              ...         1999
GEPOL Volume                                      ...    2130.6659
GEPOL Surface-area                                ...    1090.0580
Calculating surface distance matrix               ...        done! (  0.0s)
Performing Cholesky decomposition & store         ...        done! (  0.2s)
Overall time for CPCM initialization              ...                 0.2s
--------------
SCF ITERATIONS
--------------
ITER       Energy         Delta-E        Max-DP      RMS-DP      [F,P]     Damp
               ***  Starting incremental Fock matrix formation  ***
  0   -804.5369044320   0.000000000000 0.09674788  0.00182960  0.2745037 0.7000
  1   -804.7581442705  -0.221239838479 0.05571526  0.00124154  0.1120967 0.7000
                               ***Turning on DIIS***
  2   -804.8470701649  -0.088925894366 0.06312394  0.00199506  0.0380148 0.0000
  3   -804.9875415381  -0.140471373270 0.03799616  0.00084905  0.0549373 0.0000
  4   -805.0161524877  -0.028610949584 0.00921093  0.00027860  0.0149292 0.0000
  5   -805.0181181197  -0.001965632015 0.00385447  0.00008650  0.0062702 0.0000
                      *** Initiating the SOSCF procedure ***
                           *** Shutting down DIIS ***
                      *** Re-Reading the Fockian *** 
                      *** Removing any level shift *** 
ITER      Energy       Delta-E        Grad      Rot      Max-DP    RMS-DP
  6   -805.01825843  -0.0001403079  0.000234  0.000234  0.001496  0.000039
               *** Restarting incremental Fock matrix formation ***
  7   -805.01830295  -0.0000445195  0.000306  0.001216  0.001890  0.000025
  8   -805.01829551   0.0000074398  0.000592  0.000855  0.001229  0.000016
  9   -805.01830689  -0.0000113822  0.000076  0.000205  0.000362  0.000005
 10   -805.01830649   0.0000004041  0.000148  0.000135  0.000249  0.000004
 11   -805.01830704  -0.0000005517  0.000004  0.000007  0.000022  0.000000
 12   -805.01830704  -0.0000000036  0.000004  0.000006  0.000012  0.000000
                  ***Gradient check signals convergence***
              ***Rediagonalizing the Fockian in SOSCF/NRSCF***

               *****************************************************
               *                     SUCCESS                       *
               *           SCF CONVERGED AFTER  13 CYCLES          *
               *****************************************************

Old exchange energy                            =    -21.902290740 Eh
New exchange energy                            =    -21.902265318 Eh
Exchange energy change after final integration =      0.000025422 Eh
Total energy after final integration           =   -805.018281609 Eh
Final COS-X integration done in                =    14.591 sec

----------------
TOTAL SCF ENERGY
----------------

Total Energy       :         -805.01828161 Eh          -21905.66110 eV

Components:
Nuclear Repulsion  :         1355.55001432 Eh           36886.39116 eV
Electronic Energy  :        -2160.56829592 Eh          -58792.05226 eV
One Electron Energy:        -3785.49553574 Eh         -103008.57038 eV
Two Electron Energy:         1624.92723981 Eh           44216.51812 eV
Max COSX asymmetry :            0.00000386 Eh               0.00010 eV
CPCM Dielectric    :           -0.02046191 Eh              -0.55680 eV

Virial components:
Potential Energy   :        -1605.29867637 Eh          -43682.39775 eV
Kinetic Energy     :          800.28039477 Eh           21776.73665 eV
Virial Ratio       :            2.00592028


DFT components:
N(Alpha)           :       67.000092008225 electrons
N(Beta)            :       67.000092008225 electrons
N(Total)           :      134.000184016449 electrons
E(X)               :      -86.948158203466 Eh       
E(C)               :       -5.316141369301 Eh       
E(XC)              :      -92.264299572767 Eh       
DFET-embed. en.    :        0.000000000000 Eh       
CPCM Solvation Model Properties:
Surface-charge          :           -0.02270273
Charge-correction       :           -0.00018547 Eh              -0.00505 eV
Free-energy (cav+disp)  :  This term is not implemented in the current solvation scheme

---------------
SCF CONVERGENCE
---------------

  Last Energy change         ...    9.8447e-09  Tolerance :   1.0000e-08
  Last MAX-Density change    ...    4.8850e-15  Tolerance :   1.0000e-07
  Last RMS-Density change    ...    4.7735e-17  Tolerance :   5.0000e-09
  Last Orbital Gradient      ...    8.6341e-07  Tolerance :   1.0000e-05
  Last Orbital Rotation      ...    3.0470e-06  Tolerance :   1.0000e-05

             **** THE GBW FILE WAS UPDATED (Nfe_water.gbw) ****
             **** DENSITY Nfe_water.scfp WAS UPDATED ****
             **** ENERGY FILE WAS UPDATED (Nfe_water.en.tmp) ****
             **** THE GBW FILE WAS UPDATED (Nfe_water.gbw) ****
             **** DENSITY Nfe_water.scfp WAS UPDATED ****
----------------
ORBITAL ENERGIES
----------------

  NO   OCC          E(Eh)            E(eV) 
   0   2.0000     -19.111295      -520.0448 
   1   2.0000     -19.110978      -520.0362 
   2   2.0000     -14.361104      -390.7855 
   3   2.0000     -14.360613      -390.7722 
   4   2.0000     -10.284956      -279.8679 
   5   2.0000     -10.281298      -279.7683 
   6   2.0000     -10.211240      -277.8620 
   7   2.0000     -10.211138      -277.8592 
   8   2.0000     -10.198406      -277.5127 
   9   2.0000     -10.195106      -277.4229 
  10   2.0000     -10.184627      -277.1378 
  11   2.0000     -10.177080      -276.9324 
  12   2.0000     -10.176956      -276.9290 
  13   2.0000     -10.175675      -276.8942 
  14   2.0000     -10.175439      -276.8878 
  15   2.0000     -10.174802      -276.8704 
  16   2.0000     -10.173727      -276.8412 
  17   2.0000     -10.172375      -276.8044 
  18   2.0000      -1.033508       -28.1232 
  19   2.0000      -1.026438       -27.9308 
  20   2.0000      -0.935645       -25.4602 
  21   2.0000      -0.928479       -25.2652 
  22   2.0000      -0.849273       -23.1099 
  23   2.0000      -0.783362       -21.3164 
  24   2.0000      -0.758876       -20.6501 
  25   2.0000      -0.736053       -20.0290 
  26   2.0000      -0.724882       -19.7251 
  27   2.0000      -0.714367       -19.4389 
  28   2.0000      -0.704727       -19.1766 
  29   2.0000      -0.670012       -18.2319 
  30   2.0000      -0.643114       -17.5000 
  31   2.0000      -0.597157       -16.2495 
  32   2.0000      -0.573169       -15.5967 
  33   2.0000      -0.551272       -15.0009 
  34   2.0000      -0.538042       -14.6409 
  35   2.0000      -0.513529       -13.9738 
  36   2.0000      -0.502333       -13.6692 
  37   2.0000      -0.484849       -13.1934 
  38   2.0000      -0.479414       -13.0455 
  39   2.0000      -0.464789       -12.6475 
  40   2.0000      -0.458643       -12.4803 
  41   2.0000      -0.453497       -12.3403 
  42   2.0000      -0.451198       -12.2777 
  43   2.0000      -0.440561       -11.9883 
  44   2.0000      -0.415622       -11.3097 
  45   2.0000      -0.414836       -11.2883 
  46   2.0000      -0.408595       -11.1184 
  47   2.0000      -0.404979       -11.0200 
  48   2.0000      -0.402567       -10.9544 
  49   2.0000      -0.395068       -10.7503 
  50   2.0000      -0.394436       -10.7331 
  51   2.0000      -0.391476       -10.6526 
  52   2.0000      -0.389824       -10.6076 
  53   2.0000      -0.380216       -10.3462 
  54   2.0000      -0.373736       -10.1699 
  55   2.0000      -0.364238        -9.9114 
  56   2.0000      -0.353466        -9.6183 
  57   2.0000      -0.348075        -9.4716 
  58   2.0000      -0.345185        -9.3930 
  59   2.0000      -0.329690        -8.9713 
  60   2.0000      -0.325714        -8.8631 
  61   2.0000      -0.261257        -7.1092 
  62   2.0000      -0.254160        -6.9160 
  63   2.0000      -0.245449        -6.6790 
  64   2.0000      -0.243949        -6.6382 
  65   2.0000      -0.238649        -6.4940 
  66   2.0000      -0.230550        -6.2736 
  67   0.0000       0.001883         0.0512 
  68   0.0000       0.004838         0.1317 
  69   0.0000       0.012608         0.3431 
  70   0.0000       0.026929         0.7328 
  71   0.0000       0.088735         2.4146 
  72   0.0000       0.100551         2.7361 
  73   0.0000       0.110683         3.0118 
  74   0.0000       0.120750         3.2858 
  75   0.0000       0.137765         3.7488 
  76   0.0000       0.143197         3.8966 
  77   0.0000       0.146342         3.9822 
  78   0.0000       0.154355         4.2002 
  79   0.0000       0.161810         4.4031 
  80   0.0000       0.164215         4.4685 
  81   0.0000       0.164768         4.4836 
  82   0.0000       0.170573         4.6415 
  83   0.0000       0.176673         4.8075 
  84   0.0000       0.178038         4.8447 
  85   0.0000       0.185068         5.0359 
  86   0.0000       0.190234         5.1765 
  87   0.0000       0.194035         5.2800 
  88   0.0000       0.202333         5.5058 
  89   0.0000       0.203697         5.5429 
  90   0.0000       0.206939         5.6311 
  91   0.0000       0.212852         5.7920 
  92   0.0000       0.225204         6.1281 
  93   0.0000       0.231043         6.2870 
  94   0.0000       0.233748         6.3606 
  95   0.0000       0.244620         6.6564 
  96   0.0000       0.248328         6.7573 
  97   0.0000       0.271850         7.3974 
  98   0.0000       0.276349         7.5198 
  99   0.0000       0.287722         7.8293 
 100   0.0000       0.314747         8.5647 
 101   0.0000       0.324894         8.8408 
 102   0.0000       0.337683         9.1888 
 103   0.0000       0.346624         9.4321 
 104   0.0000       0.357385         9.7249 
 105   0.0000       0.364100         9.9077 
 106   0.0000       0.385056        10.4779 
 107   0.0000       0.420946        11.4545 
 108   0.0000       0.465211        12.6590 
 109   0.0000       0.477510        12.9937 
 110   0.0000       0.502972        13.6866 
 111   0.0000       0.513346        13.9689 
 112   0.0000       0.517158        14.0726 
 113   0.0000       0.522873        14.2281 
 114   0.0000       0.525707        14.3052 
 115   0.0000       0.534945        14.5566 
 116   0.0000       0.551734        15.0134 
 117   0.0000       0.555424        15.1139 
 118   0.0000       0.559681        15.2297 
 119   0.0000       0.575211        15.6523 
 120   0.0000       0.583754        15.8848 
 121   0.0000       0.589514        16.0415 
 122   0.0000       0.600110        16.3298 
 123   0.0000       0.604595        16.4519 
 124   0.0000       0.606855        16.5134 
 125   0.0000       0.610782        16.6202 
 126   0.0000       0.615903        16.7596 
 127   0.0000       0.624798        17.0016 
 128   0.0000       0.627536        17.0761 
 129   0.0000       0.632802        17.2194 
 130   0.0000       0.645143        17.5552 
 131   0.0000       0.653127        17.7725 
 132   0.0000       0.663500        18.0548 
 133   0.0000       0.667963        18.1762 
 134   0.0000       0.670480        18.2447 
 135   0.0000       0.674493        18.3539 
 136   0.0000       0.701004        19.0753 
 137   0.0000       0.723672        19.6921 
 138   0.0000       0.727501        19.7963 
 139   0.0000       0.729842        19.8600 
 140   0.0000       0.748259        20.3612 
 141   0.0000       0.768939        20.9239 
 142   0.0000       0.773186        21.0395 
 143   0.0000       0.785998        21.3881 
 144   0.0000       0.803921        21.8758 
 145   0.0000       0.808252        21.9937 
 146   0.0000       0.823969        22.4213 
 147   0.0000       0.835555        22.7366 
 148   0.0000       0.842219        22.9179 
 149   0.0000       0.846707        23.0401 
 150   0.0000       0.851487        23.1701 
 151   0.0000       0.853559        23.2265 
 152   0.0000       0.864937        23.5361 
 153   0.0000       0.873599        23.7719 
 154   0.0000       0.877597        23.8806 
 155   0.0000       0.882056        24.0020 
 156   0.0000       0.897804        24.4305 
 157   0.0000       0.902461        24.5572 
 158   0.0000       0.906142        24.6574 
 159   0.0000       0.914326        24.8801 
 160   0.0000       0.921674        25.0800 
 161   0.0000       0.928487        25.2654 
 162   0.0000       0.932905        25.3856 
 163   0.0000       0.944297        25.6956 
 164   0.0000       0.961544        26.1649 
 165   0.0000       0.963745        26.2248 
 166   0.0000       0.970806        26.4170 
 167   0.0000       0.982535        26.7361 
 168   0.0000       0.991091        26.9690 
 169   0.0000       0.999913        27.2090 
 170   0.0000       1.007398        27.4127 
 171   0.0000       1.017556        27.6891 
 172   0.0000       1.019412        27.7396 
 173   0.0000       1.033379        28.1197 
 174   0.0000       1.054946        28.7066 
 175   0.0000       1.068142        29.0656 
 176   0.0000       1.097899        29.8753 
 177   0.0000       1.116613        30.3846 
 178   0.0000       1.121981        30.5307 
 179   0.0000       1.137752        30.9598 
 180   0.0000       1.152020        31.3480 
 181   0.0000       1.182877        32.1877 
 182   0.0000       1.186818        32.2950 
 183   0.0000       1.195475        32.5305 
 184   0.0000       1.234017        33.5793 
 185   0.0000       1.247603        33.9490 
 186   0.0000       1.267770        34.4978 
 187   0.0000       1.269976        34.5578 
 188   0.0000       1.303399        35.4673 
 189   0.0000       1.328244        36.1434 
 190   0.0000       1.350599        36.7517 
 191   0.0000       1.365043        37.1447 
 192   0.0000       1.385196        37.6931 
 193   0.0000       1.397061        38.0160 
 194   0.0000       1.410512        38.3820 
 195   0.0000       1.429700        38.9041 
 196   0.0000       1.434013        39.0215 
 197   0.0000       1.436485        39.0888 
 198   0.0000       1.443437        39.2779 
 199   0.0000       1.457156        39.6512 
 200   0.0000       1.472987        40.0820 
 201   0.0000       1.487580        40.4791 
 202   0.0000       1.498783        40.7840 
 203   0.0000       1.501821        40.8666 
 204   0.0000       1.510902        41.1137 
 205   0.0000       1.520224        41.3674 
 206   0.0000       1.539196        41.8837 
 207   0.0000       1.611537        43.8522 
 208   0.0000       1.634161        44.4678 
 209   0.0000       1.665833        45.3296 
 210   0.0000       1.711013        46.5590 
 211   0.0000       1.731982        47.1296 
 212   0.0000       1.751397        47.6579 
 213   0.0000       1.770418        48.1755 
 214   0.0000       1.778480        48.3949 
 215   0.0000       1.806703        49.1629 
 216   0.0000       1.824580        49.6493 
 217   0.0000       1.826234        49.6943 
 218   0.0000       1.828919        49.7674 
 219   0.0000       1.839491        50.0551 
 220   0.0000       1.852072        50.3974 
 221   0.0000       1.863772        50.7158 
 222   0.0000       1.886378        51.3310 
 223   0.0000       1.896960        51.6189 
 224   0.0000       1.910270        51.9811 
 225   0.0000       1.921013        52.2734 
 226   0.0000       1.938267        52.7429 
 227   0.0000       1.944869        52.9226 
 228   0.0000       1.949907        53.0597 
 229   0.0000       1.965981        53.4971 
 230   0.0000       1.980247        53.8853 
 231   0.0000       1.984341        53.9967 
 232   0.0000       1.988560        54.1115 
 233   0.0000       1.999564        54.4109 
 234   0.0000       2.026304        55.1385 
 235   0.0000       2.046768        55.6954 
 236   0.0000       2.055489        55.9327 
 237   0.0000       2.066619        56.2356 
 238   0.0000       2.069930        56.3257 
 239   0.0000       2.084332        56.7176 
 240   0.0000       2.088595        56.8336 
 241   0.0000       2.091442        56.9110 
 242   0.0000       2.108298        57.3697 
 243   0.0000       2.130196        57.9656 
 244   0.0000       2.149056        58.4788 
 245   0.0000       2.155874        58.6643 
 246   0.0000       2.163779        58.8794 
 247   0.0000       2.199341        59.8471 
 248   0.0000       2.206647        60.0459 
 249   0.0000       2.221732        60.4564 
 250   0.0000       2.233364        60.7729 
 251   0.0000       2.259691        61.4893 
 252   0.0000       2.272340        61.8335 
 253   0.0000       2.280503        62.0556 
 254   0.0000       2.290698        62.3331 
 255   0.0000       2.304365        62.7050 
 256   0.0000       2.314787        62.9885 
 257   0.0000       2.332523        63.4712 
 258   0.0000       2.354448        64.0678 
 259   0.0000       2.366213        64.3879 
 260   0.0000       2.392192        65.0949 
 261   0.0000       2.401864        65.3580 
 262   0.0000       2.424316        65.9690 
 263   0.0000       2.433474        66.2182 
 264   0.0000       2.447692        66.6051 
 265   0.0000       2.497835        67.9695 
 266   0.0000       2.530563        68.8601 
 267   0.0000       2.556912        69.5771 
 268   0.0000       2.569533        69.9206 
 269   0.0000       2.587233        70.4022 
 270   0.0000       2.593079        70.5613 
 271   0.0000       2.622086        71.3506 
 272   0.0000       2.639937        71.8363 
 273   0.0000       2.665830        72.5409 
 274   0.0000       2.668109        72.6029 
 275   0.0000       2.675221        72.7965 
 276   0.0000       2.707559        73.6764 
 277   0.0000       2.729871        74.2836 
 278   0.0000       2.731307        74.3226 
 279   0.0000       2.742223        74.6197 
 280   0.0000       2.755372        74.9775 
 281   0.0000       2.777211        75.5717 
 282   0.0000       2.795378        76.0661 
 283   0.0000       2.919196        79.4354 
 284   0.0000       2.944974        80.1368 
 285   0.0000       2.964711        80.6739 
 286   0.0000       3.005615        81.7869 
 287   0.0000       3.015919        82.0673 
 288   0.0000       3.064808        83.3977 
 289   0.0000       3.164431        86.1085 
 290   0.0000       3.184261        86.6481 
 291   0.0000       3.419063        93.0374 

                    ********************************
                    * MULLIKEN POPULATION ANALYSIS *
                    ********************************

-----------------------
MULLIKEN ATOMIC CHARGES
-----------------------
   0 C :   -0.562241
   1 H :    0.195245
   2 H :    0.199779
   3 H :    0.181426
   4 C :    0.529605
   5 O :   -0.536343
   6 N :   -0.369354
   7 C :   -0.246769
   8 H :    0.182497
   9 H :    0.205275
  10 C :   -0.168891
  11 H :    0.182561
  12 H :    0.178988
  13 C :   -0.369309
  14 H :    0.177061
  15 H :    0.166513
  16 C :    0.144200
  17 C :   -0.197269
  18 C :   -0.197459
  19 C :   -0.153747
  20 H :    0.150476
  21 C :   -0.151616
  22 H :    0.146158
  23 C :   -0.150494
  24 H :    0.148460
  25 H :    0.148954
  26 H :    0.147949
  27 C :    0.519948
  28 N :   -0.358096
  29 O :   -0.538612
  30 C :   -0.348050
  31 H :    0.172855
  32 H :    0.173996
  33 H :    0.196476
  34 C :   -0.331278
  35 H :    0.172703
  36 H :    0.184700
  37 H :    0.173701
Sum of atomic charges:    0.0000000

--------------------------------
MULLIKEN REDUCED ORBITAL CHARGES
--------------------------------
  0 C s       :     3.323721  s :     3.323721
      pz      :     1.088188  p :     3.206615
      px      :     1.096680
      py      :     1.021747
      dz2     :     0.002775  d :     0.031906
      dxz     :     0.009836
      dyz     :     0.007196
      dx2y2   :     0.003627
      dxy     :     0.008472
  1 H s       :     0.804755  s :     0.804755
  2 H s       :     0.800221  s :     0.800221
  3 H s       :     0.818574  s :     0.818574
  4 C s       :     2.983641  s :     2.983641
      pz      :     0.795843  p :     2.378799
      px      :     0.769920
      py      :     0.813036
      dz2     :     0.008829  d :     0.107955
      dxz     :     0.026659
      dyz     :     0.007917
      dx2y2   :     0.024266
      dxy     :     0.040284
  5 O s       :     3.862800  s :     3.862800
      pz      :     1.548330  p :     4.648629
      px      :     1.356796
      py      :     1.743504
      dz2     :     0.002382  d :     0.024913
      dxz     :     0.008364
      dyz     :     0.000243
      dx2y2   :     0.007509
      dxy     :     0.006415
  6 N s       :     3.533221  s :     3.533221
      pz      :     1.500084  p :     3.799542
      px      :     1.096472
      py      :     1.202986
      dz2     :     0.004615  d :     0.036591
      dxz     :     0.006539
      dyz     :     0.005036
      dx2y2   :     0.010057
      dxy     :     0.010345
  7 C s       :     3.249677  s :     3.249677
      pz      :     1.030747  p :     2.945194
      px      :     1.068597
      py      :     0.845850
      dz2     :     0.014564  d :     0.051898
      dxz     :     0.004994
[...]
    107      -0.000595   0.000960  -0.078336   0.028339  -0.000375  -0.000016
    108      -0.001295   0.003346  -0.370384   0.127022  -0.002467   0.000461
    109       0.001827  -0.004696   0.517849  -0.178386   0.003445  -0.000628
    110      -0.002224   0.005741  -0.634699   0.217448  -0.004225   0.000782
    111      -0.000589   0.001833  -0.192320   0.062621  -0.001296   0.000064
    112      -0.000402   0.001213  -0.124900   0.039348  -0.000826   0.000024
    113      -0.000311   0.000995  -0.103413   0.033376  -0.000696   0.000019


-----------
IR SPECTRUM
-----------

 Mode   freq       eps      Int      T**2         TX        TY        TZ
       cm**-1   L/(mol*cm) km/mol    a.u.
----------------------------------------------------------------------------
  6:     21.54   0.000051    0.26  0.000732  (-0.026100 -0.001904 -0.006857)
  7:     35.36   0.000082    0.42  0.000726  ( 0.007102  0.022310 -0.013325)
  8:     43.54   0.000680    3.44  0.004873  ( 0.067925 -0.007338 -0.014334)
  9:     63.56   0.001585    8.01  0.007783  ( 0.043886  0.045285 -0.061695)
 10:     79.68   0.000165    0.83  0.000647  ( 0.004660 -0.011829 -0.022029)
 11:     84.53   0.001179    5.96  0.004351  ( 0.033283  0.056945  0.000801)
 12:     87.53   0.000168    0.85  0.000600  ( 0.012002 -0.016393 -0.013679)
 13:    114.87   0.000602    3.04  0.001636  (-0.005578 -0.015621 -0.036884)
 14:    120.17   0.002157   10.90  0.005601  (-0.007735  0.053952  0.051288)
 15:    132.91   0.001320    6.67  0.003099  ( 0.019956  0.050521  0.012160)
 16:    162.39   0.000385    1.95  0.000740  ( 0.005080  0.023892 -0.011985)
 17:    170.62   0.000037    0.19  0.000067  (-0.004999  0.000267 -0.006508)
 18:    217.89   0.000072    0.36  0.000103  (-0.006659  0.001798  0.007438)
 19:    238.85   0.000747    3.77  0.000976  ( 0.020999  0.021768 -0.007814)
 20:    271.99   0.002615   13.22  0.003001  ( 0.040754  0.036237 -0.005162)
 21:    291.25   0.000314    1.58  0.000336  ( 0.009097 -0.003675  0.015482)
 22:    332.67   0.000630    3.18  0.000591  (-0.000276 -0.022063  0.010195)
 23:    354.26   0.002268   11.46  0.001998  ( 0.020985  0.010895  0.037934)
 24:    368.09   0.002085   10.54  0.001768  (-0.009927  0.033274  0.023706)
 25:    389.06   0.002521   12.74  0.002022  ( 0.010524 -0.020106 -0.038825)
 26:    418.43   0.000025    0.13  0.000019  ( 0.004108 -0.000144 -0.001295)
 27:    435.46   0.000224    1.13  0.000160  ( 0.003247  0.011635  0.003802)
 28:    462.94   0.003026   15.29  0.002040  (-0.042273  0.015546  0.003363)
 29:    495.61   0.004328   21.87  0.002725  (-0.028568 -0.039813  0.017991)
 30:    516.38   0.003733   18.86  0.002256  (-0.014147  0.011518  0.043853)
 31:    562.86   0.003227   16.31  0.001789  ( 0.028811 -0.030085  0.007341)
 32:    585.47   0.002658   13.43  0.001417  ( 0.001937  0.025464  0.027650)
 33:    600.69   0.003587   18.13  0.001864  (-0.014952  0.027633  0.029607)
 34:    634.21   0.000062    0.31  0.000031  (-0.003894 -0.003078 -0.002422)
 35:    642.29   0.002736   13.83  0.001329  (-0.011789  0.010265 -0.032940)
 36:    701.52   0.001017    5.14  0.000453  ( 0.018949  0.002419  0.009364)
 37:    718.65   0.007798   39.41  0.003386  ( 0.002408 -0.029507 -0.050099)
 38:    760.12   0.006999   35.37  0.002873  (-0.000878 -0.031644 -0.043259)
 39:    770.50   0.001733    8.76  0.000702  (-0.014110 -0.008370  0.020805)
 40:    781.36   0.001738    8.78  0.000694  ( 0.000949 -0.025832 -0.005102)
 41:    813.97   0.002777   14.03  0.001065  ( 0.022298  0.005137  0.023262)
 42:    860.31   0.002579   13.03  0.000935  (-0.018089 -0.008760 -0.023052)
 43:    869.36   0.000076    0.38  0.000027  ( 0.004265  0.002892  0.000857)
 44:    932.03   0.000358    1.81  0.000120  (-0.000156 -0.005559 -0.009428)
 45:    962.54   0.000856    4.32  0.000277  ( 0.011841  0.003529  0.011167)
 46:    980.27   0.000006    0.03  0.000002  (-0.001341  0.000072  0.000152)
 47:   1002.64   0.004308   21.77  0.001341  (-0.018299 -0.009766 -0.030175)
 48:   1003.57   0.000328    1.66  0.000102  (-0.008167  0.000245 -0.005934)
 49:   1010.18   0.006074   30.70  0.001876  ( 0.027152 -0.023248 -0.024468)
 50:   1015.33   0.000075    0.38  0.000023  (-0.003091  0.003431 -0.001369)
 51:   1028.54   0.009084   45.91  0.002756  (-0.023639  0.042320 -0.020157)
 52:   1034.11   0.005272   26.64  0.001591  (-0.021372  0.015645  0.029825)
 53:   1055.73   0.001698    8.58  0.000502  ( 0.022082 -0.001484  0.003491)
 54:   1061.30   0.002186   11.05  0.000643  ( 0.001463  0.011471  0.022564)
 55:   1086.87   0.003633   18.36  0.001043  ( 0.022316 -0.014511  0.018289)
 56:   1091.15   0.001515    7.66  0.000433  ( 0.004461 -0.015405 -0.013268)
 57:   1121.12   0.002780   14.05  0.000774  ( 0.011741 -0.006022  0.024488)
 58:   1135.30   0.000623    3.15  0.000171  (-0.001586  0.012884 -0.001673)
 59:   1170.30   0.014406   72.80  0.003841  ( 0.039987  0.020727  0.042576)
 60:   1182.32   0.000069    0.35  0.000018  ( 0.002611 -0.001104  0.003192)
 61:   1184.85   0.000860    4.35  0.000227  (-0.007821 -0.003251 -0.012445)
 62:   1205.02   0.000018    0.09  0.000005  (-0.000210 -0.000120 -0.002121)
 63:   1218.64   0.010538   53.26  0.002699  (-0.000917  0.019677 -0.048068)
 64:   1235.82   0.002260   11.42  0.000571  ( 0.015780 -0.017531  0.003795)
 65:   1250.96   0.014637   73.97  0.003651  ( 0.035930 -0.047324  0.010996)
 66:   1285.56   0.007980   40.33  0.001937  ( 0.011236 -0.009197 -0.041547)
 67:   1290.32   0.032699  165.25  0.007908  ( 0.013378 -0.086124  0.017662)
 68:   1332.92   0.000060    0.30  0.000014  (-0.001094 -0.002282  0.002769)
 69:   1336.28   0.003385   17.11  0.000790  ( 0.019200 -0.020430  0.002112)
 70:   1361.27   0.000315    1.59  0.000072  ( 0.000151 -0.007761  0.003448)
 71:   1370.72   0.000743    3.76  0.000169  ( 0.007821 -0.006138  0.008387)
 72:   1373.67   0.000336    1.70  0.000076  (-0.003796 -0.007539 -0.002234)
 73:   1406.62   0.012847   64.92  0.002850  (-0.051701  0.009646  0.009166)
 74:   1413.54   0.006325   31.96  0.001396  ( 0.020877 -0.028761  0.011541)
 75:   1442.27   0.015578   78.73  0.003371  (-0.016690 -0.021856 -0.051131)
 76:   1457.95   0.016951   85.67  0.003628  ( 0.005547  0.047357  0.036808)
 77:   1474.84   0.048814  246.69  0.010329  (-0.060744  0.076672 -0.027571)
 78:   1482.66   0.003781   19.11  0.000796  (-0.026705 -0.008975  0.001429)
 79:   1489.67   0.000683    3.45  0.000143  ( 0.007704 -0.001374 -0.009042)
 80:   1497.76   0.003276   16.56  0.000683  ( 0.002668 -0.018890  0.017850)
 81:   1501.47   0.001074    5.43  0.000223  (-0.008801 -0.004170 -0.011327)
 82:   1504.73   0.003662   18.50  0.000759  ( 0.005721  0.020263 -0.017777)
 83:   1510.30   0.002724   13.77  0.000563  (-0.007028  0.022596 -0.001701)
 84:   1512.14   0.002628   13.28  0.000542  (-0.002639  0.023007  0.002464)
 85:   1518.34   0.003573   18.06  0.000734  (-0.024500 -0.011415  0.001965)
 86:   1529.98   0.005853   29.58  0.001194  ( 0.029333 -0.006369  0.017111)
 87:   1532.85   0.007405   37.42  0.001508  (-0.013647 -0.019002  0.030988)
 88:   1543.12   0.005015   25.35  0.001014  (-0.031083  0.003626 -0.005910)
 89:   1555.27   0.017548   88.68  0.003521  (-0.004258  0.037223  0.046014)
 90:   1639.94   0.000237    1.20  0.000045  (-0.000559  0.005451 -0.003878)
 91:   1661.02   0.002948   14.90  0.000554  ( 0.023118 -0.003068  0.003168)
 92:   1701.43   0.210655  1064.56  0.038637  (-0.158181  0.053809 -0.103537)
 93:   1706.89   0.038845  196.30  0.007102  (-0.056797 -0.005895  0.061977)
 94:   3036.27   0.005339   26.98  0.000549  (-0.014048  0.016464 -0.008961)
 95:   3040.74   0.018452   93.25  0.001894  ( 0.004861 -0.006444 -0.042762)
 96:   3065.36   0.000706    3.57  0.000072  ( 0.006940  0.004471  0.001923)
 97:   3072.95   0.003703   18.71  0.000376  ( 0.009610 -0.007587  0.015037)
 98:   3084.82   0.003339   16.87  0.000338  (-0.008435 -0.010010  0.012900)
 99:   3087.95   0.013882   70.15  0.001403  ( 0.018221 -0.000206  0.032724)
100:   3098.46   0.011354   57.38  0.001143  ( 0.028035  0.018704  0.002767)
101:   3106.57   0.005802   29.32  0.000583  (-0.019179 -0.014486 -0.002270)
102:   3117.82   0.001429    7.22  0.000143  ( 0.004976  0.010861 -0.000512)
103:   3133.80   0.001934    9.77  0.000193  (-0.001087  0.003437  0.013401)
104:   3140.32   0.008338   42.14  0.000829  ( 0.003124  0.027848 -0.006581)
105:   3168.23   0.001646    8.32  0.000162  ( 0.001454  0.011741  0.004706)
106:   3171.67   0.002905   14.68  0.000286  ( 0.014216 -0.008460  0.003488)
107:   3178.95   0.001930    9.75  0.000189  ( 0.012107 -0.004839  0.004409)
108:   3181.10   0.000701    3.54  0.000069  ( 0.001120  0.007402 -0.003567)
109:   3190.79   0.002336   11.81  0.000228  (-0.014111  0.003339 -0.004267)
110:   3194.39   0.001171    5.92  0.000114  ( 0.002047 -0.009669  0.004092)
111:   3196.37   0.000467    2.36  0.000046  (-0.006178 -0.002679 -0.000463)
112:   3198.38   0.011430   57.76  0.001115  (-0.004969 -0.029242  0.015345)
113:   3209.67   0.005685   28.73  0.000553  (-0.023242  0.002328 -0.002662)

* The epsilon (eps) is given for a Dirac delta lineshape.
** The dipole moment derivative (T) already includes vibrational overlap.

The first frequency considered to be a vibration is 6
The total number of vibrations considered is 108


--------------------------
THERMOCHEMISTRY AT 298.15K
--------------------------

Temperature         ... 298.15 K
Pressure            ... 1.00 atm
Total Mass          ... 248.33 AMU

Throughout the following assumptions are being made:
  (1) The electronic state is orbitally nondegenerate
  (2) There are no thermally accessible electronically excited states
  (3) Hindered rotations indicated by low frequency modes are not
      treated as such but are treated as vibrations and this may
      cause some error
  (4) All equations used are the standard statistical mechanics
      equations for an ideal gas
  (5) All vibrations are strictly harmonic

freq.      21.54  E(vib)   ...       0.56 
freq.      35.36  E(vib)   ...       0.54 
freq.      43.54  E(vib)   ...       0.53 
freq.      63.56  E(vib)   ...       0.51 
freq.      79.68  E(vib)   ...       0.49 
freq.      84.53  E(vib)   ...       0.48 
freq.      87.53  E(vib)   ...       0.48 
freq.     114.87  E(vib)   ...       0.44 
freq.     120.17  E(vib)   ...       0.44 
freq.     132.91  E(vib)   ...       0.42 
freq.     162.39  E(vib)   ...       0.39 
freq.     170.62  E(vib)   ...       0.38 
freq.     217.89  E(vib)   ...       0.33 
freq.     238.85  E(vib)   ...       0.32 
freq.     271.99  E(vib)   ...       0.29 
freq.     291.25  E(vib)   ...       0.27 
freq.     332.67  E(vib)   ...       0.24 
freq.     354.26  E(vib)   ...       0.22 
freq.     368.09  E(vib)   ...       0.21 
freq.     389.06  E(vib)   ...       0.20 
freq.     418.43  E(vib)   ...       0.18 
freq.     435.46  E(vib)   ...       0.17 
freq.     462.94  E(vib)   ...       0.16 
freq.     495.61  E(vib)   ...       0.14 
freq.     516.38  E(vib)   ...       0.13 
freq.     562.86  E(vib)   ...       0.11 
freq.     585.47  E(vib)   ...       0.11 
freq.     600.69  E(vib)   ...       0.10 
freq.     634.21  E(vib)   ...       0.09 
freq.     642.29  E(vib)   ...       0.09 
freq.     701.52  E(vib)   ...       0.07 
freq.     718.65  E(vib)   ...       0.07 
freq.     760.12  E(vib)   ...       0.06 
freq.     770.50  E(vib)   ...       0.05 
freq.     781.36  E(vib)   ...       0.05 
freq.     813.97  E(vib)   ...       0.05 
freq.     860.31  E(vib)   ...       0.04 
freq.     869.36  E(vib)   ...       0.04 
freq.     932.03  E(vib)   ...       0.03 
freq.     962.54  E(vib)   ...       0.03 
freq.     980.27  E(vib)   ...       0.02 
freq.    1002.64  E(vib)   ...       0.02 
freq.    1003.57  E(vib)   ...       0.02 
freq.    1010.18  E(vib)   ...       0.02 
freq.    1015.33  E(vib)   ...       0.02 
freq.    1028.54  E(vib)   ...       0.02 
freq.    1034.11  E(vib)   ...       0.02 
freq.    1055.73  E(vib)   ...       0.02 
freq.    1061.30  E(vib)   ...       0.02 
freq.    1086.87  E(vib)   ...       0.02 
freq.    1091.15  E(vib)   ...       0.02 
freq.    1121.12  E(vib)   ...       0.01 
freq.    1135.30  E(vib)   ...       0.01 
freq.    1170.30  E(vib)   ...       0.01 
freq.    1182.32  E(vib)   ...       0.01 
freq.    1184.85  E(vib)   ...       0.01 
freq.    1205.02  E(vib)   ...       0.01 
freq.    1218.64  E(vib)   ...       0.01 
freq.    1235.82  E(vib)   ...       0.01 
freq.    1250.96  E(vib)   ...       0.01 
freq.    1285.56  E(vib)   ...       0.01 
freq.    1290.32  E(vib)   ...       0.01 
freq.    1332.92  E(vib)   ...       0.01 
freq.    1336.28  E(vib)   ...       0.01 
freq.    1361.27  E(vib)   ...       0.01 
freq.    1370.72  E(vib)   ...       0.01 
freq.    1373.67  E(vib)   ...       0.01 
freq.    1406.62  E(vib)   ...       0.00 
freq.    1413.54  E(vib)   ...       0.00 
freq.    1442.27  E(vib)   ...       0.00 
freq.    1457.95  E(vib)   ...       0.00 
freq.    1474.84  E(vib)   ...       0.00 
freq.    1482.66  E(vib)   ...       0.00 
freq.    1489.67  E(vib)   ...       0.00 
freq.    1497.76  E(vib)   ...       0.00 
freq.    1501.47  E(vib)   ...       0.00 
freq.    1504.73  E(vib)   ...       0.00 
freq.    1510.30  E(vib)   ...       0.00 
freq.    1512.14  E(vib)   ...       0.00 
freq.    1518.34  E(vib)   ...       0.00 
freq.    1529.98  E(vib)   ...       0.00 
freq.    1532.85  E(vib)   ...       0.00 
freq.    1543.12  E(vib)   ...       0.00 
freq.    1555.27  E(vib)   ...       0.00 
freq.    1639.94  E(vib)   ...       0.00 
freq.    1661.02  E(vib)   ...       0.00 
freq.    1701.43  E(vib)   ...       0.00 
freq.    1706.89  E(vib)   ...       0.00 
freq.    3036.27  E(vib)   ...       0.00 
freq.    3040.74  E(vib)   ...       0.00 
freq.    3065.36  E(vib)   ...       0.00 
freq.    3072.95  E(vib)   ...       0.00 
freq.    3084.82  E(vib)   ...       0.00 
freq.    3087.95  E(vib)   ...       0.00 
freq.    3098.46  E(vib)   ...       0.00 
freq.    3106.57  E(vib)   ...       0.00 
freq.    3117.82  E(vib)   ...       0.00 
freq.    3133.80  E(vib)   ...       0.00 
freq.    3140.32  E(vib)   ...       0.00 
freq.    3168.23  E(vib)   ...       0.00 
freq.    3171.67  E(vib)   ...       0.00 
freq.    3178.95  E(vib)   ...       0.00 
freq.    3181.10  E(vib)   ...       0.00 
freq.    3190.79  E(vib)   ...       0.00 
freq.    3194.39  E(vib)   ...       0.00 
freq.    3196.37  E(vib)   ...       0.00 
freq.    3198.38  E(vib)   ...       0.00 
freq.    3209.67  E(vib)   ...       0.00 

------------
INNER ENERGY
------------

The inner energy is: U= E(el) + E(ZPE) + E(vib) + E(rot) + E(trans)
    E(el)   - is the total energy from the electronic structure calculation
              = E(kin-el) + E(nuc-el) + E(el-el) + E(nuc-nuc)
    E(ZPE)  - the the zero temperature vibrational energy from the frequency calculation
    E(vib)  - the the finite temperature correction to E(ZPE) due to population
              of excited vibrational states
    E(rot)  - is the rotational thermal energy
    E(trans)- is the translational thermal energy

Summary of contributions to the inner energy U:
Electronic energy                ...   -805.09083657 Eh
Zero point energy                ...      0.32643325 Eh     204.84 kcal/mol
Thermal vibrational correction   ...      0.01584661 Eh       9.94 kcal/mol
Thermal rotational correction    ...      0.00141627 Eh       0.89 kcal/mol
Thermal translational correction ...      0.00141627 Eh       0.89 kcal/mol
-----------------------------------------------------------------------
Total thermal energy                   -804.74572417 Eh


Summary of corrections to the electronic energy:
(perhaps to be used in another calculation)
Total thermal correction                  0.01867915 Eh      11.72 kcal/mol
Non-thermal (ZPE) correction              0.32643325 Eh     204.84 kcal/mol
-----------------------------------------------------------------------
Total correction                          0.34511240 Eh     216.56 kcal/mol


--------
ENTHALPY
--------

The enthalpy is H = U + kB*T
                kB is Boltzmann's constant
Total free energy                 ...   -804.74572417 Eh 
Thermal Enthalpy correction       ...      0.00094421 Eh       0.59 kcal/mol
-----------------------------------------------------------------------
Total Enthalpy                    ...   -804.74477996 Eh


Note: Only C1 symmetry has been detected, increase convergence thresholds 
      if your molecule has a higher symmetry. Symmetry factor of 1.0 is   
      used for the rotational entropy correction. 
 

Note: Rotational entropy computed according to Herzberg 
Infrared and Raman Spectra, Chapter V,1, Van Nostrand Reinhold, 1945 
Point Group:  C1, Symmetry Number:   1  
Rotational constants in cm-1:     0.019622     0.008909     0.006997 

Vibrational entropy computed according to the QRRHO of S. Grimme
Chem.Eur.J. 2012 18 9955


-------
ENTROPY
-------

The entropy contributions are T*S = T*(S(el)+S(vib)+S(rot)+S(trans))
     S(el)   - electronic entropy
     S(vib)  - vibrational entropy
     S(rot)  - rotational entropy
     S(trans)- translational entropy
The entropies will be listed as multiplied by the temperature to get
units of energy

Electronic entropy                ...      0.00000000 Eh      0.00 kcal/mol
Vibrational entropy               ...      0.02858059 Eh     17.93 kcal/mol
Rotational entropy                ...      0.01593794 Eh     10.00 kcal/mol
Translational entropy             ...      0.02015944 Eh     12.65 kcal/mol
-----------------------------------------------------------------------
Final entropy term                ...      0.06467797 Eh     40.59 kcal/mol

In case the symmetry of your molecule has not been determined correctly
or in case you have a reason to use a different symmetry number we print 
out the resulting rotational entropy values for sn=1,12 :
 --------------------------------------------------------
|  sn= 1 | S(rot)=       0.01593794 Eh     10.00 kcal/mol|
|  sn= 2 | S(rot)=       0.01528348 Eh      9.59 kcal/mol|
|  sn= 3 | S(rot)=       0.01490065 Eh      9.35 kcal/mol|
|  sn= 4 | S(rot)=       0.01462902 Eh      9.18 kcal/mol|
|  sn= 5 | S(rot)=       0.01441834 Eh      9.05 kcal/mol|
|  sn= 6 | S(rot)=       0.01424619 Eh      8.94 kcal/mol|
|  sn= 7 | S(rot)=       0.01410065 Eh      8.85 kcal/mol|
|  sn= 8 | S(rot)=       0.01397457 Eh      8.77 kcal/mol|
|  sn= 9 | S(rot)=       0.01386336 Eh      8.70 kcal/mol|
|  sn=10 | S(rot)=       0.01376388 Eh      8.64 kcal/mol|
|  sn=11 | S(rot)=       0.01367389 Eh      8.58 kcal/mol|
|  sn=12 | S(rot)=       0.01359174 Eh      8.53 kcal/mol|
 --------------------------------------------------------


-------------------
GIBBS FREE ENERGY
-------------------

The Gibbs free energy is G = H - T*S

Total enthalpy                    ...   -804.74477996 Eh 
Total entropy correction          ...     -0.06467797 Eh    -40.59 kcal/mol
-----------------------------------------------------------------------
Final Gibbs free energy         ...   -804.80945794 Eh

For completeness - the Gibbs free energy minus the electronic energy
G-E(el)                           ...      0.28137864 Eh    176.57 kcal/mol


Timings for individual modules:

Sum of individual times         ...     2114.437 sec (=  35.241 min)
GTO integral calculation        ...       17.183 sec (=   0.286 min)   0.8 %
SCF iterations                  ...      846.776 sec (=  14.113 min)  40.0 %
SCF Gradient evaluation         ...      239.682 sec (=   3.995 min)  11.3 %
Geometry relaxation             ...        1.125 sec (=   0.019 min)   0.1 %
Analytical frequency calculation...     1009.671 sec (=  16.828 min)  47.8 %
                             ****ORCA TERMINATED NORMALLY****
TOTAL RUN TIME: 0 days 0 hours 35 minutes 18 seconds 824 msec
