
                                 *****************
                                 * O   R   C   A *
                                 *****************

                                            #,                                       
                                            ###                                      
                                            ####                                     
                                            #####                                    
                                            ######                                   
                                           ########,                                 
                                     ,,################,,,,,                         
                               ,,#################################,,                 
                          ,,##########################################,,             
                       ,#########################################, ''#####,          
                    ,#############################################,,   '####,        
                  ,##################################################,,,,####,       
                ,###########''''           ''''###############################       
              ,#####''   ,,,,##########,,,,          '''####'''          '####       
            ,##' ,,,,###########################,,,                        '##       
           ' ,,###''''                  '''############,,,                           
         ,,##''                                '''############,,,,        ,,,,,,###''
      ,#''                                            '''#######################'''  
     '                                                          ''''####''''         
             ,#######,   #######,   ,#######,      ##                                
            ,#'     '#,  ##    ##  ,#'     '#,    #''#        ######   ,####,        
            ##       ##  ##   ,#'  ##            #'  '#       #        #'  '#        
            ##       ##  #######   ##           ,######,      #####,   #    #        
            '#,     ,#'  ##    ##  '#,     ,#' ,#      #,         ##   #,  ,#        
             '#######'   ##     ##  '#######'  #'      '#     #####' # '####'        



                  #######################################################
                  #                        -***-                        #
                  #          Department of theory and spectroscopy      #
                  #    Directorship and core code : Frank Neese         #
                  #        Max Planck Institute fuer Kohlenforschung    #
                  #                Kaiser Wilhelm Platz 1               #
                  #                 D-45470 Muelheim/Ruhr               #
                  #                      Germany                        #
                  #                                                     #
                  #                  All rights reserved                #
                  #                        -***-                        #
                  #######################################################


                         Program Version 5.0.4 -  RELEASE  -


 With contributions from (in alphabetic order):
   Daniel Aravena         : Magnetic Suceptibility
   Michael Atanasov       : Ab Initio Ligand Field Theory (pilot matlab implementation)
   Alexander A. Auer      : GIAO ZORA, VPT2 properties, NMR spectrum
   Ute Becker             : Parallelization
   Giovanni Bistoni       : ED, misc. LED, open-shell LED, HFLD
   Martin Brehm           : Molecular dynamics
   Dmytro Bykov           : SCF Hessian
   Vijay G. Chilkuri      : MRCI spin determinant printing, contributions to CSF-ICE
   Dipayan Datta          : RHF DLPNO-CCSD density
   Achintya Kumar Dutta   : EOM-CC, STEOM-CC
   Dmitry Ganyushin       : Spin-Orbit,Spin-Spin,Magnetic field MRCI
   Miquel Garcia          : C-PCM and meta-GGA Hessian, CC/C-PCM, Gaussian charge scheme
   Yang Guo               : DLPNO-NEVPT2, F12-NEVPT2, CIM, IAO-localization
   Andreas Hansen         : Spin unrestricted coupled pair/coupled cluster methods
   Benjamin Helmich-Paris : MC-RPA, TRAH-SCF, COSX integrals
   Lee Huntington         : MR-EOM, pCC
   Robert Izsak           : Overlap fitted RIJCOSX, COSX-SCS-MP3, EOM
   Marcus Kettner         : VPT2
   Christian Kollmar      : KDIIS, OOCD, Brueckner-CCSD(T), CCSD density, CASPT2, CASPT2-K
   Simone Kossmann        : Meta GGA functionals, TD-DFT gradient, OOMP2, MP2 Hessian
   Martin Krupicka        : Initial AUTO-CI
   Lucas Lang             : DCDCAS
   Marvin Lechner         : AUTO-CI (C++ implementation), FIC-MRCC
   Dagmar Lenk            : GEPOL surface, SMD
   Dimitrios Liakos       : Extrapolation schemes; Compound Job, initial MDCI parallelization
   Dimitrios Manganas     : Further ROCIS development; embedding schemes
   Dimitrios Pantazis     : SARC Basis sets
   Anastasios Papadopoulos: AUTO-CI, single reference methods and gradients
   Taras Petrenko         : DFT Hessian,TD-DFT gradient, ASA, ECA, R-Raman, ABS, FL, XAS/XES, NRVS
   Peter Pinski           : DLPNO-MP2, DLPNO-MP2 Gradient
   Christoph Reimann      : Effective Core Potentials
   Marius Retegan         : Local ZFS, SOC
   Christoph Riplinger    : Optimizer, TS searches, QM/MM, DLPNO-CCSD(T), (RO)-DLPNO pert. Triples
   Tobias Risthaus        : Range-separated hybrids, TD-DFT gradient, RPA, STAB
   Michael Roemelt        : Original ROCIS implementation
   Masaaki Saitow         : Open-shell DLPNO-CCSD energy and density
   Barbara Sandhoefer     : DKH picture change effects
   Avijit Sen             : IP-ROCIS
   Kantharuban Sivalingam : CASSCF convergence, NEVPT2, FIC-MRCI
   Bernardo de Souza      : ESD, SOC TD-DFT
   Georgi Stoychev        : AutoAux, RI-MP2 NMR, DLPNO-MP2 response
   Willem Van den Heuvel  : Paramagnetic NMR
   Boris Wezisla          : Elementary symmetry handling
   Frank Wennmohs         : Technical directorship


 We gratefully acknowledge several colleagues who have allowed us to
 interface, adapt or use parts of their codes:
   Stefan Grimme, W. Hujo, H. Kruse, P. Pracht,  : VdW corrections, initial TS optimization,
                  C. Bannwarth, S. Ehlert          DFT functionals, gCP, sTDA/sTD-DF
   Ed Valeev, F. Pavosevic, A. Kumar             : LibInt (2-el integral package), F12 methods
   Garnet Chan, S. Sharma, J. Yang, R. Olivares  : DMRG
   Ulf Ekstrom                                   : XCFun DFT Library
   Mihaly Kallay                                 : mrcc  (arbitrary order and MRCC methods)
   Jiri Pittner, Ondrej Demel                    : Mk-CCSD
   Frank Weinhold                                : gennbo (NPA and NBO analysis)
   Christopher J. Cramer and Donald G. Truhlar   : smd solvation model
   Lars Goerigk                                  : TD-DFT with DH, B97 family of functionals
   V. Asgeirsson, H. Jonsson                     : NEB implementation
   FAccTs GmbH                                   : IRC, NEB, NEB-TS, DLPNO-Multilevel, CI-OPT
                                                   MM, QMMM, 2- and 3-layer-ONIOM, Crystal-QMMM,
                                                   LR-CPCM, SF, NACMEs, symmetry and pop. for TD-DFT,
                                                   nearIR, NL-DFT gradient (VV10), updates on ESD,
                                                   ML-optimized integration grids
   S Lehtola, MJT Oliveira, MAL Marques          : LibXC Library
   Liviu Ungur et al                             : ANISO software


 Your calculation uses the libint2 library for the computation of 2-el integrals
 For citations please refer to: http://libint.valeyev.net

 Your ORCA version has been built with support for libXC version: 5.1.0
 For citations please refer to: https://tddft.org/programs/libxc/

 This ORCA versions uses:
   CBLAS   interface :  Fast vector & matrix operations
   LAPACKE interface :  Fast linear algebra routines
   SCALAPACK package :  Parallel linear algebra routines
   Shared memory     :  Shared parallel matrices
   BLAS/LAPACK       :  OpenBLAS 0.3.15  USE64BITINT DYNAMIC_ARCH NO_AFFINITY SkylakeX SINGLE_THREADED
        Core in use  :  SkylakeX
   Copyright (c) 2011-2014, The OpenBLAS Project




***************************************
The coordinates will be read from file: /users/fjb15167/WWenergy/structures/Ns.xyz
***************************************


Your calculation utilizes the atom-pairwise dispersion correction
based on tight binding partial charges (D4)
Cite in your paper:
E.Caldeweyher, C.Bannwarth, S.Grimme, J.Chem.Phys., (2017), 147, 034112.
E.Caldeweyher, S.Ehlert, A.Hansen, H.Neugebauer, S.Grimme, J.Chem.Phys., (2018), in progress.
   

================================================================================

----- Orbital basis set information -----
Your calculation utilizes the basis: 6-31G(d)
   H-He, Li-Ne : W. J. Hehre, R. Ditchfield and J.A. Pople, J. Chem. Phys. 56, 2257 (1972).
                 Note: He and Ne are unpublished basis sets taken from the Gaussian program.
                 Note: Li and B from J. D. Dill and J. A. Pople, J. Chem. Phys. 62, 2921 (1975).
   Na - Ar     : M. M. Francl, W. J. Pietro, W. J. Hehre, J. S. Binkley, M. S. Gordon, 
                 D. J. DeFrees and J. A. Pople, J. Chem. Phys. 77, 3654 (1982).
   K - Zn      : V. A. Rassolov, J. A. Pople, M. A. Ratner, and T. L. Windus, J. Chem. Phys. 109, 1223 (1998).

----- AuxJ basis set information -----
Your calculation utilizes the AutoAux generation procedure.
  G. L. Stoychev, A. A. Auer, F. Neese, J. Chem. Theory Comput. 13, 554 (2017)

----- AuxC basis set information -----
Your calculation utilizes the AutoAux generation procedure.
  G. L. Stoychev, A. A. Auer, F. Neese, J. Chem. Theory Comput. 13, 554 (2017)

----- AuxJK basis set information -----
Your calculation utilizes the AutoAux generation procedure.
  G. L. Stoychev, A. A. Auer, F. Neese, J. Chem. Theory Comput. 13, 554 (2017)

================================================================================
                                        WARNINGS
                       Please study these warnings very carefully!
================================================================================


WARNING: Geometry Optimization
  ===> : Switching off AutoStart
         For restart on a previous wavefunction, please use MOREAD

INFO   : the flag for use of the SHARK integral package has been found!

================================================================================
                                       INPUT FILE
================================================================================
NAME = Ns_gas.inp
|  1> ! OPT FREQ B3LYP 6-31G(d) D4 AUTOAUX
|  2> 
|  3> %PAL NPROCS 4 END
|  4> 
|  5> %maxcore 3375
|  6> 
|  7> *xyzfile 0 1 /users/fjb15167/WWenergy/structures/Ns.xyz
|  8> 
|  9>                          ****END OF INPUT****
================================================================================

                       *****************************
                       * Geometry Optimization Run *
                       *****************************

Geometry optimization settings:
Update method            Update   .... BFGS
Choice of coordinates    CoordSys .... Z-matrix Internals
Initial Hessian          InHess   .... Almoef's Model

Convergence Tolerances:
Energy Change            TolE     ....  5.0000e-06 Eh
Max. Gradient            TolMAXG  ....  3.0000e-04 Eh/bohr
RMS Gradient             TolRMSG  ....  1.0000e-04 Eh/bohr
Max. Displacement        TolMAXD  ....  4.0000e-03 bohr
RMS Displacement         TolRMSD  ....  2.0000e-03 bohr
Strict Convergence                ....  False
------------------------------------------------------------------------------
                        ORCA OPTIMIZATION COORDINATE SETUP
------------------------------------------------------------------------------

The optimization will be done in new redundant internal coordinates
Making redundant internal coordinates   ...  (new redundants) done
Evaluating the initial hessian          ...  (Almloef) done
Evaluating the coordinates              ...  done
Calculating the B-matrix                .... done
Calculating the G-matrix                .... done
Diagonalizing the G-matrix              .... done
Small eigenvalue found = 7.989e-03
Small eigenvalue found = 1.341e-02
Small eigenvalue found = 2.143e-02
The first mode is                       ....   43
The number of degrees of freedom        ....   72

    -----------------------------------------------------------------
                    Redundant Internal Coordinates


    -----------------------------------------------------------------
         Definition                    Initial Value    Approx d2E/dq
    -----------------------------------------------------------------
      1. B(O   4,C   0)                  1.2131         1.071928   
      2. B(C   5,H   3)                  1.0896         0.360607   
      3. B(C   5,C   0)                  1.5271         0.377598   
      4. B(C   5,H   1)                  1.0922         0.357218   
      5. B(C   5,H   2)                  1.0941         0.354734   
      6. B(N   6,C   0)                  1.3928         0.553828   
      7. B(C   7,N   6)                  1.4636         0.427020   
      8. B(H   8,C   7)                  1.0901         0.359995   
      9. B(H   9,C   7)                  1.0957         0.352676   
     10. B(C  10,N   6)                  1.4517         0.446095   
     11. B(H  11,C  10)                  1.0878         0.363044   
     12. B(H  12,C  10)                  1.0947         0.353961   
     13. B(O  13,C  10)                  1.4208         0.499713   
     14. B(H  14,O  13)                  0.9750         0.492112   
     15. B(C  15,C   7)                  1.5227         0.383706   
     16. B(O  16,C  15)                  1.2415         0.965687   
     17. B(N  17,C  15)                  1.3638         0.616183   
     18. B(C  18,N  17)                  1.4550         0.440752   
     19. B(H  19,C  18)                  1.0941         0.354767   
     20. B(H  20,C  18)                  1.0874         0.363514   
     21. B(H  21,C  18)                  1.0973         0.350561   
     22. B(C  22,N  17)                  1.4544         0.441719   
     23. B(H  23,C  22)                  1.0981         0.349551   
     24. B(H  24,C  22)                  1.0864         0.364842   
     25. B(H  25,C  22)                  1.0952         0.353277   
     26. A(C   5,C   0,N   6)          115.2167         0.387178   
     27. A(O   4,C   0,C   5)          122.1565         0.435247   
     28. A(O   4,C   0,N   6)          122.6063         0.463497   
     29. A(H   1,C   5,H   2)          108.4051         0.289789   
     30. A(H   2,C   5,H   3)          108.9174         0.290219   
     31. A(C   0,C   5,H   2)          111.2491         0.324090   
     32. A(C   0,C   5,H   3)          106.6950         0.324965   
     33. A(H   1,C   5,H   3)          110.0313         0.290537   
     34. A(C   0,C   5,H   1)          111.5107         0.324461   
     35. A(C   0,N   6,C  10)          122.8932         0.396095   
     36. A(C   7,N   6,C  10)          116.2028         0.378543   
     37. A(C   0,N   6,C   7)          117.4387         0.393073   
     38. A(H   8,C   7,H   9)          108.1802         0.289877   
     39. A(H   9,C   7,C  15)          105.8224         0.324635   
     40. A(H   8,C   7,C  15)          113.8172         0.325733   
     41. A(N   6,C   7,H   9)          110.5847         0.328422   
     42. A(N   6,C   7,H   8)          107.9259         0.329538   
     43. A(N   6,C   7,C  15)          110.4877         0.371158   
     44. A(H  12,C  10,O  13)          111.4448         0.337299   
     45. A(H  11,C  10,O  13)          105.6181         0.338727   
     46. A(N   6,C  10,O  13)          113.7945         0.389031   
     47. A(H  11,C  10,H  12)          109.2717         0.290426   
     48. A(N   6,C  10,H  12)          107.0258         0.331001   
     49. A(N   6,C  10,H  11)          109.6432         0.332393   
     50. A(C  10,O  13,H  14)          107.5468         0.353408   
     51. A(O  16,C  15,N  17)          123.0501         0.463693   
     52. A(C   7,C  15,N  17)          117.8154         0.395577   
     53. A(C   7,C  15,O  16)          119.1246         0.428394   
     54. A(C  15,N  17,C  18)          118.3941         0.402744   
     55. A(C  18,N  17,C  22)          115.3903         0.379975   
     56. A(C  15,N  17,C  22)          125.1443         0.402900   
     57. A(N  17,C  18,H  20)          108.5583         0.331801   
     58. A(N  17,C  18,H  19)          109.3787         0.330466   
     59. A(H  20,C  18,H  21)          109.4451         0.290046   
     60. A(H  19,C  18,H  21)          108.6538         0.288940   
     61. A(N  17,C  18,H  21)          110.6898         0.329815   
     62. A(H  19,C  18,H  20)          110.1101         0.290589   
     63. A(H  23,C  22,H  25)          108.2191         0.288620   
     64. A(N  17,C  22,H  25)          108.9625         0.330356   
     65. A(H  23,C  22,H  24)          108.5130         0.290080   
     66. A(N  17,C  22,H  24)          112.0083         0.332122   
     67. A(H  24,C  22,H  25)          108.8106         0.290563   
     68. A(N  17,C  22,H  23)          110.2433         0.329778   
     69. D(H   3,C   5,C   0,O   4)     -6.3409         0.010648   
     70. D(H   1,C   5,C   0,N   6)     55.0939         0.010648   
     71. D(H   2,C   5,C   0,N   6)    -66.0633         0.010648   
     72. D(H   2,C   5,C   0,O   4)    112.3307         0.010648   
     73. D(H   1,C   5,C   0,O   4)   -126.5122         0.010648   
     74. D(H   3,C   5,C   0,N   6)    175.2652         0.010648   
     75. D(C   7,N   6,C   0,O   4)     11.4669         0.024465   
     76. D(C  10,N   6,C   0,C   5)    -11.9743         0.024465   
     77. D(C  10,N   6,C   0,O   4)    169.6398         0.024465   
     78. D(C   7,N   6,C   0,C   5)   -170.1472         0.024465   
     79. D(H   9,C   7,N   6,C  10)    -48.0821         0.015546   
     80. D(H   9,C   7,N   6,C   0)    111.5555         0.015546   
     81. D(C  15,C   7,N   6,C   0)   -131.6209         0.015546   
     82. D(H   8,C   7,N   6,C  10)   -166.2322         0.015546   
     83. D(H   8,C   7,N   6,C   0)     -6.5947         0.015546   
     84. D(C  15,C   7,N   6,C  10)     68.7416         0.015546   
     85. D(O  13,C  10,N   6,C   7)     87.3072         0.016973   
     86. D(O  13,C  10,N   6,C   0)    -71.1144         0.016973   
     87. D(H  12,C  10,N   6,C   7)    -36.2596         0.016973   
     88. D(H  12,C  10,N   6,C   0)    165.3188         0.016973   
     89. D(H  11,C  10,N   6,C   7)   -154.6714         0.016973   
     90. D(H  11,C  10,N   6,C   0)     46.9070         0.016973   
     91. D(H  14,O  13,C  10,H  12)     46.7037         0.019741   
     92. D(H  14,O  13,C  10,H  11)    165.2583         0.019741   
     93. D(H  14,O  13,C  10,N   6)    -74.4278         0.019741   
     94. D(N  17,C  15,C   7,H   8)    -44.2135         0.010974   
     95. D(N  17,C  15,C   7,N   6)     77.3931         0.010974   
     96. D(O  16,C  15,C   7,H   9)     18.2386         0.010974   
     97. D(O  16,C  15,C   7,H   8)    136.8963         0.010974   
     98. D(N  17,C  15,C   7,H   9)   -162.8712         0.010974   
     99. D(O  16,C  15,C   7,N   6)   -101.4971         0.010974   
    100. D(C  22,N  17,C  15,O  16)    170.5627         0.030715   
    101. D(C  22,N  17,C  15,C   7)     -8.2806         0.030715   
    102. D(C  18,N  17,C  15,O  16)      2.9756         0.030715   
    103. D(C  18,N  17,C  15,C   7)   -175.8677         0.030715   
    104. D(H  21,C  18,N  17,C  22)    -63.6932         0.016565   
    105. D(H  21,C  18,N  17,C  15)    105.0876         0.016565   
    106. D(H  20,C  18,N  17,C  22)    176.1635         0.016565   
    107. D(H  20,C  18,N  17,C  15)    -15.0558         0.016565   
    108. D(H  19,C  18,N  17,C  22)     55.9944         0.016565   
    109. D(H  19,C  18,N  17,C  15)   -135.2248         0.016565   
    110. D(H  25,C  22,N  17,C  15)    136.5982         0.016639   
    111. D(H  24,C  22,N  17,C  18)   -175.9230         0.016639   
    112. D(H  24,C  22,N  17,C  15)     16.1592         0.016639   
    113. D(H  23,C  22,N  17,C  18)     63.1408         0.016639   
    114. D(H  25,C  22,N  17,C  18)    -55.4839         0.016639   
    115. D(H  23,C  22,N  17,C  15)   -104.7771         0.016639   
    -----------------------------------------------------------------

Number of atoms                         .... 26
Number of degrees of freedom            .... 115

         *************************************************************
         *                GEOMETRY OPTIMIZATION CYCLE   1            *
         *************************************************************
---------------------------------
CARTESIAN COORDINATES (ANGSTROEM)
---------------------------------
  C      1.002000    1.526000   -0.230000
  H      3.075000    1.013000    0.203000
  H      2.145000    1.526000    1.623000
  H      2.621000    2.730000    0.406000
  O      0.446000    2.458000   -0.772000
  C      2.301000    1.699000    0.554000
  N      0.487000    0.232000   -0.247000
  C     -0.626000   -0.039000   -1.158000
  H     -0.936000    0.908000   -1.600000
  H     -0.308000   -0.706000   -1.967000
  C      1.242000   -0.923000    0.204000
  H      1.710000   -0.703000    1.161000
  H      0.528000   -1.743000    0.331000
  O      2.304000   -1.289000   -0.666000
  H      1.909000   -1.715000   -1.449000
  C     -1.744000   -0.773000   -0.430000
  O     -1.863000   -1.999000   -0.585000
  N     -2.558000   -0.044000    0.386000
  C     -3.572000   -0.746000    1.158000
  H     -4.519000   -0.202000    1.093000
  H     -3.687000   -1.747000    0.749000
  H     -3.278000   -0.814000    2.213000
  C     -2.346000    1.347000    0.754000
  H     -1.977000    1.415000    1.786000
  H     -1.631000    1.837000    0.099000
  H     -3.301000    1.880000    0.696000

----------------------------
CARTESIAN COORDINATES (A.U.)
----------------------------
  NO LB      ZA    FRAG     MASS         X           Y           Z
   0 C     6.0000    0    12.011    1.893506    2.883722   -0.434637
   1 H     1.0000    0     1.008    5.810908    1.914293    0.383614
   2 H     1.0000    0     1.008    4.053463    2.883722    3.067026
   3 H     1.0000    0     1.008    4.952972    5.158952    0.767229
   4 O     8.0000    0    15.999    0.842818    4.644947   -1.458869
   5 C     6.0000    0    12.011    4.348260    3.210645    1.046908
   6 N     7.0000    0    14.007    0.920297    0.438416   -0.466762
   7 C     6.0000    0    12.011   -1.182969   -0.073699   -2.188303
   8 H     1.0000    0     1.008   -1.768784    1.715871   -3.023562
   9 H     1.0000    0     1.008   -0.582036   -1.334147   -3.717091
  10 C     6.0000    0    12.011    2.347040   -1.744217    0.385504
  11 H     1.0000    0     1.008    3.231432   -1.328477    2.193972
  12 H     1.0000    0     1.008    0.997775   -3.293793    0.625499
  13 O     8.0000    0    15.999    4.353929   -2.435857   -1.258558
  14 H     1.0000    0     1.008    3.607487   -3.240880   -2.738213
  15 C     6.0000    0    12.011   -3.295682   -1.460758   -0.812582
  16 O     8.0000    0    15.999   -3.520560   -3.777563   -1.105490
  17 N     7.0000    0    14.007   -4.833919   -0.083148    0.729434
  18 C     6.0000    0    12.011   -6.750102   -1.409736    2.188303
  19 H     1.0000    0     1.008   -8.539672   -0.381725    2.065471
  20 H     1.0000    0     1.008   -6.967420   -3.301352    1.415405
  21 H     1.0000    0     1.008   -6.194522   -1.538237    4.181964
  22 C     6.0000    0    12.011   -4.433298    2.545461    1.424854
  23 H     1.0000    0     1.008   -3.735989    2.673962    3.375051
  24 H     1.0000    0     1.008   -3.082143    3.471427    0.187083
  25 H     1.0000    0     1.008   -6.237986    3.552685    1.315249

--------------------------------
INTERNAL COORDINATES (ANGSTROEM)
--------------------------------
 C      0   0   0     0.000000000000     0.00000000     0.00000000
 H      1   0   0     2.178987608960     0.00000000     0.00000000
 H      2   1   0     1.773265067608    65.92531104     0.00000000
 H      3   2   1     1.776873940380    60.46643814   287.72537210
 O      1   2   3     1.213063889496   134.88758127   106.43583382
 C      4   3   2     1.089616905155    35.62510800    35.68827198
 N      1   2   3     1.392820878649    97.78562242   261.10412739
 C      7   1   2     1.463602063404   117.43870524   212.55780834
 H      8   7   1     1.090079354910   107.92586144   353.40528593
 H      8   7   1     1.095670570929   110.58472104   111.55545537
 C      7   1   2     1.451706237501   122.89315990    10.73068846
 H     11   7   1     1.087783526259   109.64319184    46.90697676
 H     11   7   1     1.094680318632   107.02576194   165.31882253
 O     11   7   1     1.420809628346   113.79448056   288.88562842
 H     14  11   7     0.974982051117   107.54680526   285.57220973
 C      8   7   1     1.522715994531   110.48765556   228.37909526
 O     16   8   7     1.241475734761   119.12464192   258.50287180
 N     16   8   7     1.363778941031   117.81538153    77.39305245
 C     18  16   8     1.454985910585   118.39405224   184.13229347
 H     19  18  16     1.094061241430   109.37868515   224.77518704
 H     19  18  16     1.087431377145   108.55825974   344.94424645
 H     19  18  16     1.097308069778   110.68977469   105.08761484
 C     18  16   8     1.454389562669   125.14434802   351.71937182
 H     23  18  16     1.098093347580   110.24326424   255.22291276
 H     23  18  16     1.086439137734   112.00829008    16.15918305
 H     23  18  16     1.095206829781   108.96254554   136.59821341

---------------------------
INTERNAL COORDINATES (A.U.)
---------------------------
 C      0   0   0     0.000000000000     0.00000000     0.00000000
 H      1   0   0     4.117689830142     0.00000000     0.00000000
 H      2   1   0     3.350985340629    65.92531104     0.00000000
 H      3   2   1     3.357805121819    60.46643814   287.72537210
 O      1   2   3     2.292358534097   134.88758127   106.43583382
 C      4   3   2     2.059077541634    35.62510800    35.68827198
 N      1   2   3     2.632050014254    97.78562242   261.10412739
 C      7   1   2     2.765807068875   117.43870524   212.55780834
 H      8   7   1     2.059951445021   107.92586144   353.40528593
 H      8   7   1     2.070517312053   110.58472104   111.55545537
 C      7   1   2     2.743327215783   122.89315990    10.73068846
 H     11   7   1     2.055612957620   109.64319184    46.90697676
 H     11   7   1     2.068646006408   107.02576194   165.31882253
 O     11   7   1     2.684941086012   113.79448056   288.88562842
 H     14  11   7     1.842449062100   107.54680526   285.57220973
 C      8   7   1     2.877516209405   110.48765556   228.37909526
 O     16   8   7     2.346049140607   119.12464192   258.50287180
 N     16   8   7     2.577168705758   117.81538153    77.39305245
 C     18  16   8     2.749524899719   118.39405224   184.13229347
 H     19  18  16     2.067476120041   109.37868515   224.77518704
 H     19  18  16     2.054947492237   108.55825974   344.94424645
 H     19  18  16     2.073611736422   110.68977469   105.08761484
 C     18  16   8     2.748397965478   125.14434802   351.71937182
 H     23  18  16     2.075095696407   110.24326424   255.22291276
 H     23  18  16     2.053072431491   112.00829008    16.15918305
 H     23  18  16     2.069640968287   108.96254554   136.59821341

---------------------
BASIS SET INFORMATION
---------------------
There are 4 groups of distinct atoms

 Group   1 Type C   : 10s4p1d contracted to 3s2p1d pattern {631/31/1}
 Group   2 Type H   : 4s contracted to 2s pattern {31}
 Group   3 Type O   : 10s4p1d contracted to 3s2p1d pattern {631/31/1}
 Group   4 Type N   : 10s4p1d contracted to 3s2p1d pattern {631/31/1}

Atom   0C    basis set group =>   1
Atom   1H    basis set group =>   2
Atom   2H    basis set group =>   2
Atom   3H    basis set group =>   2
Atom   4O    basis set group =>   3
Atom   5C    basis set group =>   1
Atom   6N    basis set group =>   4
Atom   7C    basis set group =>   1
Atom   8H    basis set group =>   2
Atom   9H    basis set group =>   2
Atom  10C    basis set group =>   1
Atom  11H    basis set group =>   2
Atom  12H    basis set group =>   2
Atom  13O    basis set group =>   3
Atom  14H    basis set group =>   2
Atom  15C    basis set group =>   1
Atom  16O    basis set group =>   3
Atom  17N    basis set group =>   4
Atom  18C    basis set group =>   1
Atom  19H    basis set group =>   2
Atom  20H    basis set group =>   2
Atom  21H    basis set group =>   2
Atom  22C    basis set group =>   1
Atom  23H    basis set group =>   2
Atom  24H    basis set group =>   2
Atom  25H    basis set group =>   2
---------------------------------
AUXILIARY/J BASIS SET INFORMATION
---------------------------------
There are 4 groups of distinct atoms

 Group   1 Type C   : 13s11p10d2f contracted to 13s11p10d2f pattern {1111111111111/11111111111/1111111111/11}
 Group   2 Type H   : 9s2p contracted to 9s2p pattern {111111111/11}
 Group   3 Type O   : 14s11p10d2f contracted to 14s11p10d2f pattern {11111111111111/11111111111/1111111111/11}
 Group   4 Type N   : 14s11p10d2f contracted to 14s11p10d2f pattern {11111111111111/11111111111/1111111111/11}

Atom   0C    basis set group =>   1
Atom   1H    basis set group =>   2
Atom   2H    basis set group =>   2
Atom   3H    basis set group =>   2
Atom   4O    basis set group =>   3
Atom   5C    basis set group =>   1
Atom   6N    basis set group =>   4
Atom   7C    basis set group =>   1
Atom   8H    basis set group =>   2
Atom   9H    basis set group =>   2
Atom  10C    basis set group =>   1
Atom  11H    basis set group =>   2
Atom  12H    basis set group =>   2
Atom  13O    basis set group =>   3
Atom  14H    basis set group =>   2
Atom  15C    basis set group =>   1
Atom  16O    basis set group =>   3
Atom  17N    basis set group =>   4
Atom  18C    basis set group =>   1
Atom  19H    basis set group =>   2
Atom  20H    basis set group =>   2
Atom  21H    basis set group =>   2
Atom  22C    basis set group =>   1
Atom  23H    basis set group =>   2
Atom  24H    basis set group =>   2
Atom  25H    basis set group =>   2
---------------------------------
AUXILIARY/C BASIS SET INFORMATION
---------------------------------
There are 4 groups of distinct atoms

 Group   1 Type C   : 13s11p10d2f contracted to 13s11p10d2f pattern {1111111111111/11111111111/1111111111/11}
 Group   2 Type H   : 9s2p contracted to 9s2p pattern {111111111/11}
 Group   3 Type O   : 14s11p10d2f contracted to 14s11p10d2f pattern {11111111111111/11111111111/1111111111/11}
 Group   4 Type N   : 14s11p10d2f contracted to 14s11p10d2f pattern {11111111111111/11111111111/1111111111/11}

Atom   0C    basis set group =>   1
Atom   1H    basis set group =>   2
Atom   2H    basis set group =>   2
Atom   3H    basis set group =>   2
Atom   4O    basis set group =>   3
Atom   5C    basis set group =>   1
Atom   6N    basis set group =>   4
Atom   7C    basis set group =>   1
Atom   8H    basis set group =>   2
Atom   9H    basis set group =>   2
Atom  10C    basis set group =>   1
Atom  11H    basis set group =>   2
Atom  12H    basis set group =>   2
Atom  13O    basis set group =>   3
Atom  14H    basis set group =>   2
Atom  15C    basis set group =>   1
Atom  16O    basis set group =>   3
Atom  17N    basis set group =>   4
Atom  18C    basis set group =>   1
Atom  19H    basis set group =>   2
Atom  20H    basis set group =>   2
Atom  21H    basis set group =>   2
Atom  22C    basis set group =>   1
Atom  23H    basis set group =>   2
Atom  24H    basis set group =>   2
Atom  25H    basis set group =>   2
----------------------------------
AUXILIARY/JK BASIS SET INFORMATION
----------------------------------
There are 4 groups of distinct atoms

 Group   1 Type C   : 13s11p10d2f contracted to 13s11p10d2f pattern {1111111111111/11111111111/1111111111/11}
 Group   2 Type H   : 9s2p contracted to 9s2p pattern {111111111/11}
 Group   3 Type O   : 14s11p10d2f contracted to 14s11p10d2f pattern {11111111111111/11111111111/1111111111/11}
 Group   4 Type N   : 14s11p10d2f contracted to 14s11p10d2f pattern {11111111111111/11111111111/1111111111/11}

Atom   0C    basis set group =>   1
Atom   1H    basis set group =>   2
Atom   2H    basis set group =>   2
Atom   3H    basis set group =>   2
Atom   4O    basis set group =>   3
Atom   5C    basis set group =>   1
Atom   6N    basis set group =>   4
Atom   7C    basis set group =>   1
Atom   8H    basis set group =>   2
Atom   9H    basis set group =>   2
Atom  10C    basis set group =>   1
Atom  11H    basis set group =>   2
Atom  12H    basis set group =>   2
Atom  13O    basis set group =>   3
Atom  14H    basis set group =>   2
Atom  15C    basis set group =>   1
Atom  16O    basis set group =>   3
Atom  17N    basis set group =>   4
Atom  18C    basis set group =>   1
Atom  19H    basis set group =>   2
Atom  20H    basis set group =>   2
Atom  21H    basis set group =>   2
Atom  22C    basis set group =>   1
Atom  23H    basis set group =>   2
Atom  24H    basis set group =>   2
Atom  25H    basis set group =>   2


           ************************************************************
           *        Program running with 4 parallel MPI-processes     *
           *              working on a common directory               *
           ************************************************************
------------------------------------------------------------------------------
                           ORCA GTO INTEGRAL CALCULATION
                           -- RI-GTO INTEGRALS CHOSEN --
------------------------------------------------------------------------------
------------------------------------------------------------------------------
                   ___                                                        
                  /   \      - P O W E R E D   B Y -                         
                 /     \                                                     
                 |  |  |   _    _      __       _____    __    __             
                 |  |  |  | |  | |    /  \     |  _  \  |  |  /  |          
                  \  \/   | |  | |   /    \    | | | |  |  | /  /          
                 / \  \   | |__| |  /  /\  \   | |_| |  |  |/  /          
                |  |  |   |  __  | /  /__\  \  |    /   |      \           
                |  |  |   | |  | | |   __   |  |    \   |  |\   \          
                \     /   | |  | | |  |  |  |  | |\  \  |  | \   \       
                 \___/    |_|  |_| |__|  |__|  |_| \__\ |__|  \__/        
                                                                              
                      - O R C A' S   B I G   F R I E N D -                    
                                      &                                       
                       - I N T E G R A L  F E E D E R -                       
                                                                              
 v1 FN, 2020, v2 2021                                                         
------------------------------------------------------------------------------


Reading SHARK input file Ns_gas.SHARKINP.tmp ... ok
----------------------
SHARK INTEGRAL PACKAGE
----------------------

Number of atoms                             ...     26
Number of basis functions                   ...    196
Number of shells                            ...    100
Maximum angular momentum                    ...      2
Integral batch strategy                     ... SHARK/LIBINT Hybrid
RI-J (if used) integral strategy            ... SPLIT-RIJ (Revised 2003 algorithm where possible)
Printlevel                                  ...      1
Contraction scheme used                     ... SEGMENTED contraction
Coulomb Range Separation                    ... NOT USED
Exchange Range Separation                   ... NOT USED
Finite Nucleus Model                        ... NOT USED
Auxiliary Coulomb fitting basis             ... AVAILABLE
   # of basis functions in Aux-J            ...   1535
   # of shells in Aux-J                     ...    591
   Maximum angular momentum in Aux-J        ...      3
Auxiliary J/K fitting basis                 ... AVAILABLE
   # of basis functions in Aux-JK           ...   1535
   # of shells in Aux-JK                    ...    591
   Maximum angular momentum in Aux-JK       ...      3
Auxiliary Correlation fitting basis         ... AVAILABLE
   # of basis functions in Aux-C            ...   1535
   # of shells in Aux-C                     ...    591
   Maximum angular momentum in Aux-C        ...      3
Auxiliary 'external' fitting basis          ... NOT available
Integral threshold                          ...     2.500000e-11
Primitive cut-off                           ...     2.500000e-12
Primitive pair pre-selection threshold      ...     2.500000e-12

Calculating pre-screening integrals         ... done (  0.0 sec) Dimension = 100
Organizing shell pair data                  ... done (  0.0 sec)
Shell pair information
Total number of shell pairs                 ...      5050
Shell pairs after pre-screening             ...      4498
Total number of primitive shell pairs       ...     28260
Primitive shell pairs kept                  ...     15265
          la=0 lb=0:   1787 shell pairs
          la=1 lb=0:   1426 shell pairs
          la=1 lb=1:    290 shell pairs
          la=2 lb=0:    658 shell pairs
          la=2 lb=1:    270 shell pairs
          la=2 lb=2:     67 shell pairs

Calculating one electron integrals          ... done (  0.0 sec)
Calculating RI/J V-Matrix + Cholesky decomp.... done (  2.3 sec)
Calculating RI/JK V-Matrix + Cholesky decomp... done (  1.7 sec)
Calculating RI/C V-Matrix + Cholesky decomp.... done (  0.2 sec)
Calculating Nuclear repulsion               ... done (  0.0 sec) ENN=    775.261840406057 Eh

SHARK setup successfully completed in   5.0 seconds

Maximum memory used throughout the entire GTOINT-calculation: 22.1 MB


           ************************************************************
           *        Program running with 4 parallel MPI-processes     *
           *              working on a common directory               *
           ************************************************************
-------------------------------------------------------------------------------
                                 ORCA SCF
-------------------------------------------------------------------------------

------------
SCF SETTINGS
------------
Hamiltonian:
 Density Functional     Method          .... DFT(GTOs)
 Exchange Functional    Exchange        .... B88
   X-Alpha parameter    XAlpha          ....  0.666667
   Becke's b parameter  XBeta           ....  0.004200
 Correlation Functional Correlation     .... LYP
 LDA part of GGA corr.  LDAOpt          .... VWN-5
 Gradients option       PostSCFGGA      .... off
 Hybrid DFT is turned on
   Fraction HF Exchange ScalHFX         ....  0.200000
   Scaling of DF-GGA-X  ScalDFX         ....  0.720000
   Scaling of DF-GGA-C  ScalDFC         ....  0.810000
   Scaling of DF-LDA-C  ScalLDAC        ....  1.000000
   Perturbative correction              ....  0.000000
   Density functional embedding theory  .... OFF
   NL short-range parameter             ....  4.800000
 RI-approximation to the Coulomb term is turned on
   Number of AuxJ basis functions       .... 1535
   RIJ-COSX (HFX calculated with COS-X)).... on


General Settings:
 Integral files         IntName         .... Ns_gas
 Hartree-Fock type      HFTyp           .... RHF
 Total Charge           Charge          ....    0
 Multiplicity           Mult            ....    1
 Number of Electrons    NEL             ....   94
 Basis Dimension        Dim             ....  196
 Nuclear Repulsion      ENuc            ....    775.2618404061 Eh

Convergence Acceleration:
 DIIS                   CNVDIIS         .... on
   Start iteration      DIISMaxIt       ....    12
   Startup error        DIISStart       ....  0.200000
   # of expansion vecs  DIISMaxEq       ....     5
   Bias factor          DIISBfac        ....   1.050
   Max. coefficient     DIISMaxC        ....  10.000
 Trust-Rad. Augm. Hess. CNVTRAH         .... auto
   Auto Start mean grad. ratio tolernc. ....  1.125000
   Auto Start start iteration           ....    20
   Auto Start num. interpolation iter.  ....    10
   Max. Number of Micro iterations      ....    16
   Max. Number of Macro iterations      .... Maxiter - #DIIS iter
   Number of Davidson start vectors     ....     2
   Converg. threshold I  (grad. norm)   ....   1.000e-05
   Converg. threshold II (energy diff.) ....   1.000e-08
   Grad. Scal. Fac. for Micro threshold ....   0.100
   Minimum threshold for Micro iter.    ....   0.010
   NR start threshold (gradient norm)   ....   0.001
   Initial trust radius                 ....   0.400
   Minimum AH scaling param. (alpha)    ....   1.000
   Maximum AH scaling param. (alpha)    .... 1000.000
   Orbital update algorithm             .... Taylor
   White noise on init. David. guess    .... on
   Maximum white noise                  ....   0.010
   Quad. conv. algorithm                .... NR
 SOSCF                  CNVSOSCF        .... on
   Start iteration      SOSCFMaxIt      ....   150
   Startup grad/error   SOSCFStart      ....  0.003300
 Level Shifting         CNVShift        .... on
   Level shift para.    LevelShift      ....    0.2500
   Turn off err/grad.   ShiftErr        ....    0.0010
 Zerner damping         CNVZerner       .... off
 Static damping         CNVDamp         .... on
   Fraction old density DampFac         ....    0.7000
   Max. Damping (<1)    DampMax         ....    0.9800
   Min. Damping (>=0)   DampMin         ....    0.0000
   Turn off err/grad.   DampErr         ....    0.1000
 Fernandez-Rico         CNVRico         .... off

SCF Procedure:
 Maximum # iterations   MaxIter         ....   125
 SCF integral mode      SCFMode         .... Direct
   Integral package                     .... SHARK and LIBINT hybrid scheme
 Reset frequency        DirectResetFreq ....    20
 Integral Threshold     Thresh          ....  2.500e-11 Eh
 Primitive CutOff       TCut            ....  2.500e-12 Eh

Convergence Tolerance:
 Convergence Check Mode ConvCheckMode   .... Total+1el-Energy
 Convergence forced     ConvForced      .... 0
 Energy Change          TolE            ....  1.000e-08 Eh
 1-El. energy change                    ....  1.000e-05 Eh
 Orbital Gradient       TolG            ....  1.000e-05
 Orbital Rotation angle TolX            ....  1.000e-05
 DIIS Error             TolErr          ....  5.000e-07


Diagonalization of the overlap matrix:
Smallest eigenvalue                        ... 3.178e-03
Time for diagonalization                   ...    0.007 sec
Threshold for overlap eigenvalues          ... 1.000e-08
Number of eigenvalues below threshold      ... 0
Time for construction of square roots      ...    0.004 sec
Total time needed                          ...    0.011 sec

Time for model grid setup =    0.189 sec

------------------------------
INITIAL GUESS: MODEL POTENTIAL
------------------------------
Loading Hartree-Fock densities                     ... done
Calculating cut-offs                               ... done
Initializing the effective Hamiltonian             ... done
Setting up the integral package (SHARK)            ... done
Starting the Coulomb interaction                   ... done (   0.1 sec)
Reading the grid                                   ... done
Mapping shells                                     ... done
Starting the XC term evaluation                    ... done (   0.1 sec)
  promolecular density results
     # of electrons  =     93.995471320
     EX              =    -77.914880185
     EC              =     -3.203248603
     EX+EC           =    -81.118128788
Transforming the Hamiltonian                       ... done (   0.0 sec)
Diagonalizing the Hamiltonian                      ... done (   0.0 sec)
Back transforming the eigenvectors                 ... done (   0.0 sec)
Now organizing SCF variables                       ... done
                      ------------------
                      INITIAL GUESS DONE (   0.4 sec)
                      ------------------
-------------------
DFT GRID GENERATION
-------------------

General Integration Accuracy     IntAcc      ... 4.388
Radial Grid Type                 RadialGrid  ... OptM3 with GC (2021)
Angular Grid (max. ang.)         AngularGrid ... 4 (Lebedev-302)
Angular grid pruning method      GridPruning ... 4 (adaptive)
Weight generation scheme         WeightScheme... Becke
Basis function cutoff            BFCut       ... 1.0000e-11
Integration weight cutoff        WCut        ... 1.0000e-14
Angular grids for H and He will be reduced by one unit
Partially contracted basis set               ... off
Rotationally invariant grid construction     ... off

Total number of grid points                  ...   116817
Total number of batches                      ...     1839
Average number of points per batch           ...       63
Average number of grid points per atom       ...     4493
Time for grid setup =    2.390 sec

--------------------
COSX GRID GENERATION
--------------------

GRIDX 1
-------
General Integration Accuracy     IntAcc      ... 3.816
Radial Grid Type                 RadialGrid  ... OptM3 with GC (2021)
Angular Grid (max. ang.)         AngularGrid ... 1 (Lebedev-50)
Angular grid pruning method      GridPruning ... 4 (adaptive)
Weight generation scheme         WeightScheme... Becke
Basis function cutoff            BFCut       ... 1.0000e-11
Integration weight cutoff        WCut        ... 1.0000e-14
Angular grids for H and He will be reduced by one unit
Partially contracted basis set               ... on
Rotationally invariant grid construction     ... off

Total number of grid points                  ...    14920
Total number of batches                      ...      250
Average number of points per batch           ...       59
Average number of grid points per atom       ...      574
UseSFitting                                  ... on

GRIDX 2
-------
General Integration Accuracy     IntAcc      ... 4.020
Radial Grid Type                 RadialGrid  ... OptM3 with GC (2021)
Angular Grid (max. ang.)         AngularGrid ... 2 (Lebedev-110)
Angular grid pruning method      GridPruning ... 4 (adaptive)
Weight generation scheme         WeightScheme... Becke
Basis function cutoff            BFCut       ... 1.0000e-11
Integration weight cutoff        WCut        ... 1.0000e-14
Angular grids for H and He will be reduced by one unit
Partially contracted basis set               ... on
Rotationally invariant grid construction     ... off

Total number of grid points                  ...    31777
Total number of batches                      ...      507
Average number of points per batch           ...       62
Average number of grid points per atom       ...     1222
UseSFitting                                  ... on

GRIDX 3
-------
General Integration Accuracy     IntAcc      ... 4.338
Radial Grid Type                 RadialGrid  ... OptM3 with GC (2021)
Angular Grid (max. ang.)         AngularGrid ... 3 (Lebedev-194)
Angular grid pruning method      GridPruning ... 4 (adaptive)
Weight generation scheme         WeightScheme... Becke
Basis function cutoff            BFCut       ... 1.0000e-11
Integration weight cutoff        WCut        ... 1.0000e-14
Angular grids for H and He will be reduced by one unit
Partially contracted basis set               ... on
Rotationally invariant grid construction     ... off

Total number of grid points                  ...    69430
Total number of batches                      ...     1100
Average number of points per batch           ...       63
Average number of grid points per atom       ...     2670
UseSFitting                                  ... on

Time for X-Grid setup             =    5.309 sec

--------------
SCF ITERATIONS
--------------
ITER       Energy         Delta-E        Max-DP      RMS-DP      [F,P]     Damp
               ***  Starting incremental Fock matrix formation  ***
  0   -609.6024910438   0.000000000000 0.09818706  0.00265189  0.2772418 0.7000
  1   -609.7908984239  -0.188407380103 0.05372743  0.00168461  0.1053901 0.7000
                               ***Turning on DIIS***
  2   -609.8588785739  -0.067980149963 0.06407527  0.00244220  0.0374589 0.0000
  3   -609.9754339709  -0.116555396984 0.03680312  0.00116730  0.0527524 0.0000
  4   -609.9962494516  -0.020815480723 0.01005283  0.00037486  0.0178364 0.0000
  5   -609.9981195135  -0.001870061857 0.00272242  0.00010175  0.0033610 0.0000
                      *** Initiating the SOSCF procedure ***
                           *** Shutting down DIIS ***
                      *** Re-Reading the Fockian *** 
                      *** Removing any level shift *** 
ITER      Energy       Delta-E        Grad      Rot      Max-DP    RMS-DP
  6   -609.99818621  -0.0000667013  0.000190  0.000190  0.000993  0.000032
               *** Restarting incremental Fock matrix formation ***
  7   -609.99821319  -0.0000269709  0.000096  0.000365  0.000438  0.000019
  8   -609.99821343  -0.0000002413  0.000109  0.000161  0.000300  0.000008
  9   -609.99821413  -0.0000006995  0.000030  0.000084  0.000145  0.000005
 10   -609.99821409   0.0000000330  0.000045  0.000057  0.000095  0.000002
 11   -609.99821417  -0.0000000759  0.000008  0.000022  0.000032  0.000001
 12   -609.99821417   0.0000000027  0.000008  0.000009  0.000018  0.000001
                  ***Gradient check signals convergence***
              ***Rediagonalizing the Fockian in SOSCF/NRSCF***

               *****************************************************
               *                     SUCCESS                       *
               *           SCF CONVERGED AFTER  13 CYCLES          *
               *****************************************************

Old exchange energy                            =    -15.853143013 Eh
New exchange energy                            =    -15.853138321 Eh
Exchange energy change after final integration =      0.000004693 Eh
Total energy after final integration           =   -609.998209473 Eh
Final COS-X integration done in                =     5.943 sec

----------------
TOTAL SCF ENERGY
----------------

Total Energy       :         -609.99820947 Eh          -16598.89515 eV

Components:
Nuclear Repulsion  :          775.26184041 Eh           21095.94717 eV
Electronic Energy  :        -1385.26004988 Eh          -37694.84233 eV
One Electron Energy:        -2369.82837543 Eh          -64486.30852 eV
Two Electron Energy:          984.56832555 Eh           26791.46619 eV
Max COSX asymmetry :            0.00000260 Eh               0.00007 eV

Virial components:
Potential Energy   :        -1216.48683408 Eh          -33102.28964 eV
Kinetic Energy     :          606.48862460 Eh           16503.39449 eV
Virial Ratio       :            2.00578673


DFT components:
N(Alpha)           :       47.000030261053 electrons
N(Beta)            :       47.000030261053 electrons
N(Total)           :       94.000060522105 electrons
E(X)               :      -62.994035369842 Eh       
E(C)               :       -3.773735430003 Eh       
E(XC)              :      -66.767770799844 Eh       
DFET-embed. en.    :        0.000000000000 Eh       

---------------
SCF CONVERGENCE
---------------

  Last Energy change         ...    7.2168e-10  Tolerance :   1.0000e-08
  Last MAX-Density change    ...    3.9968e-15  Tolerance :   1.0000e-07
  Last RMS-Density change    ...    5.7283e-17  Tolerance :   5.0000e-09
  Last Orbital Gradient      ...    1.1713e-06  Tolerance :   1.0000e-05
  Last Orbital Rotation      ...    3.0596e-06  Tolerance :   1.0000e-05

             **** THE GBW FILE WAS UPDATED (Ns_gas.gbw) ****
             **** DENSITY Ns_gas.scfp WAS UPDATED ****
             **** ENERGY FILE WAS UPDATED (Ns_gas.en.tmp) ****
             **** THE GBW FILE WAS UPDATED (Ns_gas.gbw) ****
             **** DENSITY Ns_gas.scfp WAS UPDATED ****
----------------
ORBITAL ENERGIES
----------------

  NO   OCC          E(Eh)            E(eV) 
   0   2.0000     -19.152227      -521.1586 
   1   2.0000     -19.119737      -520.2745 
   2   2.0000     -19.105170      -519.8781 
   3   2.0000     -14.362040      -390.8110 
   4   2.0000     -14.361891      -390.8069 
   5   2.0000     -10.289405      -279.9890 
   6   2.0000     -10.279173      -279.7105 
   7   2.0000     -10.265312      -279.3333 
   8   2.0000     -10.217523      -278.0329 
   9   2.0000     -10.209303      -277.8093 
  10   2.0000     -10.203182      -277.6427 
  11   2.0000     -10.179516      -276.9987 
  12   2.0000      -1.050107       -28.5749 
  13   2.0000      -1.032498       -28.0957 
  14   2.0000      -1.024550       -27.8794 
  15   2.0000      -0.934134       -25.4191 
  16   2.0000      -0.928216       -25.2580 
  17   2.0000      -0.765099       -20.8194 
  18   2.0000      -0.728399       -19.8208 
  19   2.0000      -0.717156       -19.5148 
  20   2.0000      -0.696293       -18.9471 
  21   2.0000      -0.671458       -18.2713 
  22   2.0000      -0.574681       -15.6379 
  23   2.0000      -0.546324       -14.8662 
  24   2.0000      -0.522032       -14.2052 
  25   2.0000      -0.503868       -13.7110 
  26   2.0000      -0.490973       -13.3600 
  27   2.0000      -0.487449       -13.2642 
  28   2.0000      -0.471167       -12.8211 
  29   2.0000      -0.462738       -12.5917 
  30   2.0000      -0.446215       -12.1421 
  31   2.0000      -0.435396       -11.8477 
  32   2.0000      -0.414515       -11.2795 
  33   2.0000      -0.410328       -11.1656 
  34   2.0000      -0.404429       -11.0051 
  35   2.0000      -0.401741       -10.9319 
  36   2.0000      -0.397643       -10.8204 
  37   2.0000      -0.391778       -10.6608 
  38   2.0000      -0.378086       -10.2882 
  39   2.0000      -0.363167        -9.8823 
  40   2.0000      -0.358717        -9.7612 
  41   2.0000      -0.350083        -9.5262 
  42   2.0000      -0.300954        -8.1894 
  43   2.0000      -0.263952        -7.1825 
  44   2.0000      -0.257759        -7.0140 
  45   2.0000      -0.240070        -6.5326 
  46   2.0000      -0.238640        -6.4937 
  47   0.0000       0.012956         0.3525 
  48   0.0000       0.021707         0.5907 
  49   0.0000       0.058535         1.5928 
  50   0.0000       0.090914         2.4739 
  51   0.0000       0.104179         2.8348 
  52   0.0000       0.138411         3.7664 
  53   0.0000       0.140741         3.8298 
  54   0.0000       0.151177         4.1137 
  55   0.0000       0.157461         4.2847 
  56   0.0000       0.159132         4.3302 
  57   0.0000       0.160436         4.3657 
  58   0.0000       0.164682         4.4812 
  59   0.0000       0.170559         4.6411 
  60   0.0000       0.183421         4.9911 
  61   0.0000       0.186091         5.0638 
  62   0.0000       0.193166         5.2563 
  63   0.0000       0.196492         5.3468 
  64   0.0000       0.211278         5.7492 
  65   0.0000       0.216422         5.8891 
  66   0.0000       0.227148         6.1810 
  67   0.0000       0.238576         6.4920 
  68   0.0000       0.260121         7.0783 
  69   0.0000       0.263924         7.1817 
  70   0.0000       0.336072         9.1450 
  71   0.0000       0.351796         9.5728 
  72   0.0000       0.363945         9.9035 
  73   0.0000       0.417757        11.3677 
  74   0.0000       0.464163        12.6305 
  75   0.0000       0.496609        13.5134 
  76   0.0000       0.510457        13.8902 
  77   0.0000       0.515957        14.0399 
  78   0.0000       0.526808        14.3352 
  79   0.0000       0.530832        14.4447 
  80   0.0000       0.541658        14.7393 
  81   0.0000       0.553225        15.0540 
  82   0.0000       0.568798        15.4778 
  83   0.0000       0.604139        16.4394 
  84   0.0000       0.613272        16.6880 
  85   0.0000       0.643497        17.5104 
  86   0.0000       0.656963        17.8769 
  87   0.0000       0.669581        18.2202 
  88   0.0000       0.671491        18.2722 
  89   0.0000       0.699581        19.0366 
  90   0.0000       0.719520        19.5791 
  91   0.0000       0.746467        20.3124 
  92   0.0000       0.758404        20.6372 
  93   0.0000       0.764331        20.7985 
  94   0.0000       0.789224        21.4759 
  95   0.0000       0.792918        21.5764 
  96   0.0000       0.819634        22.3034 
  97   0.0000       0.821701        22.3596 
  98   0.0000       0.831935        22.6381 
  99   0.0000       0.841122        22.8881 
 100   0.0000       0.844040        22.9675 
 101   0.0000       0.856112        23.2960 
 102   0.0000       0.867649        23.6099 
 103   0.0000       0.880990        23.9730 
 104   0.0000       0.890168        24.2227 
 105   0.0000       0.899153        24.4672 
 106   0.0000       0.899703        24.4822 
 107   0.0000       0.916474        24.9385 
 108   0.0000       0.925103        25.1733 
 109   0.0000       0.928039        25.2532 
 110   0.0000       0.955435        25.9987 
 111   0.0000       0.968949        26.3665 
 112   0.0000       0.983096        26.7514 
 113   0.0000       0.997880        27.1537 
 114   0.0000       1.000963        27.2376 
 115   0.0000       1.026051        27.9203 
 116   0.0000       1.036578        28.2067 
 117   0.0000       1.045954        28.4618 
 118   0.0000       1.085844        29.5473 
 119   0.0000       1.098653        29.8959 
 120   0.0000       1.112117        30.2622 
 121   0.0000       1.133381        30.8409 
 122   0.0000       1.162321        31.6284 
 123   0.0000       1.222571        33.2679 
 124   0.0000       1.236104        33.6361 
 125   0.0000       1.259021        34.2597 
 126   0.0000       1.303891        35.4807 
 127   0.0000       1.331722        36.2380 
 128   0.0000       1.351644        36.7801 
 129   0.0000       1.362735        37.0819 
 130   0.0000       1.397542        38.0291 
 131   0.0000       1.427961        38.8568 
 132   0.0000       1.431711        38.9588 
 133   0.0000       1.445251        39.3273 
 134   0.0000       1.480437        40.2847 
 135   0.0000       1.494577        40.6695 
 136   0.0000       1.546923        42.0939 
 137   0.0000       1.588119        43.2149 
 138   0.0000       1.629005        44.3275 
 139   0.0000       1.689693        45.9789 
 140   0.0000       1.707671        46.4681 
 141   0.0000       1.741654        47.3928 
 142   0.0000       1.760380        47.9024 
 143   0.0000       1.765454        48.0404 
 144   0.0000       1.786129        48.6030 
 145   0.0000       1.793573        48.8056 
 146   0.0000       1.816279        49.4235 
 147   0.0000       1.831638        49.8414 
 148   0.0000       1.839367        50.0517 
 149   0.0000       1.881430        51.1963 
 150   0.0000       1.893697        51.5301 
 151   0.0000       1.901888        51.7530 
 152   0.0000       1.919713        52.2380 
 153   0.0000       1.939298        52.7710 
 154   0.0000       1.953312        53.1523 
 155   0.0000       1.963744        53.4362 
 156   0.0000       1.978384        53.8346 
 157   0.0000       2.001822        54.4723 
 158   0.0000       2.019222        54.9458 
 159   0.0000       2.066530        56.2331 
 160   0.0000       2.069583        56.3162 
 161   0.0000       2.078809        56.5673 
 162   0.0000       2.087587        56.8061 
 163   0.0000       2.100634        57.1612 
 164   0.0000       2.131461        58.0000 
 165   0.0000       2.150339        58.5137 
 166   0.0000       2.181861        59.3715 
 167   0.0000       2.210516        60.1512 
 168   0.0000       2.247695        61.1629 
 169   0.0000       2.250115        61.2287 
 170   0.0000       2.276420        61.9445 
 171   0.0000       2.293769        62.4166 
 172   0.0000       2.326547        63.3086 
 173   0.0000       2.329675        63.3937 
 174   0.0000       2.366907        64.4068 
 175   0.0000       2.397962        65.2519 
 176   0.0000       2.410768        65.6003 
 177   0.0000       2.447049        66.5876 
 178   0.0000       2.482463        67.5513 
 179   0.0000       2.500144        68.0324 
 180   0.0000       2.523811        68.6764 
 181   0.0000       2.547813        69.3295 
 182   0.0000       2.603128        70.8347 
 183   0.0000       2.617185        71.2172 
 184   0.0000       2.648752        72.0762 
 185   0.0000       2.655975        72.2728 
 186   0.0000       2.694341        73.3168 
 187   0.0000       2.719328        73.9967 
 188   0.0000       2.730697        74.3060 
 189   0.0000       2.858205        77.7757 
 190   0.0000       2.931696        79.7755 
 191   0.0000       2.954528        80.3968 
 192   0.0000       3.004071        81.7449 
 193   0.0000       3.012872        81.9844 
 194   0.0000       3.156328        85.8880 
 195   0.0000       3.175146        86.4001 

                    ********************************
                    * MULLIKEN POPULATION ANALYSIS *
                    ********************************

-----------------------
MULLIKEN ATOMIC CHARGES
-----------------------
   0 C :    0.538930
   1 H :    0.198877
   2 H :    0.170654
   3 H :    0.183831
   4 O :   -0.453213
   5 C :   -0.563556
   6 N :   -0.397038
   7 C :   -0.260069
   8 H :    0.205114
   9 H :    0.159757
  10 C :    0.053674
  11 H :    0.163141
  12 H :    0.178418
  13 O :   -0.618673
  14 H :    0.406633
  15 C :    0.529302
  16 O :   -0.494140
  17 N :   -0.365009
  18 C :   -0.320410
  19 H :    0.152715
  20 H :    0.202908
  21 H :    0.151184
  22 C :   -0.340412
  23 H :    0.152037
  24 H :    0.208359
  25 H :    0.156988
Sum of atomic charges:   -0.0000000

--------------------------------
MULLIKEN REDUCED ORBITAL CHARGES
--------------------------------
  0 C s       :     2.980943  s :     2.980943
      pz      :     0.800370  p :     2.369751
      px      :     0.814874
      py      :     0.754507
      dz2     :     0.013798  d :     0.110376
      dxz     :     0.012958
      dyz     :     0.022358
      dx2y2   :     0.034787
      dxy     :     0.026475
  1 H s       :     0.801123  s :     0.801123
  2 H s       :     0.829346  s :     0.829346
  3 H s       :     0.816169  s :     0.816169
  4 O s       :     3.862757  s :     3.862757
      pz      :     1.453851  p :     4.562791
      px      :     1.583281
      py      :     1.525659
      dz2     :     0.005069  d :     0.027664
      dxz     :     0.002840
      dyz     :     0.007180
      dx2y2   :     0.005808
      dxy     :     0.006767
  5 C s       :     3.323743  s :     3.323743
      pz      :     1.053509  p :     3.208105
      px      :     1.029466
      py      :     1.125130
      dz2     :     0.009385  d :     0.031708
      dxz     :     0.005681
      dyz     :     0.002424
      dx2y2   :     0.006815
      dxy     :     0.007403
  6 N s       :     3.540561  s :     3.540561
      pz      :     1.457384  p :     3.821228
      px      :     1.268555
      py      :     1.095289
      dz2     :     0.005003  d :     0.035249
      dxz     :     0.005816
      dyz     :     0.005974
      dx2y2   :     0.008476
      dxy     :     0.009980
  7 C s       :     3.256128  s :     3.256128
      pz      :     0.954958  p :     2.952096
      px      :     0.891789
      py      :     1.105349
      dz2     :     0.008112  d :     0.051845
      dxz     :     0.013356
      dyz     :     0.011723
      dx2y2   :     0.010379
      dxy     :     0.008276
  8 H s       :     0.794886  s :     0.794886
  9 H s       :     0.840243  s :     0.840243
 10 C s       :     3.141324  s :     3.141324
      pz      :     0.925667  p :     2.723682
      px      :     0.874782
      py      :     0.923233
      dz2     :     0.015779  d :     0.081321
      dxz     :     0.018990
      dyz     :     0.010968
      dx2y2   :     0.010314
      dxy     :     0.025269
 11 H s       :     0.836859  s :     0.836859
 12 H s       :     0.821582  s :     0.821582
 13 O s       :     3.879057  s :     3.879057
      pz      :     1.378439  p :     4.713493
      px      :     1.546324
      py      :     1.788729
      dz2     :     0.003405  d :     0.026124
      dxz     :     0.009535
      dyz     :     0.003747
      dx2y2   :     0.004839
      dxy     :     0.004597
 14 H s       :     0.593367  s :     0.593367
 15 C s       :     2.971738  s :     2.971738
      pz      :     0.810778  p :     2.391296
      px      :     0.824341
      py      :     0.756178
      dz2     :     0.013877  d :     0.107664
      dxz     :     0.007892
      dyz     :     0.030111
      dx2y2   :     0.020126
      dxy     :     0.035657
 16 O s       :     3.874016  s :     3.874016
      pz      :     1.603037  p :     4.594080
      px      :     1.652506
      py      :     1.338537
      dz2     :     0.002675  d :     0.026043
      dxz     :     0.000446
      dyz     :     0.007979
      dx2y2   :     0.007733
      dxy     :     0.007210
 17 N s       :     3.530545  s :     3.530545
      pz      :     1.368392  p :     3.796979
      px      :     1.309954
      py      :     1.118632
      dz2     :     0.006530  d :     0.037485
      dxz     :     0.005515
      dyz     :     0.007866
      dx2y2   :     0.008074
      dxy     :     0.009499
 18 C s       :     3.254738  s :     3.254738
      pz      :     1.005202  p :     3.017519
      px      :     0.939128
      py      :     1.073189
      dz2     :     0.014064  d :     0.048154
      dxz     :     0.007580
      dyz     :     0.006895
      dx2y2   :     0.009436
      dxy     :     0.010179
 19 H s       :     0.847285  s :     0.847285
 20 H s       :     0.797092  s :     0.797092
 21 H s       :     0.848816  s :     0.848816
 22 C s       :     3.266964  s :     3.266964
      pz      :     1.090055  p :     3.024866
      px      :     1.110270
      py      :     0.824541
      dz2     :     0.011326  d :     0.048582
      dxz     :     0.006752
      dyz     :     0.008303
      dx2y2   :     0.010444
      dxy     :     0.011757
 23 H s       :     0.847963  s :     0.847963
 24 H s       :     0.791641  s :     0.791641
 25 H s       :     0.843012  s :     0.843012


                     *******************************
                     * LOEWDIN POPULATION ANALYSIS *
                     *******************************

----------------------
LOEWDIN ATOMIC CHARGES
----------------------
   0 C :    0.118775
   1 H :    0.155945
   2 H :    0.144311
   3 H :    0.151185
   4 O :   -0.256080
   5 C :   -0.396751
   6 N :   -0.105900
   7 C :   -0.182119
   8 H :    0.158770
   9 H :    0.131629
  10 C :   -0.062067
  11 H :    0.131506
  12 H :    0.134621
  13 O :   -0.408100
  14 H :    0.317185
  15 C :    0.095653
  16 O :   -0.300814
  17 N :   -0.077381
  18 C :   -0.277279
  19 H :    0.126166
  20 H :    0.156341
  21 H :    0.122542
  22 C :   -0.282844
  23 H :    0.122833
  24 H :    0.154107
  25 H :    0.127767

-------------------------------
LOEWDIN REDUCED ORBITAL CHARGES
-------------------------------
  0 C s       :     2.849887  s :     2.849887
      pz      :     0.863082  p :     2.770408
      px      :     0.951042
      py      :     0.956285
      dz2     :     0.030094  d :     0.260930
      dxz     :     0.030386
      dyz     :     0.050441
      dx2y2   :     0.088275
      dxy     :     0.061734
  1 H s       :     0.844055  s :     0.844055
  2 H s       :     0.855689  s :     0.855689
  3 H s       :     0.848815  s :     0.848815
  4 O s       :     3.550851  s :     3.550851
      pz      :     1.467266  p :     4.648855
      px      :     1.608619
      py      :     1.572970
      dz2     :     0.007756  d :     0.056373
      dxz     :     0.006771
      dyz     :     0.014811
      dx2y2   :     0.012049
      dxy     :     0.014987
  5 C s       :     2.985659  s :     2.985659
      pz      :     1.111455  p :     3.348957
      px      :     1.085826
      py      :     1.151676
      dz2     :     0.017848  d :     0.062135
      dxz     :     0.012428
      dyz     :     0.004038
      dx2y2   :     0.013783
      dxy     :     0.014037
  6 N s       :     3.113179  s :     3.113179
      pz      :     1.450782  p :     3.899405
      px      :     1.280748
      py      :     1.167875
      dz2     :     0.012458  d :     0.093316
      dxz     :     0.013076
      dyz     :     0.015175
      dx2y2   :     0.024026
      dxy     :     0.028580
  7 C s       :     2.931659  s :     2.931659
      pz      :     1.033765  p :     3.140753
      px      :     0.980033
      py      :     1.126955
      dz2     :     0.016777  d :     0.109708
      dxz     :     0.029962
      dyz     :     0.023789
      dx2y2   :     0.021385
      dxy     :     0.017794
  8 H s       :     0.841230  s :     0.841230
  9 H s       :     0.868371  s :     0.868371
 10 C s       :     2.911496  s :     2.911496
      pz      :     1.000258  p :     2.974528
      px      :     0.970510
      py      :     1.003760
      dz2     :     0.032513  d :     0.176043
      dxz     :     0.042179
      dyz     :     0.022782
      dx2y2   :     0.022470
      dxy     :     0.056099
 11 H s       :     0.868494  s :     0.868494
 12 H s       :     0.865379  s :     0.865379
 13 O s       :     3.572408  s :     3.572408
      pz      :     1.410465  p :     4.786971
      px      :     1.591261
      py      :     1.785245
      dz2     :     0.008046  d :     0.048721
      dxz     :     0.017864
      dyz     :     0.007458
      dx2y2   :     0.007750
      dxy     :     0.007604
 14 H s       :     0.682815  s :     0.682815
 15 C s       :     2.850775  s :     2.850775
      pz      :     0.887014  p :     2.798790
      px      :     0.918310
      py      :     0.993466
      dz2     :     0.031727  d :     0.254783
      dxz     :     0.017685
      dyz     :     0.071728
      dx2y2   :     0.049472
      dxy     :     0.084170
 16 O s       :     3.570978  s :     3.570978
      pz      :     1.595901  p :     4.676886
      px      :     1.643669
      py      :     1.437317
      dz2     :     0.006734  d :     0.052951
      dxz     :     0.000644
      dyz     :     0.013246
      dx2y2   :     0.019565
      dxy     :     0.012763
 17 N s       :     3.089721  s :     3.089721
      pz      :     1.382945  p :     3.890106
      px      :     1.327685
      py      :     1.179476
      dz2     :     0.014534  d :     0.097554
      dxz     :     0.015049
      dyz     :     0.021270
      dx2y2   :     0.021902
      dxy     :     0.024799
 18 C s       :     2.962230  s :     2.962230
      pz      :     1.075958  p :     3.219420
      px      :     1.025720
      py      :     1.117742
      dz2     :     0.028006  d :     0.095630
      dxz     :     0.015016
      dyz     :     0.013494
      dx2y2   :     0.018917
      dxy     :     0.020197
 19 H s       :     0.873834  s :     0.873834
 20 H s       :     0.843659  s :     0.843659
 21 H s       :     0.877458  s :     0.877458
 22 C s       :     2.962205  s :     2.962205
      pz      :     1.134755  p :     3.223746
      px      :     1.149467
      py      :     0.939524
      dz2     :     0.021992  d :     0.096893
      dxz     :     0.012027
      dyz     :     0.017263
      dx2y2   :     0.021465
      dxy     :     0.024146
 23 H s       :     0.877167  s :     0.877167
 24 H s       :     0.845893  s :     0.845893
 25 H s       :     0.872233  s :     0.872233


                      *****************************
                      * MAYER POPULATION ANALYSIS *
                      *****************************

  NA   - Mulliken gross atomic population
  ZA   - Total nuclear charge
  QA   - Mulliken gross atomic charge
  VA   - Mayer's total valence
  BVA  - Mayer's bonded valence
  FA   - Mayer's free valence

  ATOM       NA         ZA         QA         VA         BVA        FA
  0 C      5.4611     6.0000     0.5389     3.9398     3.9398    -0.0000
  1 H      0.8011     1.0000     0.1989     0.9310     0.9310    -0.0000
  2 H      0.8293     1.0000     0.1707     0.9297     0.9297    -0.0000
  3 H      0.8162     1.0000     0.1838     0.9379     0.9379     0.0000
  4 O      8.4532     8.0000    -0.4532     2.0908     2.0908    -0.0000
  5 C      6.5636     6.0000    -0.5636     3.7932     3.7932    -0.0000
  6 N      7.3970     7.0000    -0.3970     3.0348     3.0348    -0.0000
  7 C      6.2601     6.0000    -0.2601     3.7664     3.7664     0.0000
  8 H      0.7949     1.0000     0.2051     0.9373     0.9373     0.0000
  9 H      0.8402     1.0000     0.1598     0.9407     0.9407    -0.0000
 10 C      5.9463     6.0000     0.0537     3.8273     3.8273     0.0000
 11 H      0.8369     1.0000     0.1631     0.9335     0.9335    -0.0000
 12 H      0.8216     1.0000     0.1784     0.9410     0.9410     0.0000
 13 O      8.6187     8.0000    -0.6187     1.8047     1.8047     0.0000
 14 H      0.5934     1.0000     0.4066     0.8006     0.8006    -0.0000
 15 C      5.4707     6.0000     0.5293     3.9251     3.9251    -0.0000
 16 O      8.4941     8.0000    -0.4941     2.0306     2.0306     0.0000
 17 N      7.3650     7.0000    -0.3650     3.1539     3.1539     0.0000
 18 C      6.3204     6.0000    -0.3204     3.7882     3.7882    -0.0000
 19 H      0.8473     1.0000     0.1527     0.9320     0.9320    -0.0000
 20 H      0.7971     1.0000     0.2029     0.9461     0.9461     0.0000
 21 H      0.8488     1.0000     0.1512     0.9299     0.9299     0.0000
 22 C      6.3404     6.0000    -0.3404     3.7733     3.7733    -0.0000
 23 H      0.8480     1.0000     0.1520     0.9283     0.9283    -0.0000
 24 H      0.7916     1.0000     0.2084     0.9458     0.9458    -0.0000
 25 H      0.8430     1.0000     0.1570     0.9292     0.9292    -0.0000

  Mayer bond orders larger than 0.100000
B(  0-C ,  4-O ) :   1.8357 B(  0-C ,  5-C ) :   0.9803 B(  0-C ,  6-N ) :   1.0765 
B(  1-H ,  5-C ) :   0.9161 B(  2-H ,  5-C ) :   0.9305 B(  3-H ,  5-C ) :   0.9406 
B(  6-N ,  7-C ) :   0.9405 B(  6-N , 10-C ) :   0.9587 B(  7-C ,  8-H ) :   0.8950 
B(  7-C ,  9-H ) :   0.9248 B(  7-C , 15-C ) :   0.9299 B( 10-C , 11-H ) :   0.9274 
B( 10-C , 12-H ) :   0.9102 B( 10-C , 13-O ) :   0.9851 B( 13-O , 14-H ) :   0.7809 
B( 15-C , 16-O ) :   1.7723 B( 15-C , 17-N ) :   1.1776 B( 17-N , 18-C ) :   0.9561 
B( 17-N , 22-C ) :   0.9573 B( 18-C , 19-H ) :   0.9415 B( 18-C , 20-H ) :   0.9202 
B( 18-C , 21-H ) :   0.9394 B( 22-C , 23-H ) :   0.9353 B( 22-C , 24-H ) :   0.8994 
B( 22-C , 25-H ) :   0.9380 

-------
TIMINGS
-------

Total SCF time: 0 days 0 hours 1 min 7 sec 

Total time                  ....      67.815 sec
Sum of individual times     ....      63.696 sec  ( 93.9%)

Fock matrix formation       ....      55.307 sec  ( 81.6%)
  Split-RI-J                ....       7.524 sec  ( 13.6% of F)
  Chain of spheres X        ....      30.467 sec  ( 55.1% of F)
  XC integration            ....      12.741 sec  ( 23.0% of F)
    Basis function eval.    ....       2.372 sec  ( 18.6% of XC)
    Density eval.           ....       2.462 sec  ( 19.3% of XC)
    XC-Functional eval.     ....       1.396 sec  ( 11.0% of XC)
    XC-Potential eval.      ....       1.178 sec  (  9.2% of XC)
Diagonalization             ....       0.065 sec  (  0.1%)
Density matrix formation    ....       0.008 sec  (  0.0%)
Population analysis         ....       0.050 sec  (  0.1%)
Initial guess               ....       0.254 sec  (  0.4%)
Orbital Transformation      ....       0.000 sec  (  0.0%)
Orbital Orthonormalization  ....       0.000 sec  (  0.0%)
DIIS solution               ....       0.055 sec  (  0.1%)
SOSCF solution              ....       0.070 sec  (  0.1%)
Grid generation             ....       7.887 sec  ( 11.6%)

Maximum memory used throughout the entire SCF-calculation: 63.6 MB


-------------------------------------------------------------------------------
                          DFT DISPERSION CORRECTION                            
                                                                               
                                 DFTD4 V2.5                                    
-------------------------------------------------------------------------------
The B3LYP functional is recognized
Active option DFTDOPT                   ...         5   

Starting D4
-------------------------   ----------------
Dispersion correction           -0.040911592
-------------------------   ----------------


-------------------------   --------------------
FINAL SINGLE POINT ENERGY      -610.039121065801
-------------------------   --------------------



           ************************************************************
           *        Program running with 4 parallel MPI-processes     *
           *              working on a common directory               *
           ************************************************************
------------------------------------------------------------------------------
                         ORCA SCF GRADIENT CALCULATION
------------------------------------------------------------------------------

 ... reading COSX grid (gridx3)
Gradient of the Kohn-Sham DFT energy:
Kohn-Sham wavefunction type      ... RKS
Hartree-Fock exchange scaling    ...    0.200
Number of operators              ...    1
Number of atoms                  ...   26
Basis set dimensions             ...  196
Integral neglect threshold       ... 2.5e-11
Integral primitive cutoff        ... 2.5e-12
SHARK Integral package           ... ON

Nuc. rep. gradient       (SHARK) ... done (  0.0 sec)
HCore & Overlap gradient (SHARK) ... done (  0.4 sec)
RI-J gradient            (SHARK) ... done (  1.8 sec)
COSX-gradient                    ... done (  7.2 sec)
Exchange-correlation gradient    ... done
Dispersion correction            ... Starting D4
Starting D4
Starting D4
Starting D4


------------------- 
Dispersion Gradient 
------------------- 
   1  :    0.000567102    0.000644188   -0.000048636
   2  :    0.000166534    0.000089347    0.000040924
   3  :    0.000147624    0.000134199    0.000152573
   4  :    0.000097885    0.000115302    0.000035622
   5  :    0.000133870    0.000800285   -0.000344499
   6  :    0.000582811    0.000485825    0.000323064
   7  :    0.000493108    0.000003809   -0.000202051
   8  :   -0.000144005   -0.000113674   -0.000641604
   9  :   -0.000002665    0.000110384   -0.000210081
  10  :   -0.000039174   -0.000112705   -0.000225244
  11  :    0.000572544   -0.000563751    0.000213960
  12  :    0.000152775   -0.000145466    0.000075005
  13  :    0.000169503   -0.000185705    0.000028903
  14  :    0.000582384   -0.000638730   -0.000112460
  15  :    0.000147412   -0.000132907   -0.000059322
  16  :   -0.000476245   -0.000434149   -0.000259968
  17  :   -0.000351080   -0.000762542   -0.000303259
  18  :   -0.000738986   -0.000037818    0.000186474
  19  :   -0.000589780   -0.000204637    0.000374652
  20  :   -0.000147809   -0.000034354    0.000064062
  21  :   -0.000099057   -0.000076169    0.000045947
  22  :   -0.000122584   -0.000063819    0.000137201
[...]
     15       0.000850   0.000344  -0.004515  -0.000130   0.000025  -0.000032
     16       0.008719  -0.004112   0.092392   0.000933  -0.000157  -0.000028
     17       0.000459  -0.000022   0.001445   0.000196  -0.000050  -0.000015
     18       0.000353  -0.000545  -0.000273   0.000157  -0.000003   0.000158
     19      -0.000341  -0.000249  -0.000286  -0.000689   0.000173  -0.000295
     20      -0.000169  -0.000322  -0.000110   0.000279  -0.000043  -0.000191
     21      -0.000622  -0.024465  -0.001234   0.012854  -0.002577  -0.000093
     22       0.000234   0.073213   0.003508  -0.038594   0.007697  -0.000023
     23       0.000746  -0.011916  -0.000798   0.008134  -0.001441  -0.000212
     24      -0.000915   0.243209   0.012560  -0.134335   0.026340  -0.000055
     25       0.004311  -0.743403  -0.037374   0.412871  -0.080982  -0.000067
     26      -0.002040   0.308301   0.015650  -0.163056   0.031705   0.000410
     27       0.001641   0.051726   0.002310  -0.024129   0.005572   0.000225
     28      -0.006243  -0.136629  -0.005528   0.061851  -0.014131   0.000594
     29      -0.008838  -0.172451  -0.006772   0.077572  -0.017481   0.000693
     30       0.053318   0.000855  -0.004597  -0.000418   0.000022   0.002755
     31       0.038198   0.000455  -0.003049   0.000157  -0.000046   0.000945
     32       0.067101   0.000142  -0.006617  -0.000203  -0.000046   0.001879
     33      -0.371675  -0.001138   0.036083   0.000985   0.000307  -0.009944
     34      -0.126816  -0.000393   0.011597   0.000231   0.000093  -0.003443
     35      -0.806921  -0.001862   0.078209   0.001278   0.000770  -0.016062
     36      -0.260544  -0.003855   0.017932  -0.000022   0.000245  -0.002296
     37      -0.328417  -0.006035   0.022961  -0.000185   0.000234  -0.005776
     38       0.014131   0.000826  -0.000423  -0.000288   0.000022  -0.003447
     39      -0.001600   0.000018   0.000185   0.000049  -0.000005   0.020812
     40      -0.000495  -0.000069   0.000162  -0.000013  -0.000001   0.019680
     41      -0.001244   0.000003   0.000169   0.000003   0.000002   0.055384
     42       0.015239   0.000626  -0.001237  -0.000411   0.000038  -0.353522
     43       0.004930  -0.000198  -0.000398   0.000090   0.000004  -0.311811
     44       0.016524  -0.000209  -0.001292  -0.000202   0.000027  -0.879475
     45      -0.000197  -0.000214  -0.000018   0.000445   0.000202  -0.000037
     46      -0.000094   0.000918   0.000096  -0.000778   0.001094  -0.000003
     47       0.000174   0.000820   0.000068  -0.000713  -0.000054   0.000029
     48       0.000223  -0.000177  -0.000010  -0.000070  -0.000669   0.000024
     49       0.000060  -0.000653  -0.000059   0.000402  -0.000263   0.000010
     50      -0.000026  -0.000198  -0.000013   0.000230   0.000503   0.000014
     51       0.000043   0.000314   0.000029  -0.000010  -0.000104   0.000016
     52       0.000011   0.000516  -0.000003   0.000928   0.000171   0.000000
     53      -0.000084  -0.000069  -0.000014   0.000249   0.000072  -0.000006
     54      -0.000024  -0.000212  -0.000028  -0.003174  -0.013279  -0.000014
     55       0.000070   0.002194   0.000021   0.020361   0.082675  -0.000005
     56       0.000147   0.000432  -0.000010   0.005810   0.023890   0.000004
     57       0.000505   0.004196   0.000391   0.040219   0.158580   0.000111
     58      -0.000122  -0.001316  -0.000144  -0.013751  -0.057791  -0.000046
     59       0.000068   0.001357   0.000109   0.012824   0.051713   0.000009
     60      -0.000010   0.000976  -0.000046   0.010740   0.041604  -0.000026
     61      -0.000688  -0.021135  -0.000123  -0.219587  -0.918137   0.000032
     62      -0.000047  -0.004403  -0.000011  -0.045193  -0.185993   0.000003
     63      -0.000167  -0.000814  -0.000014  -0.007903  -0.032642   0.000010
     64      -0.000248  -0.000106   0.000031  -0.003865  -0.017686   0.000007
     65      -0.001732  -0.003703  -0.000039  -0.040470  -0.158850  -0.000047
     66       0.000061  -0.035880  -0.000804  -0.062388   0.015789   0.000004
     67       0.000080  -0.012246  -0.000248  -0.022009   0.005236   0.000017
     68       0.000106   0.022699   0.000521   0.038070  -0.009526  -0.000009
     69       0.000016  -0.011748  -0.000279  -0.018267   0.003822  -0.000011
     70      -0.000401  -0.018854  -0.000475  -0.029069   0.006195  -0.000017
     71      -0.001755  -0.085334  -0.002091  -0.133273   0.033256  -0.000020
     72      -0.000791   0.367927   0.008367   0.645419  -0.164319  -0.000295
     73      -0.000321   0.183706   0.004138   0.323031  -0.082788  -0.000092
     74       0.000571  -0.218046  -0.004756  -0.389245   0.098710   0.000100
     75       0.000061   0.069456   0.001534   0.119217  -0.030825   0.000127
     76      -0.000084  -0.033051  -0.000810  -0.055633   0.013329  -0.000038
     77      -0.000008   0.035546   0.000827   0.059923  -0.014921   0.000026


-----------
IR SPECTRUM
-----------

 Mode   freq       eps      Int      T**2         TX        TY        TZ
       cm**-1   L/(mol*cm) km/mol    a.u.
----------------------------------------------------------------------------
  6:     12.31   0.001018    5.15  0.025819  (-0.061031  0.008678 -0.148388)
  7:     57.52   0.000258    1.31  0.001401  ( 0.020357  0.012016 -0.029024)
  8:     77.82   0.000237    1.20  0.000951  ( 0.021964  0.007600 -0.020274)
  9:     97.00   0.000756    3.82  0.002431  ( 0.008691  0.005803  0.048189)
 10:    106.24   0.000809    4.09  0.002375  (-0.045988 -0.010337 -0.012396)
 11:    122.30   0.002028   10.25  0.005176  ( 0.067401  0.004639 -0.024731)
 12:    144.77   0.000254    1.28  0.000547  (-0.023316  0.000127 -0.001954)
 13:    169.04   0.000087    0.44  0.000160  (-0.003276  0.010606  0.006060)
 14:    194.07   0.000104    0.53  0.000168  (-0.000642 -0.010760 -0.007170)
 15:    209.11   0.000544    2.75  0.000811  (-0.007490 -0.003281 -0.027283)
 16:    267.88   0.001311    6.63  0.001527  (-0.033281 -0.020383 -0.002091)
 17:    277.74   0.001467    7.41  0.001648  (-0.019580  0.021115 -0.028620)
 18:    315.52   0.016021   80.96  0.015845  ( 0.018707 -0.123356  0.016689)
 19:    354.76   0.003114   15.74  0.002739  (-0.011941 -0.047987  0.017137)
 20:    390.00   0.005308   26.82  0.004247  ( 0.030121 -0.051738 -0.025750)
 21:    432.75   0.000107    0.54  0.000077  ( 0.004930  0.003397  0.006401)
 22:    442.99   0.001218    6.15  0.000858  (-0.026781  0.010554  0.005396)
 23:    473.21   0.002417   12.22  0.001594  ( 0.009867  0.038562 -0.003097)
 24:    512.67   0.003438   17.37  0.002093  ( 0.026788 -0.015705  0.033593)
 25:    577.52   0.001341    6.78  0.000725  (-0.020651 -0.015712  0.007167)
 26:    608.87   0.003906   19.74  0.002002  (-0.029106  0.000359  0.033983)
 27:    636.64   0.005720   28.91  0.002804  ( 0.005951 -0.051430  0.011107)
 28:    708.56   0.000420    2.12  0.000185  ( 0.001612 -0.009946  0.009140)
 29:    768.52   0.001872    9.46  0.000760  (-0.004963 -0.021923  0.015969)
 30:    822.07   0.003688   18.64  0.001400  (-0.035532  0.007491  0.009022)
 31:    950.26   0.001405    7.10  0.000461  ( 0.014665  0.011539 -0.010636)
 32:    996.74   0.013741   69.44  0.004302  ( 0.057902 -0.018723 -0.024472)
 33:   1004.56   0.005956   30.10  0.001850  (-0.016616 -0.037971  0.011499)
 34:   1011.45   0.001272    6.43  0.000392  ( 0.007341  0.014934  0.010749)
 35:   1056.22   0.029822  150.71  0.008811  (-0.068206  0.040220  0.050412)
 36:   1072.60   0.004422   22.35  0.001287  ( 0.020599 -0.010842 -0.027291)
 37:   1096.00   0.002034   10.28  0.000579  (-0.002649  0.023910 -0.000530)
 38:   1109.55   0.009777   49.41  0.002750  ( 0.035303 -0.033285 -0.019890)
 39:   1142.14   0.000023    0.12  0.000006  (-0.000797 -0.000945 -0.002186)
 40:   1164.30   0.009826   49.66  0.002634  (-0.037543  0.032934  0.011812)
 41:   1190.61   0.000586    2.96  0.000154  (-0.010207  0.000730 -0.007001)
 42:   1226.59   0.003165   16.00  0.000805  ( 0.001700 -0.000746 -0.028316)
 43:   1263.97   0.020642  104.32  0.005096  ( 0.022512  0.063351  0.024005)
 44:   1288.44   0.009027   45.62  0.002186  ( 0.030924  0.024296 -0.025296)
 45:   1312.49   0.012072   61.01  0.002870  (-0.053211 -0.005708 -0.002524)
 46:   1375.73   0.000223    1.13  0.000051  (-0.002821  0.002993 -0.005801)
 47:   1398.36   0.006621   33.46  0.001477  (-0.025745 -0.026487  0.010634)
 48:   1418.35   0.008865   44.80  0.001950  ( 0.043940 -0.001661  0.004118)
 49:   1438.15   0.014703   74.30  0.003190  (-0.005362 -0.051803 -0.021867)
 50:   1449.73   0.007284   36.81  0.001568  ( 0.017127 -0.032323 -0.015157)
 51:   1465.25   0.019685   99.48  0.004193  ( 0.056777 -0.014502 -0.027544)
 52:   1482.64   0.015873   80.21  0.003341  ( 0.039605  0.041663 -0.006047)
 53:   1504.12   0.003210   16.22  0.000666  ( 0.007823 -0.005102 -0.024059)
 54:   1504.68   0.002844   14.37  0.000590  (-0.019575  0.012606 -0.006914)
 55:   1517.91   0.003380   17.08  0.000695  ( 0.013232  0.011990  0.019393)
 56:   1519.09   0.003584   18.11  0.000736  ( 0.014745  0.021445 -0.007673)
 57:   1525.22   0.000773    3.91  0.000158  (-0.007615 -0.003225 -0.009473)
 58:   1536.35   0.003368   17.02  0.000684  ( 0.016054 -0.008931  0.018617)
 59:   1545.06   0.002145   10.84  0.000433  (-0.006219 -0.019838 -0.000981)
 60:   1550.48   0.001001    5.06  0.000201  ( 0.005661  0.013003  0.000537)
 61:   1572.10   0.007351   37.15  0.001459  (-0.028213  0.001910  0.025681)
 62:   1742.92   0.062294  314.81  0.011154  ( 0.030816 -0.095062 -0.034165)
 63:   1757.80   0.052526  265.45  0.009325  (-0.036763  0.087892 -0.015768)
 64:   3024.11   0.007198   36.37  0.000743  ( 0.011748 -0.024556 -0.001311)
 65:   3034.34   0.017694   89.42  0.001820  (-0.033325  0.010893  0.024300)
 66:   3059.48   0.000639    3.23  0.000065  (-0.002969  0.000618 -0.007484)
 67:   3070.32   0.008500   42.96  0.000864  (-0.015210  0.001106 -0.025127)
 68:   3072.78   0.004555   23.02  0.000463  (-0.001770 -0.008292 -0.019767)
 69:   3080.72   0.005448   27.53  0.000552  ( 0.016664 -0.002618  0.016348)
 70:   3091.83   0.003009   15.21  0.000304  (-0.000321  0.012731 -0.011898)
 71:   3130.67   0.000943    4.77  0.000094  ( 0.005194  0.004164 -0.007048)
 72:   3158.58   0.003228   16.31  0.000319  ( 0.009627  0.003242  0.014687)
 73:   3170.74   0.000053    0.27  0.000005  (-0.002001  0.000987 -0.000519)
 74:   3179.02   0.000976    4.93  0.000096  ( 0.001620  0.009531 -0.001537)
 75:   3187.84   0.003067   15.50  0.000300  ( 0.016973  0.003163 -0.001474)
 76:   3191.30   0.000109    0.55  0.000011  (-0.000359  0.002994 -0.001244)
 77:   3733.00   0.003655   18.47  0.000306  ( 0.000689 -0.008236 -0.015403)

* The epsilon (eps) is given for a Dirac delta lineshape.
** The dipole moment derivative (T) already includes vibrational overlap.

The first frequency considered to be a vibration is 6
The total number of vibrations considered is 72


--------------------------
THERMOCHEMISTRY AT 298.15K
--------------------------

Temperature         ... 298.15 K
Pressure            ... 1.00 atm
Total Mass          ... 174.20 AMU

Throughout the following assumptions are being made:
  (1) The electronic state is orbitally nondegenerate
  (2) There are no thermally accessible electronically excited states
  (3) Hindered rotations indicated by low frequency modes are not
      treated as such but are treated as vibrations and this may
      cause some error
  (4) All equations used are the standard statistical mechanics
      equations for an ideal gas
  (5) All vibrations are strictly harmonic

freq.      12.31  E(vib)   ...       0.58 
freq.      57.52  E(vib)   ...       0.51 
freq.      77.82  E(vib)   ...       0.49 
freq.      97.00  E(vib)   ...       0.46 
freq.     106.24  E(vib)   ...       0.45 
freq.     122.30  E(vib)   ...       0.43 
freq.     144.77  E(vib)   ...       0.41 
freq.     169.04  E(vib)   ...       0.38 
freq.     194.07  E(vib)   ...       0.36 
freq.     209.11  E(vib)   ...       0.34 
freq.     267.88  E(vib)   ...       0.29 
freq.     277.74  E(vib)   ...       0.28 
freq.     315.52  E(vib)   ...       0.25 
freq.     354.76  E(vib)   ...       0.22 
freq.     390.00  E(vib)   ...       0.20 
freq.     432.75  E(vib)   ...       0.17 
freq.     442.99  E(vib)   ...       0.17 
freq.     473.21  E(vib)   ...       0.15 
freq.     512.67  E(vib)   ...       0.13 
freq.     577.52  E(vib)   ...       0.11 
freq.     608.87  E(vib)   ...       0.10 
freq.     636.64  E(vib)   ...       0.09 
freq.     708.56  E(vib)   ...       0.07 
freq.     768.52  E(vib)   ...       0.06 
freq.     822.07  E(vib)   ...       0.05 
freq.     950.26  E(vib)   ...       0.03 
freq.     996.74  E(vib)   ...       0.02 
freq.    1004.56  E(vib)   ...       0.02 
freq.    1011.45  E(vib)   ...       0.02 
freq.    1056.22  E(vib)   ...       0.02 
freq.    1072.60  E(vib)   ...       0.02 
freq.    1096.00  E(vib)   ...       0.02 
freq.    1109.55  E(vib)   ...       0.02 
freq.    1142.14  E(vib)   ...       0.01 
freq.    1164.30  E(vib)   ...       0.01 
freq.    1190.61  E(vib)   ...       0.01 
freq.    1226.59  E(vib)   ...       0.01 
freq.    1263.97  E(vib)   ...       0.01 
freq.    1288.44  E(vib)   ...       0.01 
freq.    1312.49  E(vib)   ...       0.01 
freq.    1375.73  E(vib)   ...       0.01 
freq.    1398.36  E(vib)   ...       0.00 
freq.    1418.35  E(vib)   ...       0.00 
freq.    1438.15  E(vib)   ...       0.00 
freq.    1449.73  E(vib)   ...       0.00 
freq.    1465.25  E(vib)   ...       0.00 
freq.    1482.64  E(vib)   ...       0.00 
freq.    1504.12  E(vib)   ...       0.00 
freq.    1504.68  E(vib)   ...       0.00 
freq.    1517.91  E(vib)   ...       0.00 
freq.    1519.09  E(vib)   ...       0.00 
freq.    1525.22  E(vib)   ...       0.00 
freq.    1536.35  E(vib)   ...       0.00 
freq.    1545.06  E(vib)   ...       0.00 
freq.    1550.48  E(vib)   ...       0.00 
freq.    1572.10  E(vib)   ...       0.00 
freq.    1742.92  E(vib)   ...       0.00 
freq.    1757.80  E(vib)   ...       0.00 
freq.    3024.11  E(vib)   ...       0.00 
freq.    3034.34  E(vib)   ...       0.00 
freq.    3059.48  E(vib)   ...       0.00 
freq.    3070.32  E(vib)   ...       0.00 
freq.    3072.78  E(vib)   ...       0.00 
freq.    3080.72  E(vib)   ...       0.00 
freq.    3091.83  E(vib)   ...       0.00 
freq.    3130.67  E(vib)   ...       0.00 
freq.    3158.58  E(vib)   ...       0.00 
freq.    3170.74  E(vib)   ...       0.00 
freq.    3179.02  E(vib)   ...       0.00 
freq.    3187.84  E(vib)   ...       0.00 
freq.    3191.30  E(vib)   ...       0.00 
freq.    3733.00  E(vib)   ...       0.00 

------------
INNER ENERGY
------------

The inner energy is: U= E(el) + E(ZPE) + E(vib) + E(rot) + E(trans)
    E(el)   - is the total energy from the electronic structure calculation
              = E(kin-el) + E(nuc-el) + E(el-el) + E(nuc-nuc)
    E(ZPE)  - the the zero temperature vibrational energy from the frequency calculation
    E(vib)  - the the finite temperature correction to E(ZPE) due to population
              of excited vibrational states
    E(rot)  - is the rotational thermal energy
    E(trans)- is the translational thermal energy

Summary of contributions to the inner energy U:
Electronic energy                ...   -610.04018427 Eh
Zero point energy                ...      0.22133417 Eh     138.89 kcal/mol
Thermal vibrational correction   ...      0.01124042 Eh       7.05 kcal/mol
Thermal rotational correction    ...      0.00141627 Eh       0.89 kcal/mol
Thermal translational correction ...      0.00141627 Eh       0.89 kcal/mol
-----------------------------------------------------------------------
Total thermal energy                   -609.80477713 Eh


Summary of corrections to the electronic energy:
(perhaps to be used in another calculation)
Total thermal correction                  0.01407296 Eh       8.83 kcal/mol
Non-thermal (ZPE) correction              0.22133417 Eh     138.89 kcal/mol
-----------------------------------------------------------------------
Total correction                          0.23540714 Eh     147.72 kcal/mol


--------
ENTHALPY
--------

The enthalpy is H = U + kB*T
                kB is Boltzmann's constant
Total free energy                 ...   -609.80477713 Eh 
Thermal Enthalpy correction       ...      0.00094421 Eh       0.59 kcal/mol
-----------------------------------------------------------------------
Total Enthalpy                    ...   -609.80383292 Eh


Note: Only C1 symmetry has been detected, increase convergence thresholds 
      if your molecule has a higher symmetry. Symmetry factor of 1.0 is   
      used for the rotational entropy correction. 
 

Note: Rotational entropy computed according to Herzberg 
Infrared and Raman Spectra, Chapter V,1, Van Nostrand Reinhold, 1945 
Point Group:  C1, Symmetry Number:   1  
Rotational constants in cm-1:     0.044828     0.021353     0.016270 

Vibrational entropy computed according to the QRRHO of S. Grimme
Chem.Eur.J. 2012 18 9955


-------
ENTROPY
-------

The entropy contributions are T*S = T*(S(el)+S(vib)+S(rot)+S(trans))
     S(el)   - electronic entropy
     S(vib)  - vibrational entropy
     S(rot)  - rotational entropy
     S(trans)- translational entropy
The entropies will be listed as multiplied by the temperature to get
units of energy

Electronic entropy                ...      0.00000000 Eh      0.00 kcal/mol
Vibrational entropy               ...      0.02053989 Eh     12.89 kcal/mol
Rotational entropy                ...      0.01473680 Eh      9.25 kcal/mol
Translational entropy             ...      0.01965732 Eh     12.34 kcal/mol
-----------------------------------------------------------------------
Final entropy term                ...      0.05493401 Eh     34.47 kcal/mol

In case the symmetry of your molecule has not been determined correctly
or in case you have a reason to use a different symmetry number we print 
out the resulting rotational entropy values for sn=1,12 :
 --------------------------------------------------------
|  sn= 1 | S(rot)=       0.01473680 Eh      9.25 kcal/mol|
|  sn= 2 | S(rot)=       0.01408235 Eh      8.84 kcal/mol|
|  sn= 3 | S(rot)=       0.01369951 Eh      8.60 kcal/mol|
|  sn= 4 | S(rot)=       0.01342789 Eh      8.43 kcal/mol|
|  sn= 5 | S(rot)=       0.01321720 Eh      8.29 kcal/mol|
|  sn= 6 | S(rot)=       0.01304506 Eh      8.19 kcal/mol|
|  sn= 7 | S(rot)=       0.01289951 Eh      8.09 kcal/mol|
|  sn= 8 | S(rot)=       0.01277343 Eh      8.02 kcal/mol|
|  sn= 9 | S(rot)=       0.01266222 Eh      7.95 kcal/mol|
|  sn=10 | S(rot)=       0.01256275 Eh      7.88 kcal/mol|
|  sn=11 | S(rot)=       0.01247276 Eh      7.83 kcal/mol|
|  sn=12 | S(rot)=       0.01239060 Eh      7.78 kcal/mol|
 --------------------------------------------------------


-------------------
GIBBS FREE ENERGY
-------------------

The Gibbs free energy is G = H - T*S

Total enthalpy                    ...   -609.80383292 Eh 
Total entropy correction          ...     -0.05493401 Eh    -34.47 kcal/mol
-----------------------------------------------------------------------
Final Gibbs free energy         ...   -609.85876693 Eh

For completeness - the Gibbs free energy minus the electronic energy
G-E(el)                           ...      0.18141733 Eh    113.84 kcal/mol


Timings for individual modules:

Sum of individual times         ...     1479.776 sec (=  24.663 min)
GTO integral calculation        ...       39.418 sec (=   0.657 min)   2.7 %
SCF iterations                  ...      896.881 sec (=  14.948 min)  60.6 %
SCF Gradient evaluation         ...      238.598 sec (=   3.977 min)  16.1 %
Geometry relaxation             ...        6.563 sec (=   0.109 min)   0.4 %
Analytical frequency calculation...      298.316 sec (=   4.972 min)  20.2 %
                             ****ORCA TERMINATED NORMALLY****
TOTAL RUN TIME: 0 days 0 hours 24 minutes 56 seconds 986 msec
