
                                 *****************
                                 * O   R   C   A *
                                 *****************

                                            #,                                       
                                            ###                                      
                                            ####                                     
                                            #####                                    
                                            ######                                   
                                           ########,                                 
                                     ,,################,,,,,                         
                               ,,#################################,,                 
                          ,,##########################################,,             
                       ,#########################################, ''#####,          
                    ,#############################################,,   '####,        
                  ,##################################################,,,,####,       
                ,###########''''           ''''###############################       
              ,#####''   ,,,,##########,,,,          '''####'''          '####       
            ,##' ,,,,###########################,,,                        '##       
           ' ,,###''''                  '''############,,,                           
         ,,##''                                '''############,,,,        ,,,,,,###''
      ,#''                                            '''#######################'''  
     '                                                          ''''####''''         
             ,#######,   #######,   ,#######,      ##                                
            ,#'     '#,  ##    ##  ,#'     '#,    #''#        ######   ,####,        
            ##       ##  ##   ,#'  ##            #'  '#       #        #'  '#        
            ##       ##  #######   ##           ,######,      #####,   #    #        
            '#,     ,#'  ##    ##  '#,     ,#' ,#      #,         ##   #,  ,#        
             '#######'   ##     ##  '#######'  #'      '#     #####' # '####'        



                  #######################################################
                  #                        -***-                        #
                  #          Department of theory and spectroscopy      #
                  #    Directorship and core code : Frank Neese         #
                  #        Max Planck Institute fuer Kohlenforschung    #
                  #                Kaiser Wilhelm Platz 1               #
                  #                 D-45470 Muelheim/Ruhr               #
                  #                      Germany                        #
                  #                                                     #
                  #                  All rights reserved                #
                  #                        -***-                        #
                  #######################################################


                         Program Version 5.0.4 -  RELEASE  -


 With contributions from (in alphabetic order):
   Daniel Aravena         : Magnetic Suceptibility
   Michael Atanasov       : Ab Initio Ligand Field Theory (pilot matlab implementation)
   Alexander A. Auer      : GIAO ZORA, VPT2 properties, NMR spectrum
   Ute Becker             : Parallelization
   Giovanni Bistoni       : ED, misc. LED, open-shell LED, HFLD
   Martin Brehm           : Molecular dynamics
   Dmytro Bykov           : SCF Hessian
   Vijay G. Chilkuri      : MRCI spin determinant printing, contributions to CSF-ICE
   Dipayan Datta          : RHF DLPNO-CCSD density
   Achintya Kumar Dutta   : EOM-CC, STEOM-CC
   Dmitry Ganyushin       : Spin-Orbit,Spin-Spin,Magnetic field MRCI
   Miquel Garcia          : C-PCM and meta-GGA Hessian, CC/C-PCM, Gaussian charge scheme
   Yang Guo               : DLPNO-NEVPT2, F12-NEVPT2, CIM, IAO-localization
   Andreas Hansen         : Spin unrestricted coupled pair/coupled cluster methods
   Benjamin Helmich-Paris : MC-RPA, TRAH-SCF, COSX integrals
   Lee Huntington         : MR-EOM, pCC
   Robert Izsak           : Overlap fitted RIJCOSX, COSX-SCS-MP3, EOM
   Marcus Kettner         : VPT2
   Christian Kollmar      : KDIIS, OOCD, Brueckner-CCSD(T), CCSD density, CASPT2, CASPT2-K
   Simone Kossmann        : Meta GGA functionals, TD-DFT gradient, OOMP2, MP2 Hessian
   Martin Krupicka        : Initial AUTO-CI
   Lucas Lang             : DCDCAS
   Marvin Lechner         : AUTO-CI (C++ implementation), FIC-MRCC
   Dagmar Lenk            : GEPOL surface, SMD
   Dimitrios Liakos       : Extrapolation schemes; Compound Job, initial MDCI parallelization
   Dimitrios Manganas     : Further ROCIS development; embedding schemes
   Dimitrios Pantazis     : SARC Basis sets
   Anastasios Papadopoulos: AUTO-CI, single reference methods and gradients
   Taras Petrenko         : DFT Hessian,TD-DFT gradient, ASA, ECA, R-Raman, ABS, FL, XAS/XES, NRVS
   Peter Pinski           : DLPNO-MP2, DLPNO-MP2 Gradient
   Christoph Reimann      : Effective Core Potentials
   Marius Retegan         : Local ZFS, SOC
   Christoph Riplinger    : Optimizer, TS searches, QM/MM, DLPNO-CCSD(T), (RO)-DLPNO pert. Triples
   Tobias Risthaus        : Range-separated hybrids, TD-DFT gradient, RPA, STAB
   Michael Roemelt        : Original ROCIS implementation
   Masaaki Saitow         : Open-shell DLPNO-CCSD energy and density
   Barbara Sandhoefer     : DKH picture change effects
   Avijit Sen             : IP-ROCIS
   Kantharuban Sivalingam : CASSCF convergence, NEVPT2, FIC-MRCI
   Bernardo de Souza      : ESD, SOC TD-DFT
   Georgi Stoychev        : AutoAux, RI-MP2 NMR, DLPNO-MP2 response
   Willem Van den Heuvel  : Paramagnetic NMR
   Boris Wezisla          : Elementary symmetry handling
   Frank Wennmohs         : Technical directorship


 We gratefully acknowledge several colleagues who have allowed us to
 interface, adapt or use parts of their codes:
   Stefan Grimme, W. Hujo, H. Kruse, P. Pracht,  : VdW corrections, initial TS optimization,
                  C. Bannwarth, S. Ehlert          DFT functionals, gCP, sTDA/sTD-DF
   Ed Valeev, F. Pavosevic, A. Kumar             : LibInt (2-el integral package), F12 methods
   Garnet Chan, S. Sharma, J. Yang, R. Olivares  : DMRG
   Ulf Ekstrom                                   : XCFun DFT Library
   Mihaly Kallay                                 : mrcc  (arbitrary order and MRCC methods)
   Jiri Pittner, Ondrej Demel                    : Mk-CCSD
   Frank Weinhold                                : gennbo (NPA and NBO analysis)
   Christopher J. Cramer and Donald G. Truhlar   : smd solvation model
   Lars Goerigk                                  : TD-DFT with DH, B97 family of functionals
   V. Asgeirsson, H. Jonsson                     : NEB implementation
   FAccTs GmbH                                   : IRC, NEB, NEB-TS, DLPNO-Multilevel, CI-OPT
                                                   MM, QMMM, 2- and 3-layer-ONIOM, Crystal-QMMM,
                                                   LR-CPCM, SF, NACMEs, symmetry and pop. for TD-DFT,
                                                   nearIR, NL-DFT gradient (VV10), updates on ESD,
                                                   ML-optimized integration grids
   S Lehtola, MJT Oliveira, MAL Marques          : LibXC Library
   Liviu Ungur et al                             : ANISO software


 Your calculation uses the libint2 library for the computation of 2-el integrals
 For citations please refer to: http://libint.valeyev.net

 Your ORCA version has been built with support for libXC version: 5.1.0
 For citations please refer to: https://tddft.org/programs/libxc/

 This ORCA versions uses:
   CBLAS   interface :  Fast vector & matrix operations
   LAPACKE interface :  Fast linear algebra routines
   SCALAPACK package :  Parallel linear algebra routines
   Shared memory     :  Shared parallel matrices
   BLAS/LAPACK       :  OpenBLAS 0.3.15  USE64BITINT DYNAMIC_ARCH NO_AFFINITY SkylakeX SINGLE_THREADED
        Core in use  :  SkylakeX
   Copyright (c) 2011-2014, The OpenBLAS Project




***************************************
The coordinates will be read from file: /users/fjb15167/WWenergy/structures/Nf.xyz
***************************************


Your calculation utilizes the atom-pairwise dispersion correction
based on tight binding partial charges (D4)
Cite in your paper:
E.Caldeweyher, C.Bannwarth, S.Grimme, J.Chem.Phys., (2017), 147, 034112.
E.Caldeweyher, S.Ehlert, A.Hansen, H.Neugebauer, S.Grimme, J.Chem.Phys., (2018), in progress.
   

================================================================================

----- Orbital basis set information -----
Your calculation utilizes the basis: 6-31G(d)
   H-He, Li-Ne : W. J. Hehre, R. Ditchfield and J.A. Pople, J. Chem. Phys. 56, 2257 (1972).
                 Note: He and Ne are unpublished basis sets taken from the Gaussian program.
                 Note: Li and B from J. D. Dill and J. A. Pople, J. Chem. Phys. 62, 2921 (1975).
   Na - Ar     : M. M. Francl, W. J. Pietro, W. J. Hehre, J. S. Binkley, M. S. Gordon, 
                 D. J. DeFrees and J. A. Pople, J. Chem. Phys. 77, 3654 (1982).
   K - Zn      : V. A. Rassolov, J. A. Pople, M. A. Ratner, and T. L. Windus, J. Chem. Phys. 109, 1223 (1998).

----- AuxJ basis set information -----
Your calculation utilizes the AutoAux generation procedure.
  G. L. Stoychev, A. A. Auer, F. Neese, J. Chem. Theory Comput. 13, 554 (2017)

----- AuxC basis set information -----
Your calculation utilizes the AutoAux generation procedure.
  G. L. Stoychev, A. A. Auer, F. Neese, J. Chem. Theory Comput. 13, 554 (2017)

----- AuxJK basis set information -----
Your calculation utilizes the AutoAux generation procedure.
  G. L. Stoychev, A. A. Auer, F. Neese, J. Chem. Theory Comput. 13, 554 (2017)

================================================================================
                                        WARNINGS
                       Please study these warnings very carefully!
================================================================================


WARNING: Geometry Optimization
  ===> : Switching off AutoStart
         For restart on a previous wavefunction, please use MOREAD

INFO   : the flag for use of the SHARK integral package has been found!

================================================================================
                                       INPUT FILE
================================================================================
NAME = Nf_gas.inp
|  1> ! OPT FREQ B3LYP 6-31G(d) D4 AUTOAUX
|  2> 
|  3> %PAL NPROCS 4 END
|  4> 
|  5> %maxcore 3375
|  6> 
|  7> *xyzfile 0 1 /users/fjb15167/WWenergy/structures/Nf.xyz
|  8> 
|  9>                          ****END OF INPUT****
================================================================================

                       *****************************
                       * Geometry Optimization Run *
                       *****************************

Geometry optimization settings:
Update method            Update   .... BFGS
Choice of coordinates    CoordSys .... Z-matrix Internals
Initial Hessian          InHess   .... Almoef's Model

Convergence Tolerances:
Energy Change            TolE     ....  5.0000e-06 Eh
Max. Gradient            TolMAXG  ....  3.0000e-04 Eh/bohr
RMS Gradient             TolRMSG  ....  1.0000e-04 Eh/bohr
Max. Displacement        TolMAXD  ....  4.0000e-03 bohr
RMS Displacement         TolRMSD  ....  2.0000e-03 bohr
Strict Convergence                ....  False
------------------------------------------------------------------------------
                        ORCA OPTIMIZATION COORDINATE SETUP
------------------------------------------------------------------------------

The optimization will be done in new redundant internal coordinates
Making redundant internal coordinates   ...  (new redundants) done
Evaluating the initial hessian          ...  (Almloef) done
Evaluating the coordinates              ...  done
Calculating the B-matrix                .... done
Calculating the G-matrix                .... done
Diagonalizing the G-matrix              .... done
Small eigenvalue found = 4.411e-03
Small eigenvalue found = 6.781e-03
Small eigenvalue found = 1.073e-02
Small eigenvalue found = 1.855e-02
Small eigenvalue found = 2.504e-02
The first mode is                       ....   71
The number of degrees of freedom        ....   99

    -----------------------------------------------------------------
                    Redundant Internal Coordinates


    -----------------------------------------------------------------
         Definition                    Initial Value    Approx d2E/dq
    -----------------------------------------------------------------
      1. B(H   1,C   0)                  1.0912         0.358565   
      2. B(H   2,C   0)                  1.0903         0.359662   
      3. B(H   3,C   0)                  1.0930         0.356145   
      4. B(C   4,C   0)                  1.5132         0.397415   
      5. B(N   5,C   4)                  1.3795         0.581610   
      6. B(C   6,N   5)                  1.4713         0.415114   
      7. B(H   7,C   6)                  1.0926         0.356733   
      8. B(H   8,C   6)                  1.0983         0.349247   
      9. B(C   9,C   6)                  1.5043         0.410614   
     10. B(C  10,C   9)                  1.4036         0.594387   
     11. B(C  11,C   9)                  1.3994         0.603673   
     12. B(C  12,C  10)                  1.3941         0.615526   
     13. B(H  13,C  10)                  1.0876         0.363255   
     14. B(C  14,C  11)                  1.3981         0.606566   
     15. B(H  15,C  11)                  1.0892         0.361222   
     16. B(C  16,C  14)                  1.3954         0.612581   
     17. B(C  16,C  12)                  1.3998         0.602705   
     18. B(H  17,C  12)                  1.0879         0.362925   
     19. B(H  18,C  14)                  1.0874         0.363567   
     20. B(H  19,C  16)                  1.0879         0.362832   
     21. B(C  20,N   5)                  1.4597         0.433220   
     22. B(H  21,C  20)                  1.0973         0.350573   
     23. B(H  22,C  20)                  1.0974         0.350435   
     24. B(C  23,C  20)                  1.5302         0.373353   
     25. B(N  24,C  23)                  1.3643         0.615052   
     26. B(O  25,C  23)                  1.2377         0.979112   
     27. B(O  26,C   4)                  1.2373         0.980483   
     28. B(C  27,N  24)                  1.4546         0.441397   
     29. B(H  28,C  27)                  1.0965         0.351540   
     30. B(H  29,C  27)                  1.0953         0.353218   
     31. B(H  30,C  27)                  1.0854         0.366239   
     32. B(H  30,H  19)                  4.3585         0.000000   
     33. B(C  31,N  24)                  1.4555         0.439954   
     34. B(H  32,C  31)                  1.0945         0.354247   
     35. B(H  33,C  31)                  1.0959         0.352374   
     36. B(H  34,C  31)                  1.0880         0.362715   
     37. A(H   2,C   0,C   4)          106.6493         0.327571   
     38. A(H   1,C   0,H   3)          107.7308         0.290141   
     39. A(H   1,C   0,H   2)          110.1216         0.290589   
     40. A(H   3,C   0,C   4)          110.5962         0.327041   
     41. A(H   1,C   0,C   4)          113.1157         0.327406   
     42. A(H   2,C   0,H   3)          108.5581         0.290280   
     43. A(C   0,C   4,N   5)          118.1905         0.394010   
     44. A(C   0,C   4,O  26)          120.9521         0.432281   
     45. A(N   5,C   4,O  26)          120.8527         0.460103   
     46. A(C   4,N   5,C  20)          125.4309         0.397465   
     47. A(C   4,N   5,C   6)          117.0759         0.394498   
     48. A(C   6,N   5,C  20)          115.5903         0.374795   
     49. A(H   8,C   6,C   9)          110.5859         0.327749   
     50. A(H   7,C   6,C   9)          110.6215         0.328898   
     51. A(N   5,C   6,C   9)          112.0223         0.373692   
     52. A(N   5,C   6,H   7)          106.9123         0.327511   
     53. A(H   7,C   6,H   8)          108.3900         0.289021   
     54. A(N   5,C   6,H   8)          108.1573         0.326369   
     55. A(C   6,C   9,C  10)          119.1875         0.400351   
     56. A(C  10,C   9,C  11)          119.3655         0.428729   
     57. A(C   6,C   9,C  11)          121.3852         0.401445   
     58. A(C  12,C  10,H  13)          121.0503         0.352997   
     59. A(C   9,C  10,H  13)          118.8069         0.350918   
     60. A(C   9,C  10,C  12)          120.1420         0.430227   
     61. A(C  14,C  11,H  15)          119.8680         0.351789   
     62. A(C   9,C  11,H  15)          119.6504         0.351505   
     63. A(C   9,C  11,C  14)          120.4740         0.430292   
     64. A(C  16,C  12,H  17)          119.9439         0.351689   
     65. A(C  10,C  12,C  16)          120.2255         0.431302   
     66. A(C  10,C  12,H  17)          119.8304         0.352943   
     67. A(C  16,C  14,H  18)          120.1243         0.352762   
     68. A(C  11,C  14,H  18)          119.9653         0.352174   
     69. A(C  11,C  14,C  16)          119.9103         0.431425   
     70. A(C  12,C  16,H  19)          120.0632         0.351673   
     71. A(C  12,C  16,C  14)          119.8790         0.430931   
     72. A(C  14,C  16,H  19)          120.0549         0.352642   
     73. A(H  22,C  20,C  23)          107.9657         0.322843   
     74. A(H  21,C  20,C  23)          104.9223         0.322864   
     75. A(N   5,C  20,C  23)          117.5747         0.370333   
     76. A(H  21,C  20,H  22)          107.5320         0.288387   
     77. A(N   5,C  20,H  22)          106.5502         0.328858   
     78. A(N   5,C  20,H  21)          111.8884         0.328879   
     79. A(N  24,C  23,O  25)          122.9268         0.464710   
     80. A(C  20,C  23,O  25)          118.6363         0.427355   
     81. A(C  20,C  23,N  24)          118.4124         0.393558   
     82. A(C  27,N  24,C  31)          115.8269         0.379808   
     83. A(C  23,N  24,C  31)          118.6368         0.402485   
     84. A(C  23,N  24,C  27)          125.4796         0.402718   
     85. A(H  29,C  27,H  30)          108.3666         0.290730   
     86. A(H  28,C  27,H  30)          108.4496         0.290513   
     87. A(N  24,C  27,H  30)          111.5226         0.332292   
     88. A(H  28,C  27,H  29)          108.6145         0.288868   
     89. A(N  24,C  27,H  29)          108.1776         0.330307   
     90. A(N  24,C  27,H  28)          111.6193         0.330047   
     91. A(H  33,C  31,H  34)          110.0173         0.290180   
     92. A(H  32,C  31,H  34)          109.5708         0.290422   
     93. A(N  24,C  31,H  34)          108.3797         0.331581   
     94. A(H  32,C  31,H  33)          108.7150         0.289107   
     95. A(N  24,C  31,H  33)          109.9064         0.329998   
     96. A(N  24,C  31,H  32)          110.2452         0.330287   
     97. D(O  26,C   4,C   0,H   3)   -101.0796         0.011728   
     98. D(O  26,C   4,C   0,H   2)     16.7768         0.011728   
     99. D(O  26,C   4,C   0,H   1)    137.9794         0.011728   
    100. D(N   5,C   4,C   0,H   2)   -164.0086         0.011728   
    101. D(N   5,C   4,C   0,H   3)     78.1349         0.011728   
    102. D(N   5,C   4,C   0,H   1)    -42.8061         0.011728   
    103. D(C   6,N   5,C   4,C   0)    166.5562         0.027141   
    104. D(C  20,N   5,C   4,O  26)   -177.7746         0.027141   
    105. D(C  20,N   5,C   4,C   0)      3.0100         0.027141   
    106. D(C   6,N   5,C   4,O  26)    -14.2284         0.027141   
    107. D(H   8,C   6,N   5,C   4)   -130.9182         0.014696   
    108. D(H   8,C   6,N   5,C  20)     34.2553         0.014696   
    109. D(C   9,C   6,N   5,C   4)    106.9538         0.014696   
    110. D(H   7,C   6,N   5,C  20)    150.7902         0.014696   
    111. D(H   7,C   6,N   5,C   4)    -14.3833         0.014696   
    112. D(C   9,C   6,N   5,C  20)    -87.8727         0.014696   
    113. D(C  11,C   9,C   6,H   8)    -15.8726         0.012486   
    114. D(C  11,C   9,C   6,H   7)   -135.9661         0.012486   
    115. D(C  11,C   9,C   6,N   5)    104.8580         0.012486   
    116. D(C  10,C   9,C   6,H   8)    167.0049         0.012486   
    117. D(C  10,C   9,C   6,H   7)     46.9114         0.012486   
    118. D(C  10,C   9,C   6,N   5)    -72.2646         0.012486   
    119. D(H  13,C  10,C   9,C   6)     -2.8603         0.024331   
    120. D(C  12,C  10,C   9,C  11)     -0.3620         0.024331   
    121. D(C  12,C  10,C   9,C   6)    176.8194         0.024331   
    122. D(H  13,C  10,C   9,C  11)    179.9583         0.024331   
    123. D(H  15,C  11,C   9,C  10)   -178.5865         0.025139   
    124. D(C  14,C  11,C   9,C  10)      0.4081         0.025139   
    125. D(C  14,C  11,C   9,C   6)   -176.7094         0.025139   
    126. D(H  15,C  11,C   9,C   6)      4.2960         0.025139   
    127. D(C  16,C  12,C  10,C   9)     -0.1374         0.026194   
    128. D(H  17,C  12,C  10,H  13)     -0.6344         0.026194   
    129. D(H  17,C  12,C  10,C   9)    179.6932         0.026194   
    130. D(C  16,C  12,C  10,H  13)    179.5351         0.026194   
    131. D(H  18,C  14,C  11,H  15)     -0.8797         0.025394   
    132. D(H  18,C  14,C  11,C   9)   -179.8722         0.025394   
    133. D(C  16,C  14,C  11,H  15)    179.0388         0.025394   
    134. D(C  16,C  14,C  11,C   9)      0.0464         0.025394   
    135. D(H  19,C  16,C  14,H  18)     -0.0059         0.025930   
    136. D(H  19,C  16,C  14,C  11)   -179.9243         0.025930   
    137. D(C  12,C  16,C  14,H  18)    179.3702         0.025930   
    138. D(C  12,C  16,C  14,C  11)     -0.5481         0.025930   
    139. D(H  19,C  16,C  12,H  17)      0.1405         0.025054   
    140. D(H  19,C  16,C  12,C  10)    179.9708         0.025054   
    141. D(C  14,C  16,C  12,H  17)   -179.2356         0.025054   
    142. D(C  14,C  16,C  12,C  10)      0.5947         0.025054   
    143. D(C  23,C  20,N   5,C   6)    151.2722         0.016001   
    144. D(C  23,C  20,N   5,C   4)    -44.9660         0.016001   
    145. D(H  22,C  20,N   5,C   6)     30.0604         0.016001   
    146. D(H  22,C  20,N   5,C   4)   -166.1777         0.016001   
    147. D(H  21,C  20,N   5,C   6)    -87.2017         0.016001   
    148. D(H  21,C  20,N   5,C   4)     76.5601         0.016001   
    149. D(O  25,C  23,C  20,H  22)   -113.9874         0.010425   
    150. D(O  25,C  23,C  20,H  21)      0.4780         0.010425   
    151. D(O  25,C  23,C  20,N   5)    125.5372         0.010425   
    152. D(N  24,C  23,C  20,H  22)     64.2673         0.010425   
    153. D(N  24,C  23,C  20,H  21)    178.7328         0.010425   
    154. D(N  24,C  23,C  20,N   5)    -56.2080         0.010425   
    155. D(C  31,N  24,C  23,O  25)     -6.2665         0.030594   
    156. D(C  31,N  24,C  23,C  20)    175.5584         0.030594   
    157. D(C  27,N  24,C  23,O  25)    176.5941         0.030594   
    158. D(C  27,N  24,C  23,C  20)     -1.5809         0.030594   
    159. D(H  28,C  27,N  24,C  23)     99.0325         0.016614   
    160. D(H  30,C  27,N  24,C  31)    160.3400         0.016614   
    161. D(H  30,C  27,N  24,C  23)    -22.4493         0.016614   
    162. D(H  29,C  27,N  24,C  31)     41.2622         0.016614   
    163. D(H  29,C  27,N  24,C  23)   -141.5271         0.016614   
    164. D(H  28,C  27,N  24,C  31)    -78.1782         0.016614   
    165. D(H  34,C  31,N  24,C  27)    175.6413         0.016505   
    166. D(H  34,C  31,N  24,C  23)     -1.7709         0.016505   
    167. D(H  33,C  31,N  24,C  27)     55.3799         0.016505   
    168. D(H  33,C  31,N  24,C  23)   -122.0323         0.016505   
    169. D(H  32,C  31,N  24,C  27)    -64.4403         0.016505   
    170. D(H  32,C  31,N  24,C  23)    118.1475         0.016505   
    -----------------------------------------------------------------

Number of atoms                         .... 35
Number of degrees of freedom            .... 170

         *************************************************************
         *                GEOMETRY OPTIMIZATION CYCLE   1            *
         *************************************************************
---------------------------------
CARTESIAN COORDINATES (ANGSTROEM)
---------------------------------
  C      2.559000    1.706000   -0.728000
  H      3.159000    1.607000    0.178000
  H      2.888000    2.572000   -1.303000
  H      2.716000    0.808000   -1.331000
  C      1.086000    1.907000   -0.446000
  N      0.500000    1.138000    0.538000
  C     -0.833000    1.550000    1.005000
  H     -0.997000    2.567000    0.641000
  H     -0.819000    1.573000    2.103000
  C     -1.914000    0.629000    0.509000
  C     -2.278000    0.668000   -0.846000
  C     -2.521000   -0.305000    1.356000
  C     -3.230000   -0.222000   -1.341000
  H     -1.801000    1.398000   -1.496000
  C     -3.475000   -1.198000    0.859000
  H     -2.259000   -0.324000    2.413000
  C     -3.826000   -1.161000   -0.491000
  H     -3.512000   -0.184000   -2.391000
  H     -3.943000   -1.919000    1.525000
  H     -4.569000   -1.854000   -0.880000
  C      1.196000    0.176000    1.387000
  H      1.772000    0.671000    2.179000
  H      0.421000   -0.431000    1.872000
  C      2.188000   -0.775000    0.714000
  N      1.743000   -1.559000   -0.310000
  O      3.348000   -0.823000    1.143000
  O      0.421000    2.728000   -1.090000
  C      0.378000   -1.599000   -0.811000
  H      0.261000   -0.988000   -1.714000
  H      0.135000   -2.638000   -1.058000
  H     -0.330000   -1.250000   -0.066000
  C      2.703000   -2.393000   -1.018000
  H      2.443000   -3.450000   -0.904000
  H      2.699000   -2.143000   -2.085000
  H      3.690000   -2.213000   -0.597000

----------------------------
CARTESIAN COORDINATES (A.U.)
----------------------------
  NO LB      ZA    FRAG     MASS         X           Y           Z
   0 C     6.0000    0    12.011    4.835809    3.223873   -1.375721
   1 H     1.0000    0     1.008    5.969645    3.036790    0.336371
   2 H     1.0000    0     1.008    5.457529    4.860376   -2.462313
   3 H     1.0000    0     1.008    5.132496    1.526899   -2.515225
   4 C     6.0000    0    12.011    2.052243    3.603708   -0.842818
   5 N     7.0000    0    14.007    0.944863    2.150508    1.016673
   6 C     6.0000    0    12.011   -1.574142    2.929076    1.899175
   7 H     1.0000    0     1.008   -1.884057    4.850927    1.211314
   8 H     1.0000    0     1.008   -1.547686    2.972539    3.974094
   9 C     6.0000    0    12.011   -3.616936    1.188638    0.961871
  10 C     6.0000    0    12.011   -4.304796    1.262337   -1.598708
  11 C     6.0000    0    12.011   -4.764000   -0.576366    2.562469
  12 C     6.0000    0    12.011   -6.103815   -0.419519   -2.534123
  13 H     1.0000    0     1.008   -3.403397    2.641837   -2.827030
  14 C     6.0000    0    12.011   -6.566798   -2.263892    1.623275
  15 H     1.0000    0     1.008   -4.268891   -0.612271    4.559909
  16 C     6.0000    0    12.011   -7.230092   -2.193972   -0.927856
  17 H     1.0000    0     1.008   -6.636718   -0.347710   -4.518335
  18 H     1.0000    0     1.008   -7.451190   -3.626384    2.881832
  19 H     1.0000    0     1.008   -8.634159   -3.503552   -1.662959
  20 C     6.0000    0    12.011    2.260112    0.332592    2.621050
  21 H     1.0000    0     1.008    3.348595    1.268006    4.117713
  22 H     1.0000    0     1.008    0.795575   -0.814472    3.537567
  23 C     6.0000    0    12.011    4.134721   -1.464538    1.349264
  24 N     7.0000    0    14.007    3.293793   -2.946083   -0.585815
  25 O     8.0000    0    15.999    6.326803   -1.555245    2.159957
  26 O     8.0000    0    15.999    0.795575    5.155173   -2.059801
  27 C     6.0000    0    12.011    0.714316   -3.021672   -1.532568
  28 H     1.0000    0     1.008    0.493219   -1.867049   -3.238991
  29 H     1.0000    0     1.008    0.255113   -4.985098   -1.999330
  30 H     1.0000    0     1.008   -0.623610   -2.362158   -0.124722
  31 C     6.0000    0    12.011    5.107930   -4.522115   -1.923741
  32 H     1.0000    0     1.008    4.616601   -6.519555   -1.708312
  33 H     1.0000    0     1.008    5.100371   -4.049683   -3.940079
  34 H     1.0000    0     1.008    6.973089   -4.181964   -1.128167

--------------------------------
INTERNAL COORDINATES (ANGSTROEM)
--------------------------------
 C      0   0   0     0.000000000000     0.00000000     0.00000000
 H      1   0   0     1.091163140873     0.00000000     0.00000000
 H      1   2   0     1.090331142360   110.12164469     0.00000000
 H      1   2   3     1.093005946919   107.73084634   118.22931273
 C      1   2   3     1.513160269106   113.11574556   240.77994853
 N      5   1   2     1.379497372234   118.19047755   317.19391802
 C      6   5   1     1.471299425678   117.07588964   166.55617893
 H      7   6   5     1.092557092330   106.91230990   345.61670396
 H      7   6   5     1.098330096100   108.15728444   229.08177613
 C      7   6   5     1.504266598712   112.02233100   106.95375608
 C     10   7   6     1.403581846563   119.18747256   287.73544681
 C     10   7   6     1.399361997483   121.38522659   104.85795163
 C     11  10   7     1.394069223532   120.14203995   176.81943956
 H     11  10   7     1.087625395069   118.80688245   357.13971770
 C     12  10   7     1.398060799822   120.47404973   183.29063612
 H     12  10   7     1.089152881831   119.65037030     4.29600457
 C     15  12  10     1.395374501702   119.91029821     0.04636958
 H     13  11  10     1.087873154370   119.83039163   179.69318874
 H     15  12  10     1.087391833701   119.96532358   180.12784929
 H     17  15  12     1.087942553630   120.05485511   180.07568843
 C      6   5   1     1.459678389235   125.43087799     3.01002430
 H     21   6   5     1.097298956529   111.88836241    76.56014751
 H     21   6   5     1.097405576804   106.55023354   193.82225868
 C     21   6   5     1.530161429392   117.57467828   315.03402612
 N     24  21   6     1.364278930424   118.41243750   303.79197332
 O     24  21   6     1.237717657626   118.63628078   125.53723513
 O      5   1   2     1.237336655886   120.95210261   137.97935763
 C     25  24  21     1.454587914153   125.47961394   358.41910097
 H     28  25  24     1.096548676530   111.61930315    99.03245152
 H     28  25  24     1.095252938823   108.17759788   218.47292545
 H     28  25  24     1.085398544314   111.52262738   337.55066837
 C     25  24  21     1.455479302498   118.63679082   175.55840646
 H     32  25  24     1.094461054583   110.24515035   118.14753850
 H     32  25  24     1.095903736648   109.90643417   237.96774148
 H     32  25  24     1.088030330460   108.37973166   358.22912165

---------------------------
INTERNAL COORDINATES (A.U.)
---------------------------
 C      0   0   0     0.000000000000     0.00000000     0.00000000
 H      1   0   0     2.061999503679     0.00000000     0.00000000
 H      1   2   0     2.060427254346   110.12164469     0.00000000
 H      1   2   3     2.065481902424   107.73084634   118.22931273
 C      1   2   3     2.859458505340   113.11574556   240.77994853
 N      5   1   2     2.606872235986   118.19047755   317.19391802
 C      6   5   1     2.780352975527   117.07588964   166.55617893
 H      7   6   5     2.064633690177   106.91230990   345.61670396
 H      7   6   5     2.075543086273   108.15728444   229.08177613
 C      7   6   5     2.842651903971   112.02233100   106.95375608
 C     10   7   6     2.652385296547   119.18747256   287.73544681
 C     10   7   6     2.644410937460   121.38522659   104.85795163
 C     11  10   7     2.634409044204   120.14203995   176.81943956
 H     11  10   7     2.055314132979   118.80688245   357.13971770
 C     12  10   7     2.641952030235   120.47404973   183.29063612
 H     12  10   7     2.058200664631   119.65037030     4.29600457
 C     15  12  10     2.636875662474   119.91029821     0.04636958
 H     13  11  10     2.055782330205   119.83039163   179.69318874
 H     15  12  10     2.054872765958   119.96532358   180.12784929
 H     17  15  12     2.055913475801   120.05485511   180.07568843
 C      6   5   1     2.758392399258   125.43087799     3.01002430
 H     21   6   5     2.073594514878   111.88836241    76.56014751
 H     21   6   5     2.073795997997   106.55023354   193.82225868
 C     21   6   5     2.891586042241   117.57467828   315.03402612
 N     24  21   6     2.578113548781   118.41243750   303.79197332
 O     24  21   6     2.338947404032   118.63628078   125.53723513
 O      5   1   2     2.338227415087   120.95210261   137.97935763
 C     25  24  21     2.748772795461   125.47961394   358.41910097
 H     28  25  24     2.072176691156   111.61930315    99.03245152
 H     28  25  24     2.069728101748   108.17759788   218.47292545
 H     28  25  24     2.051105994911   111.52262738   337.55066837
 C     25  24  21     2.750457275312   118.63679082   175.55840646
 H     32  25  24     2.068231657405   110.24515035   118.14753850
 H     32  25  24     2.070957931406   109.90643417   237.96774148
 H     32  25  24     2.056079349968   108.37973166   358.22912165

---------------------
BASIS SET INFORMATION
---------------------
There are 4 groups of distinct atoms

 Group   1 Type C   : 10s4p1d contracted to 3s2p1d pattern {631/31/1}
 Group   2 Type H   : 4s contracted to 2s pattern {31}
 Group   3 Type N   : 10s4p1d contracted to 3s2p1d pattern {631/31/1}
 Group   4 Type O   : 10s4p1d contracted to 3s2p1d pattern {631/31/1}

Atom   0C    basis set group =>   1
Atom   1H    basis set group =>   2
Atom   2H    basis set group =>   2
Atom   3H    basis set group =>   2
Atom   4C    basis set group =>   1
Atom   5N    basis set group =>   3
Atom   6C    basis set group =>   1
Atom   7H    basis set group =>   2
Atom   8H    basis set group =>   2
Atom   9C    basis set group =>   1
Atom  10C    basis set group =>   1
Atom  11C    basis set group =>   1
Atom  12C    basis set group =>   1
Atom  13H    basis set group =>   2
Atom  14C    basis set group =>   1
Atom  15H    basis set group =>   2
Atom  16C    basis set group =>   1
Atom  17H    basis set group =>   2
Atom  18H    basis set group =>   2
Atom  19H    basis set group =>   2
Atom  20C    basis set group =>   1
Atom  21H    basis set group =>   2
Atom  22H    basis set group =>   2
Atom  23C    basis set group =>   1
Atom  24N    basis set group =>   3
Atom  25O    basis set group =>   4
Atom  26O    basis set group =>   4
Atom  27C    basis set group =>   1
Atom  28H    basis set group =>   2
Atom  29H    basis set group =>   2
Atom  30H    basis set group =>   2
Atom  31C    basis set group =>   1
Atom  32H    basis set group =>   2
Atom  33H    basis set group =>   2
Atom  34H    basis set group =>   2
---------------------------------
AUXILIARY/J BASIS SET INFORMATION
---------------------------------
There are 4 groups of distinct atoms

 Group   1 Type C   : 13s11p10d2f contracted to 13s11p10d2f pattern {1111111111111/11111111111/1111111111/11}
 Group   2 Type H   : 9s2p contracted to 9s2p pattern {111111111/11}
 Group   3 Type N   : 14s11p10d2f contracted to 14s11p10d2f pattern {11111111111111/11111111111/1111111111/11}
 Group   4 Type O   : 14s11p10d2f contracted to 14s11p10d2f pattern {11111111111111/11111111111/1111111111/11}

Atom   0C    basis set group =>   1
Atom   1H    basis set group =>   2
Atom   2H    basis set group =>   2
Atom   3H    basis set group =>   2
Atom   4C    basis set group =>   1
Atom   5N    basis set group =>   3
Atom   6C    basis set group =>   1
Atom   7H    basis set group =>   2
Atom   8H    basis set group =>   2
Atom   9C    basis set group =>   1
Atom  10C    basis set group =>   1
Atom  11C    basis set group =>   1
Atom  12C    basis set group =>   1
Atom  13H    basis set group =>   2
Atom  14C    basis set group =>   1
Atom  15H    basis set group =>   2
Atom  16C    basis set group =>   1
Atom  17H    basis set group =>   2
Atom  18H    basis set group =>   2
Atom  19H    basis set group =>   2
Atom  20C    basis set group =>   1
Atom  21H    basis set group =>   2
Atom  22H    basis set group =>   2
Atom  23C    basis set group =>   1
Atom  24N    basis set group =>   3
Atom  25O    basis set group =>   4
Atom  26O    basis set group =>   4
Atom  27C    basis set group =>   1
Atom  28H    basis set group =>   2
Atom  29H    basis set group =>   2
Atom  30H    basis set group =>   2
Atom  31C    basis set group =>   1
Atom  32H    basis set group =>   2
Atom  33H    basis set group =>   2
Atom  34H    basis set group =>   2
---------------------------------
AUXILIARY/C BASIS SET INFORMATION
---------------------------------
There are 4 groups of distinct atoms

 Group   1 Type C   : 13s11p10d2f contracted to 13s11p10d2f pattern {1111111111111/11111111111/1111111111/11}
 Group   2 Type H   : 9s2p contracted to 9s2p pattern {111111111/11}
 Group   3 Type N   : 14s11p10d2f contracted to 14s11p10d2f pattern {11111111111111/11111111111/1111111111/11}
 Group   4 Type O   : 14s11p10d2f contracted to 14s11p10d2f pattern {11111111111111/11111111111/1111111111/11}

Atom   0C    basis set group =>   1
Atom   1H    basis set group =>   2
Atom   2H    basis set group =>   2
Atom   3H    basis set group =>   2
Atom   4C    basis set group =>   1
Atom   5N    basis set group =>   3
Atom   6C    basis set group =>   1
Atom   7H    basis set group =>   2
Atom   8H    basis set group =>   2
Atom   9C    basis set group =>   1
Atom  10C    basis set group =>   1
Atom  11C    basis set group =>   1
Atom  12C    basis set group =>   1
Atom  13H    basis set group =>   2
Atom  14C    basis set group =>   1
Atom  15H    basis set group =>   2
Atom  16C    basis set group =>   1
Atom  17H    basis set group =>   2
Atom  18H    basis set group =>   2
Atom  19H    basis set group =>   2
Atom  20C    basis set group =>   1
Atom  21H    basis set group =>   2
Atom  22H    basis set group =>   2
Atom  23C    basis set group =>   1
Atom  24N    basis set group =>   3
Atom  25O    basis set group =>   4
Atom  26O    basis set group =>   4
Atom  27C    basis set group =>   1
Atom  28H    basis set group =>   2
Atom  29H    basis set group =>   2
Atom  30H    basis set group =>   2
Atom  31C    basis set group =>   1
Atom  32H    basis set group =>   2
Atom  33H    basis set group =>   2
Atom  34H    basis set group =>   2
----------------------------------
AUXILIARY/JK BASIS SET INFORMATION
----------------------------------
There are 4 groups of distinct atoms

 Group   1 Type C   : 13s11p10d2f contracted to 13s11p10d2f pattern {1111111111111/11111111111/1111111111/11}
 Group   2 Type H   : 9s2p contracted to 9s2p pattern {111111111/11}
 Group   3 Type N   : 14s11p10d2f contracted to 14s11p10d2f pattern {11111111111111/11111111111/1111111111/11}
 Group   4 Type O   : 14s11p10d2f contracted to 14s11p10d2f pattern {11111111111111/11111111111/1111111111/11}

Atom   0C    basis set group =>   1
Atom   1H    basis set group =>   2
Atom   2H    basis set group =>   2
Atom   3H    basis set group =>   2
Atom   4C    basis set group =>   1
Atom   5N    basis set group =>   3
Atom   6C    basis set group =>   1
Atom   7H    basis set group =>   2
Atom   8H    basis set group =>   2
Atom   9C    basis set group =>   1
Atom  10C    basis set group =>   1
Atom  11C    basis set group =>   1
Atom  12C    basis set group =>   1
Atom  13H    basis set group =>   2
Atom  14C    basis set group =>   1
Atom  15H    basis set group =>   2
Atom  16C    basis set group =>   1
Atom  17H    basis set group =>   2
Atom  18H    basis set group =>   2
Atom  19H    basis set group =>   2
Atom  20C    basis set group =>   1
Atom  21H    basis set group =>   2
Atom  22H    basis set group =>   2
Atom  23C    basis set group =>   1
Atom  24N    basis set group =>   3
Atom  25O    basis set group =>   4
Atom  26O    basis set group =>   4
Atom  27C    basis set group =>   1
Atom  28H    basis set group =>   2
Atom  29H    basis set group =>   2
Atom  30H    basis set group =>   2
Atom  31C    basis set group =>   1
Atom  32H    basis set group =>   2
Atom  33H    basis set group =>   2
Atom  34H    basis set group =>   2


           ************************************************************
           *        Program running with 4 parallel MPI-processes     *
           *              working on a common directory               *
           ************************************************************
------------------------------------------------------------------------------
                           ORCA GTO INTEGRAL CALCULATION
                           -- RI-GTO INTEGRALS CHOSEN --
------------------------------------------------------------------------------
------------------------------------------------------------------------------
                   ___                                                        
                  /   \      - P O W E R E D   B Y -                         
                 /     \                                                     
                 |  |  |   _    _      __       _____    __    __             
                 |  |  |  | |  | |    /  \     |  _  \  |  |  /  |          
                  \  \/   | |  | |   /    \    | | | |  |  | /  /          
                 / \  \   | |__| |  /  /\  \   | |_| |  |  |/  /          
                |  |  |   |  __  | /  /__\  \  |    /   |      \           
                |  |  |   | |  | | |   __   |  |    \   |  |\   \          
                \     /   | |  | | |  |  |  |  | |\  \  |  | \   \       
                 \___/    |_|  |_| |__|  |__|  |_| \__\ |__|  \__/        
                                                                              
                      - O R C A' S   B I G   F R I E N D -                    
                                      &                                       
                       - I N T E G R A L  F E E D E R -                       
                                                                              
 v1 FN, 2020, v2 2021                                                         
------------------------------------------------------------------------------


Reading SHARK input file Nf_gas.SHARKINP.tmp ... ok
----------------------
SHARK INTEGRAL PACKAGE
----------------------

Number of atoms                             ...     35
Number of basis functions                   ...    274
Number of shells                            ...    138
Maximum angular momentum                    ...      2
Integral batch strategy                     ... SHARK/LIBINT Hybrid
RI-J (if used) integral strategy            ... SPLIT-RIJ (Revised 2003 algorithm where possible)
Printlevel                                  ...      1
Contraction scheme used                     ... SEGMENTED contraction
Coulomb Range Separation                    ... NOT USED
Exchange Range Separation                   ... NOT USED
Finite Nucleus Model                        ... NOT USED
Auxiliary Coulomb fitting basis             ... AVAILABLE
   # of basis functions in Aux-J            ...   2144
   # of shells in Aux-J                     ...    814
   Maximum angular momentum in Aux-J        ...      3
Auxiliary J/K fitting basis                 ... AVAILABLE
   # of basis functions in Aux-JK           ...   2144
   # of shells in Aux-JK                    ...    814
   Maximum angular momentum in Aux-JK       ...      3
Auxiliary Correlation fitting basis         ... AVAILABLE
   # of basis functions in Aux-C            ...   2144
   # of shells in Aux-C                     ...    814
   Maximum angular momentum in Aux-C        ...      3
Auxiliary 'external' fitting basis          ... NOT available
Integral threshold                          ...     2.500000e-11
Primitive cut-off                           ...     2.500000e-12
Primitive pair pre-selection threshold      ...     2.500000e-12

Calculating pre-screening integrals         ... done (  0.1 sec) Dimension = 138
Organizing shell pair data                  ... done (  0.1 sec)
Shell pair information
Total number of shell pairs                 ...      9591
Shell pairs after pre-screening             ...      8097
Total number of primitive shell pairs       ...     54039
Primitive shell pairs kept                  ...     26184
          la=0 lb=0:   3120 shell pairs
          la=1 lb=0:   2641 shell pairs
          la=1 lb=1:    562 shell pairs
          la=2 lb=0:   1149 shell pairs
          la=2 lb=1:    509 shell pairs
          la=2 lb=2:    116 shell pairs

Calculating one electron integrals          ... done (  0.0 sec)
Calculating RI/J V-Matrix + Cholesky decomp.... done (  0.4 sec)
Calculating RI/JK V-Matrix + Cholesky decomp... done (  0.3 sec)
Calculating RI/C V-Matrix + Cholesky decomp.... done (  0.3 sec)
Calculating Nuclear repulsion               ... done (  0.0 sec) ENN=   1258.987295222278 Eh

SHARK setup successfully completed in   1.9 seconds

Maximum memory used throughout the entire GTOINT-calculation: 40.0 MB


           ************************************************************
           *        Program running with 4 parallel MPI-processes     *
           *              working on a common directory               *
           ************************************************************
-------------------------------------------------------------------------------
                                 ORCA SCF
-------------------------------------------------------------------------------

------------
SCF SETTINGS
------------
Hamiltonian:
 Density Functional     Method          .... DFT(GTOs)
 Exchange Functional    Exchange        .... B88
   X-Alpha parameter    XAlpha          ....  0.666667
   Becke's b parameter  XBeta           ....  0.004200
 Correlation Functional Correlation     .... LYP
 LDA part of GGA corr.  LDAOpt          .... VWN-5
 Gradients option       PostSCFGGA      .... off
 Hybrid DFT is turned on
   Fraction HF Exchange ScalHFX         ....  0.200000
   Scaling of DF-GGA-X  ScalDFX         ....  0.720000
   Scaling of DF-GGA-C  ScalDFC         ....  0.810000
   Scaling of DF-LDA-C  ScalLDAC        ....  1.000000
   Perturbative correction              ....  0.000000
   Density functional embedding theory  .... OFF
   NL short-range parameter             ....  4.800000
 RI-approximation to the Coulomb term is turned on
   Number of AuxJ basis functions       .... 2144
   RIJ-COSX (HFX calculated with COS-X)).... on


General Settings:
 Integral files         IntName         .... Nf_gas
 Hartree-Fock type      HFTyp           .... RHF
 Total Charge           Charge          ....    0
 Multiplicity           Mult            ....    1
 Number of Electrons    NEL             ....  126
 Basis Dimension        Dim             ....  274
 Nuclear Repulsion      ENuc            ....   1258.9872952223 Eh

Convergence Acceleration:
 DIIS                   CNVDIIS         .... on
   Start iteration      DIISMaxIt       ....    12
   Startup error        DIISStart       ....  0.200000
   # of expansion vecs  DIISMaxEq       ....     5
   Bias factor          DIISBfac        ....   1.050
   Max. coefficient     DIISMaxC        ....  10.000
 Trust-Rad. Augm. Hess. CNVTRAH         .... auto
   Auto Start mean grad. ratio tolernc. ....  1.125000
   Auto Start start iteration           ....    20
   Auto Start num. interpolation iter.  ....    10
   Max. Number of Micro iterations      ....    16
   Max. Number of Macro iterations      .... Maxiter - #DIIS iter
   Number of Davidson start vectors     ....     2
   Converg. threshold I  (grad. norm)   ....   1.000e-05
   Converg. threshold II (energy diff.) ....   1.000e-08
   Grad. Scal. Fac. for Micro threshold ....   0.100
   Minimum threshold for Micro iter.    ....   0.010
   NR start threshold (gradient norm)   ....   0.001
   Initial trust radius                 ....   0.400
   Minimum AH scaling param. (alpha)    ....   1.000
   Maximum AH scaling param. (alpha)    .... 1000.000
   Orbital update algorithm             .... Taylor
   White noise on init. David. guess    .... on
   Maximum white noise                  ....   0.010
   Quad. conv. algorithm                .... NR
 SOSCF                  CNVSOSCF        .... on
   Start iteration      SOSCFMaxIt      ....   150
   Startup grad/error   SOSCFStart      ....  0.003300
 Level Shifting         CNVShift        .... on
   Level shift para.    LevelShift      ....    0.2500
   Turn off err/grad.   ShiftErr        ....    0.0010
 Zerner damping         CNVZerner       .... off
 Static damping         CNVDamp         .... on
   Fraction old density DampFac         ....    0.7000
   Max. Damping (<1)    DampMax         ....    0.9800
   Min. Damping (>=0)   DampMin         ....    0.0000
   Turn off err/grad.   DampErr         ....    0.1000
 Fernandez-Rico         CNVRico         .... off

SCF Procedure:
 Maximum # iterations   MaxIter         ....   125
 SCF integral mode      SCFMode         .... Direct
   Integral package                     .... SHARK and LIBINT hybrid scheme
 Reset frequency        DirectResetFreq ....    20
 Integral Threshold     Thresh          ....  2.500e-11 Eh
 Primitive CutOff       TCut            ....  2.500e-12 Eh

Convergence Tolerance:
 Convergence Check Mode ConvCheckMode   .... Total+1el-Energy
 Convergence forced     ConvForced      .... 0
 Energy Change          TolE            ....  1.000e-08 Eh
 1-El. energy change                    ....  1.000e-05 Eh
 Orbital Gradient       TolG            ....  1.000e-05
 Orbital Rotation angle TolX            ....  1.000e-05
 DIIS Error             TolErr          ....  5.000e-07


Diagonalization of the overlap matrix:
Smallest eigenvalue                        ... 4.849e-04
Time for diagonalization                   ...    0.260 sec
Threshold for overlap eigenvalues          ... 1.000e-08
Number of eigenvalues below threshold      ... 0
Time for construction of square roots      ...    0.007 sec
Total time needed                          ...    0.269 sec

Time for model grid setup =    0.336 sec

------------------------------
INITIAL GUESS: MODEL POTENTIAL
------------------------------
Loading Hartree-Fock densities                     ... done
Calculating cut-offs                               ... done
Initializing the effective Hamiltonian             ... done
Setting up the integral package (SHARK)            ... done
Starting the Coulomb interaction                   ... done (   0.3 sec)
Reading the grid                                   ... done
Mapping shells                                     ... done
Starting the XC term evaluation                    ... done (   0.2 sec)
  promolecular density results
     # of electrons  =    125.982678171
     EX              =   -101.738778961
     EC              =     -4.252777522
     EX+EC           =   -105.991556483
Transforming the Hamiltonian                       ... done (   0.0 sec)
Diagonalizing the Hamiltonian                      ... done (   0.0 sec)
Back transforming the eigenvectors                 ... done (   0.0 sec)
Now organizing SCF variables                       ... done
                      ------------------
                      INITIAL GUESS DONE (   1.6 sec)
                      ------------------
-------------------
DFT GRID GENERATION
-------------------

General Integration Accuracy     IntAcc      ... 4.388
Radial Grid Type                 RadialGrid  ... OptM3 with GC (2021)
Angular Grid (max. ang.)         AngularGrid ... 4 (Lebedev-302)
Angular grid pruning method      GridPruning ... 4 (adaptive)
Weight generation scheme         WeightScheme... Becke
Basis function cutoff            BFCut       ... 1.0000e-11
Integration weight cutoff        WCut        ... 1.0000e-14
Angular grids for H and He will be reduced by one unit
Partially contracted basis set               ... off
Rotationally invariant grid construction     ... off

Total number of grid points                  ...   158601
Total number of batches                      ...     2495
Average number of points per batch           ...       63
Average number of grid points per atom       ...     4531
Time for grid setup =    3.995 sec

--------------------
COSX GRID GENERATION
--------------------

GRIDX 1
-------
General Integration Accuracy     IntAcc      ... 3.816
Radial Grid Type                 RadialGrid  ... OptM3 with GC (2021)
Angular Grid (max. ang.)         AngularGrid ... 1 (Lebedev-50)
Angular grid pruning method      GridPruning ... 4 (adaptive)
Weight generation scheme         WeightScheme... Becke
Basis function cutoff            BFCut       ... 1.0000e-11
Integration weight cutoff        WCut        ... 1.0000e-14
Angular grids for H and He will be reduced by one unit
Partially contracted basis set               ... on
Rotationally invariant grid construction     ... off

Total number of grid points                  ...    20202
Total number of batches                      ...      334
Average number of points per batch           ...       60
Average number of grid points per atom       ...      577
UseSFitting                                  ... on

GRIDX 2
-------
General Integration Accuracy     IntAcc      ... 4.020
Radial Grid Type                 RadialGrid  ... OptM3 with GC (2021)
Angular Grid (max. ang.)         AngularGrid ... 2 (Lebedev-110)
Angular grid pruning method      GridPruning ... 4 (adaptive)
Weight generation scheme         WeightScheme... Becke
Basis function cutoff            BFCut       ... 1.0000e-11
Integration weight cutoff        WCut        ... 1.0000e-14
Angular grids for H and He will be reduced by one unit
Partially contracted basis set               ... on
Rotationally invariant grid construction     ... off

Total number of grid points                  ...    43066
Total number of batches                      ...      691
Average number of points per batch           ...       62
Average number of grid points per atom       ...     1230
UseSFitting                                  ... on

GRIDX 3
-------
General Integration Accuracy     IntAcc      ... 4.338
Radial Grid Type                 RadialGrid  ... OptM3 with GC (2021)
Angular Grid (max. ang.)         AngularGrid ... 3 (Lebedev-194)
Angular grid pruning method      GridPruning ... 4 (adaptive)
Weight generation scheme         WeightScheme... Becke
Basis function cutoff            BFCut       ... 1.0000e-11
Integration weight cutoff        WCut        ... 1.0000e-14
Angular grids for H and He will be reduced by one unit
Partially contracted basis set               ... on
Rotationally invariant grid construction     ... off

Total number of grid points                  ...    93799
Total number of batches                      ...     1486
Average number of points per batch           ...       63
Average number of grid points per atom       ...     2680
UseSFitting                                  ... on

Time for X-Grid setup             =    1.948 sec

--------------
SCF ITERATIONS
--------------
ITER       Energy         Delta-E        Max-DP      RMS-DP      [F,P]     Damp
               ***  Starting incremental Fock matrix formation  ***
  0   -765.2314304063   0.000000000000 0.09833333  0.00210125  0.2764419 0.7000
  1   -765.4535934903  -0.222163083957 0.05295594  0.00138819  0.1032645 0.7000
                               ***Turning on DIIS***
  2   -765.5390157767  -0.085422286479 0.06582443  0.00212930  0.0397085 0.0000
  3   -765.6788641129  -0.139848336177 0.03845574  0.00098135  0.0503664 0.0000
  4   -765.7059379402  -0.027073827322 0.01070285  0.00032217  0.0165932 0.0000
  5   -765.7083363329  -0.002398392657 0.00320023  0.00009540  0.0049722 0.0000
                      *** Initiating the SOSCF procedure ***
                           *** Shutting down DIIS ***
                      *** Re-Reading the Fockian *** 
                      *** Removing any level shift *** 
ITER      Energy       Delta-E        Grad      Rot      Max-DP    RMS-DP
  6   -765.70846126  -0.0001249254  0.000226  0.000226  0.001449  0.000042
               *** Restarting incremental Fock matrix formation ***
  7   -765.70849958  -0.0000383238  0.000289  0.001122  0.001870  0.000026
  8   -765.70849192   0.0000076640  0.000601  0.000842  0.001218  0.000018
  9   -765.70850355  -0.0000116282  0.000098  0.000274  0.000442  0.000007
 10   -765.70850293   0.0000006194  0.000215  0.000190  0.000310  0.000005
 11   -765.70850372  -0.0000007913  0.000007  0.000028  0.000041  0.000001
 12   -765.70850369   0.0000000324  0.000014  0.000022  0.000019  0.000001
                  ***Gradient check signals convergence***
              ***Rediagonalizing the Fockian in SOSCF/NRSCF***

               *****************************************************
               *                     SUCCESS                       *
               *           SCF CONVERGED AFTER  13 CYCLES          *
               *****************************************************

Old exchange energy                            =    -20.715875020 Eh
New exchange energy                            =    -20.715894091 Eh
Exchange energy change after final integration =     -0.000019071 Eh
Total energy after final integration           =   -765.708522758 Eh
Final COS-X integration done in                =    13.085 sec

----------------
TOTAL SCF ENERGY
----------------

Total Energy       :         -765.70852276 Eh          -20835.98819 eV

Components:
Nuclear Repulsion  :         1258.98729522 Eh           34258.78599 eV
Electronic Energy  :        -2024.69581798 Eh          -55094.77417 eV
One Electron Energy:        -3540.09666722 Eh          -96330.92768 eV
Two Electron Energy:         1515.40084924 Eh           41236.15351 eV
Max COSX asymmetry :            0.00000236 Eh               0.00006 eV

Virial components:
Potential Energy   :        -1526.91984957 Eh          -41549.60145 eV
Kinetic Energy     :          761.21132681 Eh           20713.61326 eV
Virial Ratio       :            2.00590795


DFT components:
N(Alpha)           :       63.000162873688 electrons
N(Beta)            :       63.000162873688 electrons
N(Total)           :      126.000325747375 electrons
E(X)               :      -82.258214110231 Eh       
E(C)               :       -5.011261967732 Eh       
E(XC)              :      -87.269476077962 Eh       
DFET-embed. en.    :        0.000000000000 Eh       

---------------
SCF CONVERGENCE
---------------

  Last Energy change         ...   -7.6045e-10  Tolerance :   1.0000e-08
  Last MAX-Density change    ...    3.1086e-15  Tolerance :   1.0000e-07
  Last RMS-Density change    ...    4.1509e-17  Tolerance :   5.0000e-09
  Last Orbital Gradient      ...    2.3108e-06  Tolerance :   1.0000e-05
  Last Orbital Rotation      ...    5.7963e-06  Tolerance :   1.0000e-05

             **** THE GBW FILE WAS UPDATED (Nf_gas.gbw) ****
             **** DENSITY Nf_gas.scfp WAS UPDATED ****
             **** ENERGY FILE WAS UPDATED (Nf_gas.en.tmp) ****
             **** THE GBW FILE WAS UPDATED (Nf_gas.gbw) ****
             **** DENSITY Nf_gas.scfp WAS UPDATED ****
----------------
ORBITAL ENERGIES
----------------

  NO   OCC          E(Eh)            E(eV) 
   0   2.0000     -19.105386      -519.8840 
   1   2.0000     -19.103178      -519.8239 
   2   2.0000     -14.363626      -390.8541 
   3   2.0000     -14.360302      -390.7637 
   4   2.0000     -10.283235      -279.8211 
   5   2.0000     -10.279801      -279.7276 
   6   2.0000     -10.227675      -278.3092 
   7   2.0000     -10.214350      -277.9466 
   8   2.0000     -10.210348      -277.8377 
   9   2.0000     -10.205034      -277.6931 
  10   2.0000     -10.192525      -277.3527 
  11   2.0000     -10.188840      -277.2524 
  12   2.0000     -10.188396      -277.2404 
  13   2.0000     -10.187429      -277.2140 
  14   2.0000     -10.186678      -277.1936 
  15   2.0000     -10.181125      -277.0425 
  16   2.0000     -10.171736      -276.7870 
  17   2.0000      -1.029493       -28.0139 
  18   2.0000      -1.022041       -27.8112 
  19   2.0000      -0.937757       -25.5177 
  20   2.0000      -0.929401       -25.2903 
  21   2.0000      -0.856154       -23.2971 
  22   2.0000      -0.778575       -21.1861 
  23   2.0000      -0.748092       -20.3566 
  24   2.0000      -0.745516       -20.2865 
  25   2.0000      -0.734127       -19.9766 
  26   2.0000      -0.720098       -19.5949 
  27   2.0000      -0.687768       -18.7151 
  28   2.0000      -0.673677       -18.3317 
  29   2.0000      -0.608112       -16.5476 
  30   2.0000      -0.591930       -16.1072 
  31   2.0000      -0.564875       -15.3710 
  32   2.0000      -0.543398       -14.7866 
  33   2.0000      -0.517572       -14.0839 
  34   2.0000      -0.497842       -13.5470 
  35   2.0000      -0.494244       -13.4491 
  36   2.0000      -0.484203       -13.1758 
  37   2.0000      -0.469424       -12.7737 
  38   2.0000      -0.463873       -12.6226 
  39   2.0000      -0.456056       -12.4099 
  40   2.0000      -0.450022       -12.2457 
  41   2.0000      -0.444985       -12.1086 
  42   2.0000      -0.422357       -11.4929 
  43   2.0000      -0.418761       -11.3951 
  44   2.0000      -0.415382       -11.3031 
  45   2.0000      -0.407859       -11.0984 
  46   2.0000      -0.403671       -10.9844 
  47   2.0000      -0.402074       -10.9410 
  48   2.0000      -0.398069       -10.8320 
  49   2.0000      -0.389211       -10.5910 
  50   2.0000      -0.384182       -10.4541 
  51   2.0000      -0.381034       -10.3685 
  52   2.0000      -0.357705        -9.7337 
  53   2.0000      -0.355636        -9.6773 
  54   2.0000      -0.352711        -9.5977 
  55   2.0000      -0.341299        -9.2872 
  56   2.0000      -0.338976        -9.2240 
  57   2.0000      -0.257436        -7.0052 
  58   2.0000      -0.254757        -6.9323 
  59   2.0000      -0.248428        -6.7601 
  60   2.0000      -0.241560        -6.5732 
  61   2.0000      -0.240298        -6.5389 
  62   2.0000      -0.235262        -6.4018 
  63   0.0000      -0.009710        -0.2642 
  64   0.0000      -0.005182        -0.1410 
  65   0.0000       0.015780         0.4294 
  66   0.0000       0.024572         0.6686 
  67   0.0000       0.077816         2.1175 
  68   0.0000       0.088843         2.4175 
  69   0.0000       0.106100         2.8871 
  70   0.0000       0.126114         3.4317 
  71   0.0000       0.129422         3.5217 
  72   0.0000       0.136560         3.7160 
  73   0.0000       0.142101         3.8668 
  74   0.0000       0.143461         3.9038 
  75   0.0000       0.151750         4.1293 
  76   0.0000       0.157774         4.2932 
  77   0.0000       0.163118         4.4387 
  78   0.0000       0.164028         4.4634 
  79   0.0000       0.165979         4.5165 
  80   0.0000       0.171789         4.6746 
  81   0.0000       0.177534         4.8309 
  82   0.0000       0.185249         5.0409 
  83   0.0000       0.189399         5.1538 
  84   0.0000       0.193953         5.2777 
  85   0.0000       0.198454         5.4002 
  86   0.0000       0.205026         5.5790 
  87   0.0000       0.217391         5.9155 
  88   0.0000       0.219914         5.9842 
  89   0.0000       0.239504         6.5172 
  90   0.0000       0.249785         6.7970 
  91   0.0000       0.266669         7.2564 
  92   0.0000       0.286065         7.7842 
  93   0.0000       0.303236         8.2515 
  94   0.0000       0.312088         8.4923 
  95   0.0000       0.316808         8.6208 
  96   0.0000       0.337310         9.1787 
  97   0.0000       0.342457         9.3187 
  98   0.0000       0.366958         9.9854 
  99   0.0000       0.377529        10.2731 
 100   0.0000       0.402843        10.9619 
 101   0.0000       0.457731        12.4555 
 102   0.0000       0.469135        12.7658 
 103   0.0000       0.482788        13.1373 
 104   0.0000       0.495184        13.4746 
 105   0.0000       0.505814        13.7639 
 106   0.0000       0.527299        14.3485 
 107   0.0000       0.529011        14.3951 
 108   0.0000       0.540934        14.7196 
 109   0.0000       0.550135        14.9699 
 110   0.0000       0.553022        15.0485 
 111   0.0000       0.557324        15.1656 
 112   0.0000       0.563999        15.3472 
 113   0.0000       0.580273        15.7900 
 114   0.0000       0.589433        16.0393 
 115   0.0000       0.599413        16.3109 
 116   0.0000       0.611290        16.6341 
 117   0.0000       0.614383        16.7182 
 118   0.0000       0.618555        16.8317 
 119   0.0000       0.627325        17.0704 
 120   0.0000       0.636704        17.3256 
 121   0.0000       0.639296        17.3961 
 122   0.0000       0.645784        17.5727 
 123   0.0000       0.649779        17.6814 
 124   0.0000       0.657338        17.8871 
 125   0.0000       0.670308        18.2400 
 126   0.0000       0.684282        18.6203 
 127   0.0000       0.698921        19.0186 
 128   0.0000       0.705339        19.1933 
 129   0.0000       0.717439        19.5225 
 130   0.0000       0.722506        19.6604 
 131   0.0000       0.747523        20.3411 
 132   0.0000       0.768489        20.9116 
 133   0.0000       0.788046        21.4438 
 134   0.0000       0.799570        21.7574 
 135   0.0000       0.810483        22.0544 
 136   0.0000       0.821337        22.3497 
 137   0.0000       0.826639        22.4940 
 138   0.0000       0.831110        22.6156 
 139   0.0000       0.836694        22.7676 
 140   0.0000       0.844833        22.9891 
 141   0.0000       0.846080        23.0230 
 142   0.0000       0.860605        23.4182 
 143   0.0000       0.868244        23.6261 
 144   0.0000       0.871692        23.7199 
 145   0.0000       0.884429        24.0665 
 146   0.0000       0.887861        24.1599 
 147   0.0000       0.893877        24.3236 
 148   0.0000       0.908843        24.7309 
 149   0.0000       0.911206        24.7952 
 150   0.0000       0.921920        25.0867 
 151   0.0000       0.928047        25.2535 
 152   0.0000       0.931647        25.3514 
 153   0.0000       0.949526        25.8379 
 154   0.0000       0.960911        26.1477 
 155   0.0000       0.967487        26.3267 
 156   0.0000       0.971537        26.4369 
 157   0.0000       0.978499        26.6263 
 158   0.0000       0.983156        26.7530 
 159   0.0000       0.989264        26.9192 
 160   0.0000       1.008050        27.4304 
 161   0.0000       1.025015        27.8921 
 162   0.0000       1.053354        28.6632 
 163   0.0000       1.082947        29.4685 
 164   0.0000       1.091485        29.7008 
 165   0.0000       1.100839        29.9553 
 166   0.0000       1.114419        30.3249 
 167   0.0000       1.119038        30.4506 
 168   0.0000       1.144045        31.1310 
 169   0.0000       1.157042        31.4847 
 170   0.0000       1.175891        31.9976 
 171   0.0000       1.186306        32.2810 
 172   0.0000       1.201394        32.6916 
 173   0.0000       1.220649        33.2155 
 174   0.0000       1.248456        33.9722 
 175   0.0000       1.262094        34.3433 
 176   0.0000       1.281771        34.8788 
 177   0.0000       1.301204        35.4076 
 178   0.0000       1.347395        36.6645 
 179   0.0000       1.367018        37.1985 
 180   0.0000       1.375735        37.4357 
 181   0.0000       1.392694        37.8971 
 182   0.0000       1.418534        38.6003 
 183   0.0000       1.422605        38.7111 
 184   0.0000       1.438724        39.1497 
 185   0.0000       1.448229        39.4083 
 186   0.0000       1.454447        39.5775 
 187   0.0000       1.473875        40.1062 
 188   0.0000       1.480379        40.2832 
 189   0.0000       1.492886        40.6235 
 190   0.0000       1.505780        40.9744 
 191   0.0000       1.513671        41.1891 
 192   0.0000       1.543822        42.0095 
 193   0.0000       1.551292        42.2128 
 194   0.0000       1.602498        43.6062 
 195   0.0000       1.628135        44.3038 
 196   0.0000       1.658451        45.1288 
 197   0.0000       1.708652        46.4948 
 198   0.0000       1.743431        47.4412 
 199   0.0000       1.748762        47.5862 
 200   0.0000       1.772862        48.2420 
 201   0.0000       1.788894        48.6783 
 202   0.0000       1.801788        49.0292 
 203   0.0000       1.815005        49.3888 
 204   0.0000       1.826070        49.6899 
 205   0.0000       1.832613        49.8679 
 206   0.0000       1.843887        50.1747 
 207   0.0000       1.861617        50.6572 
 208   0.0000       1.890369        51.4396 
 209   0.0000       1.900508        51.7154 
 210   0.0000       1.910083        51.9760 
 211   0.0000       1.917344        52.1736 
 212   0.0000       1.924684        52.3733 
 213   0.0000       1.950349        53.0717 
 214   0.0000       1.962783        53.4100 
 215   0.0000       1.979770        53.8723 
 216   0.0000       1.986530        54.0562 
 217   0.0000       1.990493        54.1641 
 218   0.0000       1.999526        54.4099 
 219   0.0000       2.008354        54.6501 
 220   0.0000       2.023893        55.0729 
 221   0.0000       2.043086        55.5952 
 222   0.0000       2.058068        56.0029 
 223   0.0000       2.070062        56.3292 
 224   0.0000       2.092310        56.9347 
 225   0.0000       2.096693        57.0539 
 226   0.0000       2.108521        57.3758 
 227   0.0000       2.118395        57.6445 
 228   0.0000       2.133893        58.0662 
 229   0.0000       2.145169        58.3730 
 230   0.0000       2.167229        58.9733 
 231   0.0000       2.172795        59.1248 
 232   0.0000       2.208514        60.0967 
 233   0.0000       2.228305        60.6353 
 234   0.0000       2.243521        61.0493 
 235   0.0000       2.254169        61.3390 
 236   0.0000       2.262444        61.5642 
 237   0.0000       2.283713        62.1430 
 238   0.0000       2.302891        62.6649 
 239   0.0000       2.310740        62.8784 
 240   0.0000       2.324865        63.2628 
 241   0.0000       2.334268        63.5187 
 242   0.0000       2.357260        64.1443 
 243   0.0000       2.371360        64.5280 
 244   0.0000       2.393220        65.1228 
 245   0.0000       2.411671        65.6249 
 246   0.0000       2.427173        66.0467 
 247   0.0000       2.462206        67.0000 
 248   0.0000       2.483188        67.5710 
 249   0.0000       2.494364        67.8751 
 250   0.0000       2.570564        69.9486 
 251   0.0000       2.573377        70.0252 
 252   0.0000       2.578220        70.1569 
 253   0.0000       2.588624        70.4400 
 254   0.0000       2.624909        71.4274 
 255   0.0000       2.630242        71.5725 
 256   0.0000       2.647428        72.0402 
 257   0.0000       2.663811        72.4860 
 258   0.0000       2.687201        73.1224 
 259   0.0000       2.721139        74.0460 
 260   0.0000       2.729322        74.2686 
 261   0.0000       2.741610        74.6030 
 262   0.0000       2.746763        74.7432 
 263   0.0000       2.754189        74.9453 
 264   0.0000       2.787877        75.8620 
 265   0.0000       2.879845        78.3646 
 266   0.0000       2.912414        79.2508 
 267   0.0000       2.975371        80.9640 
 268   0.0000       3.011717        81.9530 
 269   0.0000       3.033047        82.5334 
 270   0.0000       3.057779        83.2064 
 271   0.0000       3.167564        86.1938 
 272   0.0000       3.184794        86.6627 
 273   0.0000       3.408443        92.7484 

                    ********************************
                    * MULLIKEN POPULATION ANALYSIS *
                    ********************************

-----------------------
MULLIKEN ATOMIC CHARGES
-----------------------
   0 C :   -0.557652
   1 H :    0.190244
   2 H :    0.184209
   3 H :    0.181460
   4 C :    0.525349
   5 N :   -0.371828
   6 C :   -0.251855
   7 H :    0.198035
   8 H :    0.146467
   9 C :    0.153450
  10 C :   -0.174986
  11 C :   -0.192751
  12 C :   -0.131831
  13 H :    0.168132
  14 C :   -0.126168
  15 H :    0.124023
  16 C :   -0.128184
  17 H :    0.133467
  18 H :    0.131147
  19 H :    0.130740
  20 C :   -0.251232
  21 H :    0.182729
  22 H :    0.174258
  23 C :    0.520032
  24 N :   -0.364992
  25 O :   -0.486438
  26 O :   -0.481941
  27 C :   -0.324127
  28 H :    0.165174
  29 H :    0.155814
  30 H :    0.190687
  31 C :   -0.325574
  32 H :    0.156483
  33 H :    0.152856
  34 H :    0.204802
Sum of atomic charges:   -0.0000000

--------------------------------
MULLIKEN REDUCED ORBITAL CHARGES
--------------------------------
  0 C s       :     3.322334  s :     3.322334
      pz      :     1.104239  p :     3.203213
      px      :     0.990900
      py      :     1.108073
      dz2     :     0.003942  d :     0.032105
      dxz     :     0.007266
      dyz     :     0.008380
      dx2y2   :     0.009282
      dxy     :     0.003235
  1 H s       :     0.809756  s :     0.809756
  2 H s       :     0.815791  s :     0.815791
  3 H s       :     0.818540  s :     0.818540
  4 C s       :     2.984887  s :     2.984887
      pz      :     0.777544  p :     2.381865
      px      :     0.830028
      py      :     0.774293
      dz2     :     0.025611  d :     0.107900
      dxz     :     0.017896
      dyz     :     0.018869
      dx2y2   :     0.024625
      dxy     :     0.020899
  5 N s       :     3.535176  s :     3.535176
      pz      :     1.298448  p :     3.800757
      px      :     1.158832
      py      :     1.343478
      dz2     :     0.006247  d :     0.035895
      dxz     :     0.008247
      dyz     :     0.006493
      dx2y2   :     0.006623
      dxy     :     0.008285
  6 C s       :     3.247879  s :     3.247879
      pz      :     1.042437  p :     2.949796
      px      :     0.821170
      py      :     1.086189
      dz2     :     0.014601  d :     0.054180
      dxz     :     0.008160
      dyz     :     0.004856
      dx2y2   :     0.015651
      dxy     :     0.010912
  7 H s       :     0.801965  s :     0.801965
  8 H s       :     0.853533  s :     0.853533
  9 C s       :     3.131609  s :     3.131609
      pz      :     0.867632  p :     2.674572
      px      :     0.905833
      py      :     0.901107
      dz2     :     0.010420  d :     0.040369
      dxz     :     0.009264
      dyz     :     0.009102
      dx2y2   :     0.005493
      dxy     :     0.006089
 10 C s       :     3.205014  s :     3.205014
      pz      :     0.985775  p :     2.934035
      px      :     0.964045
      py      :     0.984215
      dz2     :     0.008313  d :     0.035938
      dxz     :     0.008232
      dyz     :     0.009777
      dx2y2   :     0.004170
      dxy     :     0.005446
 11 C s       :     3.199836  s :     3.199836
      pz      :     0.979329  p :     2.956657
      px      :     0.993860
      py      :     0.983468
      dz2     :     0.011398  d :     0.036258
      dxz     :     0.006606
      dyz     :     0.006393
      dx2y2   :     0.006396
      dxy     :     0.005465
 12 C s       :     3.193721  s :     3.193721
      pz      :     0.982996  p :     2.901882
      px      :     0.966763
      py      :     0.952123
      dz2     :     0.011228  d :     0.036228
      dxz     :     0.006732
      dyz     :     0.006484
      dx2y2   :     0.006261
      dxy     :     0.005523
 13 H s       :     0.831868  s :     0.831868
 14 C s       :     3.188446  s :     3.188446
      pz      :     0.949271  p :     2.901566
      px      :     0.971522
      py      :     0.980773
      dz2     :     0.008077  d :     0.036157
      dxz     :     0.008275
      dyz     :     0.010293
      dx2y2   :     0.004200
      dxy     :     0.005312
 15 H s       :     0.875977  s :     0.875977
 16 C s       :     3.187733  s :     3.187733
      pz      :     0.942580  p :     2.904391
      px      :     0.984083
      py      :     0.977728
      dz2     :     0.009410  d :     0.036060
      dxz     :     0.008282
      dyz     :     0.008887
      dx2y2   :     0.002826
      dxy     :     0.006656
 17 H s       :     0.866533  s :     0.866533
 18 H s       :     0.868853  s :     0.868853
 19 H s       :     0.869260  s :     0.869260
 20 C s       :     3.241425  s :     3.241425
      pz      :     0.987500  p :     2.957239
      px      :     1.024187
      py      :     0.945553
      dz2     :     0.006766  d :     0.052568
      dxz     :     0.013678
      dyz     :     0.012226
      dx2y2   :     0.005964
      dxy     :     0.013933
 21 H s       :     0.817271  s :     0.817271
 22 H s       :     0.825742  s :     0.825742
 23 C s       :     2.980541  s :     2.980541
      pz      :     0.781085  p :     2.390880
      px      :     0.784718
      py      :     0.825078
      dz2     :     0.022041  d :     0.108546
      dxz     :     0.027037
      dyz     :     0.011916
      dx2y2   :     0.017829
      dxy     :     0.029722
 24 N s       :     3.527838  s :     3.527838
      pz      :     1.296317  p :     3.799996
      px      :     1.114744
      py      :     1.388935
      dz2     :     0.007454  d :     0.037159
      dxz     :     0.008603
      dyz     :     0.005438
      dx2y2   :     0.007988
      dxy     :     0.007675
 25 O s       :     3.873562  s :     3.873562
      pz      :     1.585768  p :     4.586350
      px      :     1.365781
      py      :     1.634802
      dz2     :     0.003582  d :     0.026525
      dxz     :     0.008045
      dyz     :     0.001239
      dx2y2   :     0.006815
      dxy     :     0.006845
 26 O s       :     3.873087  s :     3.873087
      pz      :     1.510054  p :     4.582697
      px      :     1.639094
      py      :     1.433550
      dz2     :     0.005246  d :     0.026157
      dxz     :     0.004750
      dyz     :     0.005240
      dx2y2   :     0.005699
      dxy     :     0.005223
 27 C s       :     3.265776  s :     3.265776
      pz      :     1.080814  p :     3.009612
      px      :     0.836816
      py      :     1.091983
      dz2     :     0.007597  d :     0.048738
      dxz     :     0.012410
      dyz     :     0.008170
      dx2y2   :     0.013349
      dxy     :     0.007213
 28 H s       :     0.834826  s :     0.834826
 29 H s       :     0.844186  s :     0.844186
 30 H s       :     0.809313  s :     0.809313
 31 C s       :     3.256397  s :     3.256397
      pz      :     1.015301  p :     3.020958
      px      :     1.018510
      py      :     0.987147
      dz2     :     0.013717  d :     0.048218
      dxz     :     0.008505
      dyz     :     0.005186
      dx2y2   :     0.012472
      dxy     :     0.008339
 32 H s       :     0.843517  s :     0.843517
 33 H s       :     0.847144  s :     0.847144
 34 H s       :     0.795198  s :     0.795198


                     *******************************
                     * LOEWDIN POPULATION ANALYSIS *
                     *******************************

----------------------
[...]
     68       0.000446   0.003537  -0.000449
     69      -0.000047   0.000380   0.000002
     70       0.000003  -0.000360  -0.000039
     71      -0.000015  -0.000018  -0.000044
     72       0.000035  -0.000538   0.000013
     73      -0.000015  -0.000064   0.000028
     74       0.000007   0.000117   0.000045
     75       0.000030  -0.000020  -0.000003
     76      -0.000007   0.000120   0.000012
     77       0.000005   0.000091   0.000008
     78       0.000151   0.000054   0.000177
     79       0.000112  -0.000082   0.000147
     80      -0.000051   0.000081  -0.000071
     81      -0.001102   0.048254  -0.001163
     82       0.001029  -0.028706   0.000836
     83       0.001377  -0.068410   0.001289
     84      -0.000330   0.019103  -0.000321
     85       0.000263  -0.095309   0.000127
     86       0.000745   0.100203   0.000743
     87      -0.001272   0.039312  -0.000873
     88      -0.006268   0.162629  -0.003785
     89      -0.001472   0.035545  -0.000710
     90       0.014126  -0.626104   0.014924
     91      -0.006257   0.287415  -0.006735
     92      -0.015834   0.682829  -0.015829
     93      -0.000116   0.002184  -0.000040
     94       0.000019   0.000981  -0.000048
     95      -0.000051   0.001288  -0.000042
     96      -0.000075  -0.001840   0.000116
     97      -0.000395  -0.003991   0.000430
     98      -0.000009   0.000653  -0.000039
     99       0.000001  -0.000745  -0.000031
    100      -0.000032   0.001197  -0.000080
    101       0.000054  -0.003651   0.000299
    102       0.001573  -0.029534   0.000524
    103       0.000227  -0.004272   0.000066
    104       0.000680  -0.012964   0.000237


-----------
IR SPECTRUM
-----------

 Mode   freq       eps      Int      T**2         TX        TY        TZ
       cm**-1   L/(mol*cm) km/mol    a.u.
----------------------------------------------------------------------------
  6:     37.83   0.000273    1.38  0.002251  (-0.009679  0.029419 -0.035939)
  7:     48.04   0.000143    0.72  0.000928  ( 0.025259  0.014988 -0.008097)
  8:     53.27   0.000108    0.54  0.000630  ( 0.012451  0.019841 -0.009032)
  9:     71.11   0.000677    3.42  0.002969  ( 0.008641  0.049903  0.020101)
 10:     76.49   0.000331    1.67  0.001351  (-0.020039  0.019849  0.023564)
 11:     93.30   0.000482    2.44  0.001612  (-0.003575 -0.034120 -0.020854)
 12:    105.38   0.000264    1.34  0.000783  (-0.010032 -0.023831  0.010681)
 13:    118.00   0.000253    1.28  0.000670  ( 0.018811 -0.000112  0.017783)
 14:    153.81   0.000481    2.43  0.000976  ( 0.009955  0.029300  0.004296)
 15:    182.73   0.000489    2.47  0.000835  (-0.024520 -0.003711  0.014837)
 16:    186.14   0.000493    2.49  0.000826  ( 0.022148  0.018305  0.000386)
 17:    211.64   0.000028    0.14  0.000041  ( 0.002495 -0.003311  0.004914)
 18:    234.40   0.000664    3.36  0.000884  ( 0.015359  0.017826 -0.018189)
 19:    240.36   0.000806    4.07  0.001046  ( 0.001130 -0.032024  0.004407)
 20:    282.71   0.000369    1.86  0.000407  (-0.008781 -0.006130  0.017093)
 21:    314.70   0.001084    5.48  0.001075  (-0.012782 -0.023664 -0.018739)
 22:    325.01   0.000224    1.13  0.000215  ( 0.001814 -0.014432  0.001758)
 23:    404.92   0.000748    3.78  0.000576  (-0.010079  0.008607  0.020011)
 24:    409.70   0.000563    2.85  0.000429  (-0.006812 -0.019559 -0.000415)
 25:    419.77   0.000051    0.26  0.000038  (-0.005823 -0.001138 -0.001731)
 26:    451.17   0.000694    3.51  0.000480  ( 0.017940 -0.006452 -0.010794)
 27:    465.95   0.000642    3.25  0.000430  (-0.014601  0.007725  0.012542)
 28:    521.22   0.003138   15.86  0.001879  ( 0.038636 -0.003388 -0.019358)
 29:    572.24   0.002699   13.64  0.001472  (-0.011842  0.022706 -0.028570)
 30:    587.04   0.001201    6.07  0.000638  ( 0.024281 -0.006734 -0.001848)
 31:    610.68   0.000161    0.82  0.000083  ( 0.007412  0.000806 -0.005190)
 32:    623.74   0.005561   28.10  0.002782  ( 0.008263  0.049683  0.015663)
 33:    636.05   0.000020    0.10  0.000010  (-0.002488  0.001196  0.001514)
 34:    692.15   0.000744    3.76  0.000336  (-0.018007  0.002161 -0.002596)
 35:    722.67   0.007790   39.37  0.003364  ( 0.043509 -0.036708 -0.011113)
 36:    755.72   0.001457    7.36  0.000602  ( 0.021353  0.011265  0.004339)
 37:    776.83   0.003615   18.27  0.001452  ( 0.010817 -0.035434 -0.008923)
 38:    801.63   0.001939    9.80  0.000755  ( 0.025199  0.010872 -0.001336)
 39:    834.76   0.001741    8.80  0.000651  (-0.020538 -0.013760 -0.006289)
 40:    872.01   0.000052    0.26  0.000019  ( 0.000682 -0.003180  0.002826)
 41:    930.77   0.000644    3.25  0.000216  ( 0.013983 -0.000001 -0.004517)
 42:    953.91   0.001025    5.18  0.000335  (-0.014090  0.009859 -0.006299)
 43:    979.42   0.000734    3.71  0.000234  ( 0.011570 -0.008915 -0.004520)
 44:    981.01   0.000188    0.95  0.000060  ( 0.002422 -0.003948 -0.006186)
 45:   1008.33   0.005770   29.16  0.001786  ( 0.006171  0.030028  0.029087)
 46:   1009.23   0.000342    1.73  0.000106  (-0.009793 -0.001194 -0.002883)
 47:   1018.53   0.000181    0.91  0.000055  (-0.005320 -0.004505  0.002603)
 48:   1018.99   0.003812   19.26  0.001167  (-0.004565 -0.021164  0.026431)
 49:   1059.06   0.000582    2.94  0.000171  (-0.010625 -0.007644 -0.000350)
 50:   1065.17   0.001219    6.16  0.000357  ( 0.001002 -0.016643 -0.008898)
 51:   1091.59   0.000656    3.31  0.000187  ( 0.013067 -0.003887  0.001267)
 52:   1093.36   0.001170    5.91  0.000334  ( 0.004619  0.009359 -0.015003)
 53:   1125.38   0.001344    6.79  0.000373  ( 0.011177 -0.009490  0.012554)
 54:   1138.33   0.000365    1.84  0.000100  ( 0.008976 -0.000237  0.004397)
 55:   1180.38   0.001571    7.94  0.000415  (-0.012498 -0.014170 -0.007641)
 56:   1192.72   0.000249    1.26  0.000065  (-0.003970  0.005080  0.004863)
 57:   1195.14   0.007830   39.57  0.002045  (-0.002560  0.032859  0.030957)
 58:   1198.24   0.008083   40.85  0.002105  ( 0.044282  0.004926  0.010944)
 59:   1214.17   0.000040    0.20  0.000010  (-0.002914 -0.001150  0.000751)
 60:   1239.80   0.000815    4.12  0.000205  ( 0.012343  0.000682  0.007235)
 61:   1276.07   0.017617   89.03  0.004308  ( 0.050502  0.031408 -0.027772)
 62:   1297.94   0.011102   56.11  0.002669  (-0.035971  0.029908  0.021929)
 63:   1312.59   0.008518   43.05  0.002025  ( 0.022363  0.026381 -0.028792)
 64:   1349.69   0.010852   54.84  0.002509  ( 0.004736  0.027556 -0.041560)
 65:   1367.63   0.000787    3.98  0.000180  (-0.011671  0.001341 -0.006445)
 66:   1379.07   0.000432    2.18  0.000098  (-0.008420  0.005149  0.000641)
 67:   1402.88   0.005008   25.31  0.001114  (-0.020472 -0.024204  0.010443)
 68:   1423.97   0.001671    8.44  0.000366  (-0.015374  0.003622  0.010803)
 69:   1445.86   0.012282   62.07  0.002651  (-0.014443 -0.034721 -0.035167)
 70:   1455.73   0.010903   55.10  0.002337  ( 0.022767 -0.013415 -0.040485)
 71:   1465.32   0.014171   71.61  0.003018  ( 0.015987  0.047332 -0.022848)
 72:   1494.74   0.002086   10.54  0.000435  (-0.016543 -0.010088  0.007746)
 73:   1503.34   0.000266    1.34  0.000055  (-0.003346  0.006499  0.001311)
 74:   1504.11   0.002299   11.62  0.000477  (-0.009736 -0.002500  0.019390)
 75:   1509.54   0.003269   16.52  0.000676  ( 0.017549 -0.019170 -0.000514)
 76:   1513.82   0.003545   17.92  0.000731  ( 0.008689 -0.021838 -0.013359)
 77:   1521.33   0.003587   18.13  0.000736  (-0.025720 -0.007861 -0.003541)
 78:   1523.71   0.000855    4.32  0.000175  ( 0.011953  0.005154 -0.002364)
 79:   1531.61   0.005843   29.53  0.001191  (-0.010431 -0.022398  0.024085)
 80:   1535.78   0.004555   23.02  0.000926  (-0.023404  0.003898  0.019042)
 81:   1546.24   0.002777   14.03  0.000560  (-0.020961 -0.010886 -0.001616)
 82:   1562.24   0.007316   36.97  0.001461  ( 0.005490 -0.024579 -0.028760)
 83:   1645.76   0.000451    2.28  0.000085  ( 0.003628 -0.005955  0.006072)
 84:   1666.06   0.000512    2.59  0.000096  (-0.009397 -0.002767 -0.000066)
 85:   1748.78   0.047157  238.31  0.008415  (-0.033681  0.065971 -0.054114)
 86:   1759.13   0.056468  285.37  0.010017  ( 0.081140  0.022705  0.054019)
 87:   3031.02   0.007766   39.25  0.000800  ( 0.014478 -0.018518 -0.015717)
 88:   3041.56   0.007878   39.81  0.000808  ( 0.013146  0.008641  0.023681)
 89:   3048.47   0.001573    7.95  0.000161  (-0.006451  0.009810 -0.004812)
 90:   3058.56   0.008921   45.08  0.000910  ( 0.000068  0.006610  0.029436)
 91:   3070.15   0.000715    3.61  0.000073  (-0.006705  0.001438  0.005063)
 92:   3080.29   0.007557   38.19  0.000766  (-0.002947 -0.023975  0.013493)
 93:   3091.93   0.002263   11.43  0.000228  (-0.010397 -0.009483 -0.005508)
 94:   3095.79   0.004045   20.44  0.000408  (-0.001186  0.020149 -0.000575)
 95:   3139.48   0.001562    7.89  0.000155  (-0.005471 -0.009835 -0.005349)
 96:   3146.16   0.000663    3.35  0.000066  (-0.007852  0.001982 -0.000430)
 97:   3171.01   0.001961    9.91  0.000193  ( 0.006804  0.003799  0.011500)
 98:   3172.78   0.001021    5.16  0.000100  (-0.000393 -0.007520  0.006609)
 99:   3184.52   0.000221    1.12  0.000022  (-0.002476 -0.003736 -0.001247)
100:   3191.55   0.000234    1.18  0.000023  (-0.004263  0.001830  0.001163)
101:   3195.05   0.004931   24.92  0.000482  ( 0.001775 -0.004221  0.021462)
102:   3206.90   0.003819   19.30  0.000372  ( 0.013777  0.013235 -0.002589)
103:   3209.96   0.000622    3.14  0.000060  (-0.001965 -0.000331 -0.007515)
104:   3214.15   0.001964    9.92  0.000191  (-0.010883 -0.004788 -0.007020)

* The epsilon (eps) is given for a Dirac delta lineshape.
** The dipole moment derivative (T) already includes vibrational overlap.

The first frequency considered to be a vibration is 6
The total number of vibrations considered is 99


--------------------------
THERMOCHEMISTRY AT 298.15K
--------------------------

Temperature         ... 298.15 K
Pressure            ... 1.00 atm
Total Mass          ... 234.30 AMU

Throughout the following assumptions are being made:
  (1) The electronic state is orbitally nondegenerate
  (2) There are no thermally accessible electronically excited states
  (3) Hindered rotations indicated by low frequency modes are not
      treated as such but are treated as vibrations and this may
      cause some error
  (4) All equations used are the standard statistical mechanics
      equations for an ideal gas
  (5) All vibrations are strictly harmonic

freq.      37.83  E(vib)   ...       0.54 
freq.      48.04  E(vib)   ...       0.53 
freq.      53.27  E(vib)   ...       0.52 
freq.      71.11  E(vib)   ...       0.50 
freq.      76.49  E(vib)   ...       0.49 
freq.      93.30  E(vib)   ...       0.47 
freq.     105.38  E(vib)   ...       0.45 
freq.     118.00  E(vib)   ...       0.44 
freq.     153.81  E(vib)   ...       0.40 
freq.     182.73  E(vib)   ...       0.37 
freq.     186.14  E(vib)   ...       0.37 
freq.     211.64  E(vib)   ...       0.34 
freq.     234.40  E(vib)   ...       0.32 
freq.     240.36  E(vib)   ...       0.31 
freq.     282.71  E(vib)   ...       0.28 
freq.     314.70  E(vib)   ...       0.25 
freq.     325.01  E(vib)   ...       0.24 
freq.     404.92  E(vib)   ...       0.19 
freq.     409.70  E(vib)   ...       0.19 
freq.     419.77  E(vib)   ...       0.18 
freq.     451.17  E(vib)   ...       0.16 
freq.     465.95  E(vib)   ...       0.16 
freq.     521.22  E(vib)   ...       0.13 
freq.     572.24  E(vib)   ...       0.11 
freq.     587.04  E(vib)   ...       0.10 
freq.     610.68  E(vib)   ...       0.10 
freq.     623.74  E(vib)   ...       0.09 
freq.     636.05  E(vib)   ...       0.09 
freq.     692.15  E(vib)   ...       0.07 
freq.     722.67  E(vib)   ...       0.07 
freq.     755.72  E(vib)   ...       0.06 
freq.     776.83  E(vib)   ...       0.05 
freq.     801.63  E(vib)   ...       0.05 
freq.     834.76  E(vib)   ...       0.04 
freq.     872.01  E(vib)   ...       0.04 
freq.     930.77  E(vib)   ...       0.03 
freq.     953.91  E(vib)   ...       0.03 
freq.     979.42  E(vib)   ...       0.03 
freq.     981.01  E(vib)   ...       0.02 
freq.    1008.33  E(vib)   ...       0.02 
freq.    1009.23  E(vib)   ...       0.02 
freq.    1018.53  E(vib)   ...       0.02 
freq.    1018.99  E(vib)   ...       0.02 
freq.    1059.06  E(vib)   ...       0.02 
freq.    1065.17  E(vib)   ...       0.02 
freq.    1091.59  E(vib)   ...       0.02 
freq.    1093.36  E(vib)   ...       0.02 
freq.    1125.38  E(vib)   ...       0.01 
freq.    1138.33  E(vib)   ...       0.01 
freq.    1180.38  E(vib)   ...       0.01 
freq.    1192.72  E(vib)   ...       0.01 
freq.    1195.14  E(vib)   ...       0.01 
freq.    1198.24  E(vib)   ...       0.01 
freq.    1214.17  E(vib)   ...       0.01 
freq.    1239.80  E(vib)   ...       0.01 
freq.    1276.07  E(vib)   ...       0.01 
freq.    1297.94  E(vib)   ...       0.01 
freq.    1312.59  E(vib)   ...       0.01 
freq.    1349.69  E(vib)   ...       0.01 
freq.    1367.63  E(vib)   ...       0.01 
freq.    1379.07  E(vib)   ...       0.01 
freq.    1402.88  E(vib)   ...       0.00 
freq.    1423.97  E(vib)   ...       0.00 
freq.    1445.86  E(vib)   ...       0.00 
freq.    1455.73  E(vib)   ...       0.00 
freq.    1465.32  E(vib)   ...       0.00 
freq.    1494.74  E(vib)   ...       0.00 
freq.    1503.34  E(vib)   ...       0.00 
freq.    1504.11  E(vib)   ...       0.00 
freq.    1509.54  E(vib)   ...       0.00 
freq.    1513.82  E(vib)   ...       0.00 
freq.    1521.33  E(vib)   ...       0.00 
freq.    1523.71  E(vib)   ...       0.00 
freq.    1531.61  E(vib)   ...       0.00 
freq.    1535.78  E(vib)   ...       0.00 
freq.    1546.24  E(vib)   ...       0.00 
freq.    1562.24  E(vib)   ...       0.00 
freq.    1645.76  E(vib)   ...       0.00 
freq.    1666.06  E(vib)   ...       0.00 
freq.    1748.78  E(vib)   ...       0.00 
freq.    1759.13  E(vib)   ...       0.00 
freq.    3031.02  E(vib)   ...       0.00 
freq.    3041.56  E(vib)   ...       0.00 
freq.    3048.47  E(vib)   ...       0.00 
freq.    3058.56  E(vib)   ...       0.00 
freq.    3070.15  E(vib)   ...       0.00 
freq.    3080.29  E(vib)   ...       0.00 
freq.    3091.93  E(vib)   ...       0.00 
freq.    3095.79  E(vib)   ...       0.00 
freq.    3139.48  E(vib)   ...       0.00 
freq.    3146.16  E(vib)   ...       0.00 
freq.    3171.01  E(vib)   ...       0.00 
freq.    3172.78  E(vib)   ...       0.00 
freq.    3184.52  E(vib)   ...       0.00 
freq.    3191.55  E(vib)   ...       0.00 
freq.    3195.05  E(vib)   ...       0.00 
freq.    3206.90  E(vib)   ...       0.00 
freq.    3209.96  E(vib)   ...       0.00 
freq.    3214.15  E(vib)   ...       0.00 

------------
INNER ENERGY
------------

The inner energy is: U= E(el) + E(ZPE) + E(vib) + E(rot) + E(trans)
    E(el)   - is the total energy from the electronic structure calculation
              = E(kin-el) + E(nuc-el) + E(el-el) + E(nuc-nuc)
    E(ZPE)  - the the zero temperature vibrational energy from the frequency calculation
    E(vib)  - the the finite temperature correction to E(ZPE) due to population
              of excited vibrational states
    E(rot)  - is the rotational thermal energy
    E(trans)- is the translational thermal energy

Summary of contributions to the inner energy U:
Electronic energy                ...   -765.77821455 Eh
Zero point energy                ...      0.29770850 Eh     186.81 kcal/mol
Thermal vibrational correction   ...      0.01458781 Eh       9.15 kcal/mol
Thermal rotational correction    ...      0.00141627 Eh       0.89 kcal/mol
Thermal translational correction ...      0.00141627 Eh       0.89 kcal/mol
-----------------------------------------------------------------------
Total thermal energy                   -765.46308569 Eh


Summary of corrections to the electronic energy:
(perhaps to be used in another calculation)
Total thermal correction                  0.01742035 Eh      10.93 kcal/mol
Non-thermal (ZPE) correction              0.29770850 Eh     186.81 kcal/mol
-----------------------------------------------------------------------
Total correction                          0.31512886 Eh     197.75 kcal/mol


--------
ENTHALPY
--------

The enthalpy is H = U + kB*T
                kB is Boltzmann's constant
Total free energy                 ...   -765.46308569 Eh 
Thermal Enthalpy correction       ...      0.00094421 Eh       0.59 kcal/mol
-----------------------------------------------------------------------
Total Enthalpy                    ...   -765.46214148 Eh


Note: Only C1 symmetry has been detected, increase convergence thresholds 
      if your molecule has a higher symmetry. Symmetry factor of 1.0 is   
      used for the rotational entropy correction. 
 

Note: Rotational entropy computed according to Herzberg 
Infrared and Raman Spectra, Chapter V,1, Van Nostrand Reinhold, 1945 
Point Group:  C1, Symmetry Number:   1  
Rotational constants in cm-1:     0.023250     0.011441     0.009704 

Vibrational entropy computed according to the QRRHO of S. Grimme
Chem.Eur.J. 2012 18 9955


-------
ENTROPY
-------

The entropy contributions are T*S = T*(S(el)+S(vib)+S(rot)+S(trans))
     S(el)   - electronic entropy
     S(vib)  - vibrational entropy
     S(rot)  - rotational entropy
     S(trans)- translational entropy
The entropies will be listed as multiplied by the temperature to get
units of energy

Electronic entropy                ...      0.00000000 Eh      0.00 kcal/mol
Vibrational entropy               ...      0.02595232 Eh     16.29 kcal/mol
Rotational entropy                ...      0.01558528 Eh      9.78 kcal/mol
Translational entropy             ...      0.02007710 Eh     12.60 kcal/mol
-----------------------------------------------------------------------
Final entropy term                ...      0.06161470 Eh     38.66 kcal/mol

In case the symmetry of your molecule has not been determined correctly
or in case you have a reason to use a different symmetry number we print 
out the resulting rotational entropy values for sn=1,12 :
 --------------------------------------------------------
|  sn= 1 | S(rot)=       0.01558528 Eh      9.78 kcal/mol|
|  sn= 2 | S(rot)=       0.01493082 Eh      9.37 kcal/mol|
|  sn= 3 | S(rot)=       0.01454799 Eh      9.13 kcal/mol|
|  sn= 4 | S(rot)=       0.01427637 Eh      8.96 kcal/mol|
|  sn= 5 | S(rot)=       0.01406568 Eh      8.83 kcal/mol|
|  sn= 6 | S(rot)=       0.01389353 Eh      8.72 kcal/mol|
|  sn= 7 | S(rot)=       0.01374799 Eh      8.63 kcal/mol|
|  sn= 8 | S(rot)=       0.01362191 Eh      8.55 kcal/mol|
|  sn= 9 | S(rot)=       0.01351070 Eh      8.48 kcal/mol|
|  sn=10 | S(rot)=       0.01341122 Eh      8.42 kcal/mol|
|  sn=11 | S(rot)=       0.01332123 Eh      8.36 kcal/mol|
|  sn=12 | S(rot)=       0.01323908 Eh      8.31 kcal/mol|
 --------------------------------------------------------


-------------------
GIBBS FREE ENERGY
-------------------

The Gibbs free energy is G = H - T*S

Total enthalpy                    ...   -765.46214148 Eh 
Total entropy correction          ...     -0.06161470 Eh    -38.66 kcal/mol
-----------------------------------------------------------------------
Final Gibbs free energy         ...   -765.52375618 Eh

For completeness - the Gibbs free energy minus the electronic energy
G-E(el)                           ...      0.25445837 Eh    159.67 kcal/mol


Timings for individual modules:

Sum of individual times         ...     1573.732 sec (=  26.229 min)
GTO integral calculation        ...       17.210 sec (=   0.287 min)   1.1 %
SCF iterations                  ...      713.322 sec (=  11.889 min)  45.3 %
SCF Gradient evaluation         ...      221.678 sec (=   3.695 min)  14.1 %
Geometry relaxation             ...        0.995 sec (=   0.017 min)   0.1 %
Analytical frequency calculation...      620.528 sec (=  10.342 min)  39.4 %
                             ****ORCA TERMINATED NORMALLY****
TOTAL RUN TIME: 0 days 0 hours 26 minutes 18 seconds 747 msec
