
                                 *****************
                                 * O   R   C   A *
                                 *****************

                                            #,                                       
                                            ###                                      
                                            ####                                     
                                            #####                                    
                                            ######                                   
                                           ########,                                 
                                     ,,################,,,,,                         
                               ,,#################################,,                 
                          ,,##########################################,,             
                       ,#########################################, ''#####,          
                    ,#############################################,,   '####,        
                  ,##################################################,,,,####,       
                ,###########''''           ''''###############################       
              ,#####''   ,,,,##########,,,,          '''####'''          '####       
            ,##' ,,,,###########################,,,                        '##       
           ' ,,###''''                  '''############,,,                           
         ,,##''                                '''############,,,,        ,,,,,,###''
      ,#''                                            '''#######################'''  
     '                                                          ''''####''''         
             ,#######,   #######,   ,#######,      ##                                
            ,#'     '#,  ##    ##  ,#'     '#,    #''#        ######   ,####,        
            ##       ##  ##   ,#'  ##            #'  '#       #        #'  '#        
            ##       ##  #######   ##           ,######,      #####,   #    #        
            '#,     ,#'  ##    ##  '#,     ,#' ,#      #,         ##   #,  ,#        
             '#######'   ##     ##  '#######'  #'      '#     #####' # '####'        



                  #######################################################
                  #                        -***-                        #
                  #          Department of theory and spectroscopy      #
                  #    Directorship and core code : Frank Neese         #
                  #        Max Planck Institute fuer Kohlenforschung    #
                  #                Kaiser Wilhelm Platz 1               #
                  #                 D-45470 Muelheim/Ruhr               #
                  #                      Germany                        #
                  #                                                     #
                  #                  All rights reserved                #
                  #                        -***-                        #
                  #######################################################


                         Program Version 5.0.4 -  RELEASE  -


 With contributions from (in alphabetic order):
   Daniel Aravena         : Magnetic Suceptibility
   Michael Atanasov       : Ab Initio Ligand Field Theory (pilot matlab implementation)
   Alexander A. Auer      : GIAO ZORA, VPT2 properties, NMR spectrum
   Ute Becker             : Parallelization
   Giovanni Bistoni       : ED, misc. LED, open-shell LED, HFLD
   Martin Brehm           : Molecular dynamics
   Dmytro Bykov           : SCF Hessian
   Vijay G. Chilkuri      : MRCI spin determinant printing, contributions to CSF-ICE
   Dipayan Datta          : RHF DLPNO-CCSD density
   Achintya Kumar Dutta   : EOM-CC, STEOM-CC
   Dmitry Ganyushin       : Spin-Orbit,Spin-Spin,Magnetic field MRCI
   Miquel Garcia          : C-PCM and meta-GGA Hessian, CC/C-PCM, Gaussian charge scheme
   Yang Guo               : DLPNO-NEVPT2, F12-NEVPT2, CIM, IAO-localization
   Andreas Hansen         : Spin unrestricted coupled pair/coupled cluster methods
   Benjamin Helmich-Paris : MC-RPA, TRAH-SCF, COSX integrals
   Lee Huntington         : MR-EOM, pCC
   Robert Izsak           : Overlap fitted RIJCOSX, COSX-SCS-MP3, EOM
   Marcus Kettner         : VPT2
   Christian Kollmar      : KDIIS, OOCD, Brueckner-CCSD(T), CCSD density, CASPT2, CASPT2-K
   Simone Kossmann        : Meta GGA functionals, TD-DFT gradient, OOMP2, MP2 Hessian
   Martin Krupicka        : Initial AUTO-CI
   Lucas Lang             : DCDCAS
   Marvin Lechner         : AUTO-CI (C++ implementation), FIC-MRCC
   Dagmar Lenk            : GEPOL surface, SMD
   Dimitrios Liakos       : Extrapolation schemes; Compound Job, initial MDCI parallelization
   Dimitrios Manganas     : Further ROCIS development; embedding schemes
   Dimitrios Pantazis     : SARC Basis sets
   Anastasios Papadopoulos: AUTO-CI, single reference methods and gradients
   Taras Petrenko         : DFT Hessian,TD-DFT gradient, ASA, ECA, R-Raman, ABS, FL, XAS/XES, NRVS
   Peter Pinski           : DLPNO-MP2, DLPNO-MP2 Gradient
   Christoph Reimann      : Effective Core Potentials
   Marius Retegan         : Local ZFS, SOC
   Christoph Riplinger    : Optimizer, TS searches, QM/MM, DLPNO-CCSD(T), (RO)-DLPNO pert. Triples
   Tobias Risthaus        : Range-separated hybrids, TD-DFT gradient, RPA, STAB
   Michael Roemelt        : Original ROCIS implementation
   Masaaki Saitow         : Open-shell DLPNO-CCSD energy and density
   Barbara Sandhoefer     : DKH picture change effects
   Avijit Sen             : IP-ROCIS
   Kantharuban Sivalingam : CASSCF convergence, NEVPT2, FIC-MRCI
   Bernardo de Souza      : ESD, SOC TD-DFT
   Georgi Stoychev        : AutoAux, RI-MP2 NMR, DLPNO-MP2 response
   Willem Van den Heuvel  : Paramagnetic NMR
   Boris Wezisla          : Elementary symmetry handling
   Frank Wennmohs         : Technical directorship


 We gratefully acknowledge several colleagues who have allowed us to
 interface, adapt or use parts of their codes:
   Stefan Grimme, W. Hujo, H. Kruse, P. Pracht,  : VdW corrections, initial TS optimization,
                  C. Bannwarth, S. Ehlert          DFT functionals, gCP, sTDA/sTD-DF
   Ed Valeev, F. Pavosevic, A. Kumar             : LibInt (2-el integral package), F12 methods
   Garnet Chan, S. Sharma, J. Yang, R. Olivares  : DMRG
   Ulf Ekstrom                                   : XCFun DFT Library
   Mihaly Kallay                                 : mrcc  (arbitrary order and MRCC methods)
   Jiri Pittner, Ondrej Demel                    : Mk-CCSD
   Frank Weinhold                                : gennbo (NPA and NBO analysis)
   Christopher J. Cramer and Donald G. Truhlar   : smd solvation model
   Lars Goerigk                                  : TD-DFT with DH, B97 family of functionals
   V. Asgeirsson, H. Jonsson                     : NEB implementation
   FAccTs GmbH                                   : IRC, NEB, NEB-TS, DLPNO-Multilevel, CI-OPT
                                                   MM, QMMM, 2- and 3-layer-ONIOM, Crystal-QMMM,
                                                   LR-CPCM, SF, NACMEs, symmetry and pop. for TD-DFT,
                                                   nearIR, NL-DFT gradient (VV10), updates on ESD,
                                                   ML-optimized integration grids
   S Lehtola, MJT Oliveira, MAL Marques          : LibXC Library
   Liviu Ungur et al                             : ANISO software


 Your calculation uses the libint2 library for the computation of 2-el integrals
 For citations please refer to: http://libint.valeyev.net

 Your ORCA version has been built with support for libXC version: 5.1.0
 For citations please refer to: https://tddft.org/programs/libxc/

 This ORCA versions uses:
   CBLAS   interface :  Fast vector & matrix operations
   LAPACKE interface :  Fast linear algebra routines
   SCALAPACK package :  Parallel linear algebra routines
   Shared memory     :  Shared parallel matrices
   BLAS/LAPACK       :  OpenBLAS 0.3.15  USE64BITINT DYNAMIC_ARCH NO_AFFINITY SkylakeX SINGLE_THREADED
        Core in use  :  SkylakeX
   Copyright (c) 2011-2014, The OpenBLAS Project




***************************************
The coordinates will be read from file: /users/fjb15167/WWenergy/structures/Nl.xyz
***************************************


Your calculation utilizes the atom-pairwise dispersion correction
based on tight binding partial charges (D4)
Cite in your paper:
E.Caldeweyher, C.Bannwarth, S.Grimme, J.Chem.Phys., (2017), 147, 034112.
E.Caldeweyher, S.Ehlert, A.Hansen, H.Neugebauer, S.Grimme, J.Chem.Phys., (2018), in progress.
   

================================================================================

----- Orbital basis set information -----
Your calculation utilizes the basis: 6-31G(d)
   H-He, Li-Ne : W. J. Hehre, R. Ditchfield and J.A. Pople, J. Chem. Phys. 56, 2257 (1972).
                 Note: He and Ne are unpublished basis sets taken from the Gaussian program.
                 Note: Li and B from J. D. Dill and J. A. Pople, J. Chem. Phys. 62, 2921 (1975).
   Na - Ar     : M. M. Francl, W. J. Pietro, W. J. Hehre, J. S. Binkley, M. S. Gordon, 
                 D. J. DeFrees and J. A. Pople, J. Chem. Phys. 77, 3654 (1982).
   K - Zn      : V. A. Rassolov, J. A. Pople, M. A. Ratner, and T. L. Windus, J. Chem. Phys. 109, 1223 (1998).

----- AuxJ basis set information -----
Your calculation utilizes the AutoAux generation procedure.
  G. L. Stoychev, A. A. Auer, F. Neese, J. Chem. Theory Comput. 13, 554 (2017)

----- AuxC basis set information -----
Your calculation utilizes the AutoAux generation procedure.
  G. L. Stoychev, A. A. Auer, F. Neese, J. Chem. Theory Comput. 13, 554 (2017)

----- AuxJK basis set information -----
Your calculation utilizes the AutoAux generation procedure.
  G. L. Stoychev, A. A. Auer, F. Neese, J. Chem. Theory Comput. 13, 554 (2017)

================================================================================
                                        WARNINGS
                       Please study these warnings very carefully!
================================================================================


WARNING: Geometry Optimization
  ===> : Switching off AutoStart
         For restart on a previous wavefunction, please use MOREAD

INFO   : the flag for use of the SHARK integral package has been found!

================================================================================
                                       INPUT FILE
================================================================================
NAME = Nl_water.inp
|  1> ! OPT FREQ B3LYP 6-31G(d) D4 AUTOAUX CPCM(water)
|  2> 
|  3> %PAL NPROCS 4 END
|  4> 
|  5> %maxcore 3375
|  6> 
|  7> *xyzfile 0 1 /users/fjb15167/WWenergy/structures/Nl.xyz
|  8> 
|  9>                          ****END OF INPUT****
================================================================================

                       *****************************
                       * Geometry Optimization Run *
                       *****************************

Geometry optimization settings:
Update method            Update   .... BFGS
Choice of coordinates    CoordSys .... Z-matrix Internals
Initial Hessian          InHess   .... Almoef's Model

Convergence Tolerances:
Energy Change            TolE     ....  5.0000e-06 Eh
Max. Gradient            TolMAXG  ....  3.0000e-04 Eh/bohr
RMS Gradient             TolRMSG  ....  1.0000e-04 Eh/bohr
Max. Displacement        TolMAXD  ....  4.0000e-03 bohr
RMS Displacement         TolRMSD  ....  2.0000e-03 bohr
Strict Convergence                ....  False
------------------------------------------------------------------------------
                        ORCA OPTIMIZATION COORDINATE SETUP
------------------------------------------------------------------------------

The optimization will be done in new redundant internal coordinates
Making redundant internal coordinates   ...  (new redundants) done
Evaluating the initial hessian          ...  (Almloef) done
Evaluating the coordinates              ...  done
Calculating the B-matrix                .... done
Calculating the G-matrix                .... done
Diagonalizing the G-matrix              .... done
Small eigenvalue found = 5.210e-03
Small eigenvalue found = 6.631e-03
Small eigenvalue found = 1.117e-02
Small eigenvalue found = 1.595e-02
Small eigenvalue found = 2.574e-02
The first mode is                       ....   68
The number of degrees of freedom        ....   96

    -----------------------------------------------------------------
                    Redundant Internal Coordinates


    -----------------------------------------------------------------
         Definition                    Initial Value    Approx d2E/dq
    -----------------------------------------------------------------
      1. B(H   1,C   0)                  1.0937         0.355292   
      2. B(H   2,C   0)                  1.0891         0.361229   
      3. B(H   3,C   0)                  1.0940         0.354782   
      4. B(C   4,C   0)                  1.5188         0.389206   
      5. B(O   5,C   4)                  1.2353         0.987841   
      6. B(N   6,C   4)                  1.3833         0.573461   
      7. B(C   7,N   6)                  1.4637         0.426884   
      8. B(H   8,C   7)                  1.0974         0.350482   
      9. B(H   9,C   7)                  1.0903         0.359761   
     10. B(C  10,C   7)                  1.5293         0.374506   
     11. B(N  11,C  10)                  1.3637         0.616384   
     12. B(O  12,C  10)                  1.2390         0.974345   
     13. B(C  13,N  11)                  1.4535         0.443228   
     14. B(H  14,C  13)                  1.0943         0.354420   
     15. B(H  15,C  13)                  1.0975         0.350336   
     16. B(H  16,C  13)                  1.0871         0.363913   
     17. B(C  17,N  11)                  1.4547         0.441295   
     18. B(H  18,C  17)                  1.0952         0.353237   
     19. B(H  19,C  17)                  1.0887         0.361890   
     20. B(H  20,C  17)                  1.0945         0.354191   
     21. B(C  21,N   6)                  1.4746         0.410098   
     22. B(H  22,C  21)                  1.0942         0.354624   
     23. B(C  23,C  21)                  1.5278         0.376667   
     24. B(H  24,C  23)                  1.0944         0.354384   
     25. B(C  25,C  23)                  1.5288         0.375193   
     26. B(H  26,C  25)                  1.0947         0.353907   
     27. B(H  27,C  25)                  1.0947         0.353906   
     28. B(H  28,C  25)                  1.0960         0.352215   
     29. B(H  29,C  21)                  1.0978         0.349967   
     30. B(C  30,C  23)                  1.5253         0.380032   
     31. B(H  31,C  30)                  1.0968         0.351273   
     32. B(H  32,C  30)                  1.0923         0.357121   
     33. B(H  33,C  30)                  1.0950         0.353527   
     34. A(H   3,C   0,C   4)          111.3144         0.325714   
     35. A(H   1,C   0,H   3)          108.0691         0.289550   
     36. A(H   2,C   0,C   4)          106.6595         0.326681   
     37. A(H   1,C   0,C   4)          112.9048         0.325791   
     38. A(H   2,C   0,H   3)          108.8104         0.290303   
     39. A(H   1,C   0,H   2)          108.9957         0.290369   
     40. A(C   0,C   4,N   6)          118.5689         0.391605   
     41. A(O   5,C   4,N   6)          120.8186         0.459546   
     42. A(C   0,C   4,O   5)          120.6118         0.431241   
     43. A(C   4,N   6,C   7)          121.9021         0.395457   
     44. A(C   7,N   6,C  21)          115.8634         0.373061   
     45. A(C   4,N   6,C  21)          115.4916         0.392688   
     46. A(N   6,C   7,C  10)          111.7949         0.369592   
     47. A(H   8,C   7,H   9)          108.1888         0.289564   
     48. A(N   6,C   7,H   8)          110.8970         0.328067   
     49. A(N   6,C   7,H   9)          109.9058         0.329485   
     50. A(H   9,C   7,C  10)          110.6857         0.324401   
     51. A(H   8,C   7,C  10)          105.2282         0.323013   
     52. A(N  11,C  10,O  12)          122.9617         0.464479   
     53. A(C   7,C  10,O  12)          119.4740         0.427217   
     54. A(C   7,C  10,N  11)          117.5642         0.393920   
     55. A(C  13,N  11,C  17)          116.3391         0.380281   
     56. A(C  10,N  11,C  13)          124.5674         0.403165   
     57. A(C  10,N  11,C  17)          119.0927         0.402855   
     58. A(H  14,C  13,H  16)          107.5614         0.290594   
     59. A(H  15,C  13,H  16)          110.1116         0.290066   
     60. A(N  11,C  13,H  16)          110.3135         0.332170   
     61. A(H  14,C  13,H  15)          108.3389         0.288867   
     62. A(N  11,C  13,H  15)          111.8617         0.330086   
     63. A(N  11,C  13,H  14)          108.5223         0.330719   
     64. A(H  18,C  17,H  19)          109.5650         0.290188   
     65. A(N  11,C  17,H  19)          108.1710         0.331623   
     66. A(N  11,C  17,H  18)          110.2726         0.330297   
     67. A(H  19,C  17,H  20)          109.9349         0.290311   
     68. A(H  18,C  17,H  20)          108.9812         0.289211   
     69. A(N  11,C  17,H  20)          109.9063         0.330445   
     70. A(H  22,C  21,H  29)          108.4488         0.288845   
     71. A(N   6,C  21,H  29)          108.0019         0.325827   
     72. A(C  23,C  21,H  29)          109.0543         0.323240   
     73. A(H  22,C  21,C  23)          109.5635         0.323942   
     74. A(N   6,C  21,C  23)          114.4699         0.367419   
     75. A(N   6,C  21,H  22)          107.1361         0.326537   
     76. A(C  25,C  23,C  30)          110.7893         0.364687   
     77. A(H  24,C  23,C  30)          109.2415         0.324379   
     78. A(C  21,C  23,C  30)          112.0754         0.364932   
     79. A(H  24,C  23,C  25)          108.6053         0.323698   
     80. A(C  21,C  23,C  25)          108.6716         0.364133   
     81. A(C  21,C  23,H  24)          107.3407         0.323906   
     82. A(H  27,C  25,H  28)          108.2162         0.289043   
     83. A(H  26,C  25,H  28)          107.8208         0.289043   
     84. A(C  23,C  25,H  28)          110.6487         0.323372   
     85. A(H  26,C  25,H  27)          107.9518         0.289260   
     86. A(C  23,C  25,H  27)          111.2864         0.323626   
     87. A(C  23,C  25,H  26)          110.7890         0.323626   
     88. A(H  32,C  30,H  33)          108.0971         0.289622   
     89. A(H  31,C  30,H  33)          108.1376         0.288874   
     90. A(C  23,C  30,H  33)          110.5043         0.324250   
     91. A(H  31,C  30,H  32)          108.1896         0.289332   
     92. A(C  23,C  30,H  32)          111.2285         0.324790   
     93. A(C  23,C  30,H  31)          110.5771         0.323910   
     94. D(O   5,C   4,C   0,H   1)    125.6184         0.011272   
     95. D(O   5,C   4,C   0,H   3)   -112.6265         0.011272   
     96. D(O   5,C   4,C   0,H   2)      5.9305         0.011272   
     97. D(N   6,C   4,C   0,H   1)    -54.0814         0.011272   
     98. D(N   6,C   4,C   0,H   2)   -173.7693         0.011272   
     99. D(N   6,C   4,C   0,H   3)     67.6737         0.011272   
    100. D(C   7,N   6,C   4,O   5)    162.6425         0.026338   
    101. D(C  21,N   6,C   4,C   0)   -167.6627         0.026338   
    102. D(C  21,N   6,C   4,O   5)     12.6382         0.026338   
    103. D(C   7,N   6,C   4,C   0)    -17.6583         0.026338   
    104. D(C  10,C   7,N   6,C   4)    150.3380         0.015537   
    105. D(H   8,C   7,N   6,C  21)     57.3344         0.015537   
    106. D(H   9,C   7,N   6,C   4)     27.0118         0.015537   
    107. D(H   9,C   7,N   6,C  21)    176.9127         0.015537   
    108. D(H   8,C   7,N   6,C   4)    -92.5665         0.015537   
    109. D(C  10,C   7,N   6,C  21)    -59.7610         0.015537   
    110. D(O  12,C  10,C   7,H   9)   -136.8089         0.010485   
    111. D(O  12,C  10,C   7,H   8)    -20.1558         0.010485   
    112. D(O  12,C  10,C   7,N   6)    100.3072         0.010485   
    113. D(N  11,C  10,C   7,H   8)    159.7251         0.010485   
    114. D(N  11,C  10,C   7,N   6)    -79.8119         0.010485   
    115. D(N  11,C  10,C   7,H   9)     43.0720         0.010485   
    116. D(C  17,N  11,C  10,C   7)   -177.7679         0.030737   
    117. D(C  13,N  11,C  10,O  12)   -177.5548         0.030737   
    118. D(C  13,N  11,C  10,C   7)      2.5688         0.030737   
    119. D(C  17,N  11,C  10,O  12)      2.1085         0.030737   
    120. D(H  15,C  13,N  11,C  10)    -97.6265         0.016753   
    121. D(H  14,C  13,N  11,C  17)    -36.7676         0.016753   
    122. D(H  15,C  13,N  11,C  17)     82.7018         0.016753   
    123. D(H  14,C  13,N  11,C  10)    142.9041         0.016753   
    124. D(H  16,C  13,N  11,C  10)     25.3016         0.016753   
    125. D(H  16,C  13,N  11,C  17)   -154.3701         0.016753   
    126. D(H  20,C  17,N  11,C  13)    -54.9653         0.016606   
    127. D(H  20,C  17,N  11,C  10)    125.3441         0.016606   
    128. D(H  19,C  17,N  11,C  13)   -174.9989         0.016606   
    129. D(H  19,C  17,N  11,C  10)      5.3105         0.016606   
    130. D(H  18,C  17,N  11,C  13)     65.2019         0.016606   
    131. D(H  18,C  17,N  11,C  10)   -114.4888         0.016606   
    132. D(H  29,C  21,N   6,C   7)   -111.1978         0.014347   
    133. D(H  29,C  21,N   6,C   4)     40.6598         0.014347   
    134. D(C  23,C  21,N   6,C   7)    127.1320         0.014347   
    135. D(C  23,C  21,N   6,C   4)    -81.0104         0.014347   
    136. D(H  22,C  21,N   6,C   7)      5.4432         0.014347   
    137. D(H  22,C  21,N   6,C   4)    157.3008         0.014347   
    138. D(C  30,C  23,C  21,H  29)    177.1347         0.011318   
    139. D(C  30,C  23,C  21,H  22)     58.5765         0.011318   
    140. D(C  30,C  23,C  21,N   6)    -61.7733         0.011318   
    141. D(C  25,C  23,C  21,H  29)     54.3599         0.011318   
    142. D(C  25,C  23,C  21,H  22)    -64.1984         0.011318   
    143. D(C  25,C  23,C  21,N   6)    175.4519         0.011318   
    144. D(H  24,C  23,C  21,H  29)    -62.9191         0.011318   
    145. D(H  24,C  23,C  21,H  22)    178.5226         0.011318   
    146. D(H  24,C  23,C  21,N   6)     58.1729         0.011318   
    147. D(H  28,C  25,C  23,C  30)    -61.4319         0.011235   
    148. D(H  28,C  25,C  23,H  24)    178.5850         0.011235   
    149. D(H  28,C  25,C  23,C  21)     62.1155         0.011235   
    150. D(H  27,C  25,C  23,C  30)    178.2137         0.011235   
    151. D(H  27,C  25,C  23,H  24)     58.2307         0.011235   
    152. D(H  27,C  25,C  23,C  21)    -58.2388         0.011235   
    153. D(H  26,C  25,C  23,C  30)     58.0990         0.011235   
    154. D(H  26,C  25,C  23,H  24)    -61.8841         0.011235   
    155. D(H  26,C  25,C  23,C  21)   -178.3535         0.011235   
    156. D(H  31,C  30,C  23,C  21)    -59.0120         0.011511   
    157. D(H  33,C  30,C  23,H  24)     62.4613         0.011511   
    158. D(H  33,C  30,C  23,C  21)   -178.7082         0.011511   
    159. D(H  32,C  30,C  23,C  25)   -177.2102         0.011511   
    160. D(H  32,C  30,C  23,H  24)    -57.6081         0.011511   
    161. D(H  32,C  30,C  23,C  21)     61.2225         0.011511   
    162. D(H  31,C  30,C  23,C  25)     62.5553         0.011511   
    163. D(H  33,C  30,C  23,C  25)    -57.1408         0.011511   
    164. D(H  31,C  30,C  23,H  24)   -177.8425         0.011511   
    -----------------------------------------------------------------

Number of atoms                         .... 34
Number of degrees of freedom            .... 164

         *************************************************************
         *                GEOMETRY OPTIMIZATION CYCLE   1            *
         *************************************************************
---------------------------------
CARTESIAN COORDINATES (ANGSTROEM)
---------------------------------
  C     -1.276000   -3.022000   -0.195000
  H     -0.369000   -3.157000   -0.791000
  H     -2.099000   -3.547000   -0.678000
  H     -1.104000   -3.466000    0.790000
  C     -1.696000   -1.567000   -0.079000
  O     -2.836000   -1.214000   -0.398000
  N     -0.773000   -0.647000    0.385000
  C      0.430000   -1.057000    1.111000
  H      0.253000   -1.056000    2.194000
  H      0.717000   -2.066000    0.814000
  C      1.586000   -0.080000    0.892000
  N      2.293000   -0.189000   -0.269000
  O      1.843000    0.765000    1.761000
  C      1.991000   -1.132000   -1.333000
  H      2.183000   -0.645000   -2.294000
  H      2.616000   -2.032000   -1.271000
  H      0.939000   -1.405000   -1.308000
  C      3.430000    0.691000   -0.490000
  H      3.230000    1.366000   -1.329000
  H      3.590000    1.273000    0.416000
  H      4.322000    0.098000   -0.715000
  C     -1.319000    0.676000    0.740000
  H     -0.618000    1.136000    1.443000
  C     -1.538000    1.610000   -0.449000
  H     -2.221000    1.105000   -1.139000
  C     -2.208000    2.890000    0.051000
  H     -2.408000    3.574000   -0.780000
  H     -3.160000    2.673000    0.546000
  H     -1.561000    3.411000    0.766000
  H     -2.276000    0.521000    1.255000
  C     -0.235000    1.929000   -1.175000
  H      0.481000    2.402000   -0.492000
  H      0.225000    1.024000   -1.578000
  H     -0.418000    2.617000   -2.007000

----------------------------
CARTESIAN COORDINATES (A.U.)
----------------------------
  NO LB      ZA    FRAG     MASS         X           Y           Z
   0 C     6.0000    0    12.011   -2.411291   -5.710752   -0.368497
   1 H     1.0000    0     1.008   -0.697309   -5.965865   -1.494773
   2 H     1.0000    0     1.008   -3.966535   -6.702859   -1.281234
   3 H     1.0000    0     1.008   -2.086258   -6.549791    1.492884
   4 C     6.0000    0    12.011   -3.204976   -2.961201   -0.149288
   5 O     8.0000    0    15.999   -5.359263   -2.294128   -0.752111
   6 N     7.0000    0    14.007   -1.460758   -1.222653    0.727545
   7 C     6.0000    0    12.011    0.812582   -1.997441    2.099486
   8 H     1.0000    0     1.008    0.478101   -1.995551    4.146059
   9 H     1.0000    0     1.008    1.354934   -3.904174    1.538237
  10 C     6.0000    0    12.011    2.997106   -0.151178    1.685636
  11 N     7.0000    0    14.007    4.333142   -0.357158   -0.508336
  12 O     8.0000    0    15.999    3.482765    1.445640    3.327808
  13 C     6.0000    0    12.011    3.762445   -2.139170   -2.519005
  14 H     1.0000    0     1.008    4.125272   -1.218873   -4.335032
  15 H     1.0000    0     1.008    4.943524   -3.839924   -2.401842
  16 H     1.0000    0     1.008    1.774453   -2.655065   -2.471762
  17 C     6.0000    0    12.011    6.481761    1.305801   -0.925966
  18 H     1.0000    0     1.008    6.103815    2.581366   -2.511446
  19 H     1.0000    0     1.008    6.784117    2.405621    0.786126
  20 H     1.0000    0     1.008    8.167396    0.185193   -1.351154
  21 C     6.0000    0    12.011   -2.492549    1.277455    1.398397
  22 H     1.0000    0     1.008   -1.167851    2.146729    2.726875
  23 C     6.0000    0    12.011   -2.906399    3.042459   -0.848487
  24 H     1.0000    0     1.008   -4.197082    2.088147   -2.152398
  25 C     6.0000    0    12.011   -4.172515    5.461309    0.096376
  26 H     1.0000    0     1.008   -4.550461    6.753881   -1.473986
  27 H     1.0000    0     1.008   -5.971535    5.051238    1.031790
  28 H     1.0000    0     1.008   -2.949862    6.445856    1.447530
  29 H     1.0000    0     1.008   -4.301017    0.984547    2.371606
  30 C     6.0000    0    12.011   -0.444086    3.645282   -2.220428
  31 H     1.0000    0     1.008    0.908958    4.539122   -0.929745
  32 H     1.0000    0     1.008    0.425188    1.935080   -2.981988
  33 H     1.0000    0     1.008   -0.789906    4.945413   -3.792680

--------------------------------
INTERNAL COORDINATES (ANGSTROEM)
--------------------------------
 C      0   0   0     0.000000000000     0.00000000     0.00000000
 H      1   0   0     1.093658996214     0.00000000     0.00000000
 H      1   2   0     1.089147832023   108.99569795     0.00000000
 H      1   2   3     1.094049816050   108.06908242   118.09977478
 C      1   2   3     1.518841993099   112.90483299   241.66705109
 O      5   1   2     1.235301582610   120.61182512   125.61841934
 N      5   1   2     1.383338353405   118.56887539   305.91863281
 C      7   5   1     1.463688833052   121.90210878   342.34167547
 H      8   7   5     1.097369126593   110.89701982   267.43349000
 H      8   7   5     1.090256391864   109.90582852    27.01180350
 C      8   7   5     1.529322072031   111.79490173   150.33804252
 N     11   8   7     1.363690214088   117.56417307   280.18808443
 O     11   8   7     1.239046003989   119.47403106   100.30716238
 C     12  11   8     1.453461041790   124.56736787     2.56878445
 H     14  12  11     1.094328104364   108.52225584   142.90407215
 H     14  12  11     1.097483029482   111.86171765   262.37347465
 H     14  12  11     1.087132926555   110.31345958    25.30161201
 C     12  11   8     1.454651160932   119.09271609   182.23206853
 H     18  12  11     1.095237873706   110.27258302   245.51124950
 H     18  12  11     1.088650540807   108.17099266     5.31050719
 H     18  12  11     1.094503540424   109.90626235   125.34406908
 C      7   5   1     1.474608422599   115.49159797   192.33734168
 H     22   7   5     1.094170919007   107.13614183   157.30080434
 C     22   7   5     1.527755870550   114.46989621   278.98960913
 H     24  22   7     1.094355518102   107.34069153    58.17288637
 C     24  22   7     1.528823076749   108.67162756   175.45187779
 H     26  24  22     1.094722339226   110.78901147   181.64647660
 H     26  24  22     1.094722795963   111.28637324   301.76122678
 H     26  24  22     1.096026915728   110.64870646    62.11554109
 H     22   7   5     1.097770012343   108.00190508    40.65984203
 C     24  22   7     1.525334717365   112.07540012   298.22669577
 H     31  24  22     1.096756126037   110.57709738   300.98801042
 H     31  24  22     1.092260957830   111.22853358    61.22248588
 H     31  24  22     1.095014611775   110.50425881   181.29184514

---------------------------
INTERNAL COORDINATES (A.U.)
---------------------------
 C      0   0   0     0.000000000000     0.00000000     0.00000000
 H      1   0   0     2.066715986744     0.00000000     0.00000000
 H      1   2   0     2.058191121877   108.99569795     0.00000000
 H      1   2   3     2.067454529202   108.06908242   118.09977478
 C      1   2   3     2.870195407656   112.90483299   241.66705109
 O      5   1   2     2.334381683933   120.61182512   125.61841934
 N      5   1   2     2.614130638484   118.56887539   305.91863281
 C      7   5   1     2.765971039746   121.90210878   342.34167547
 H      8   7   5     2.073727117082   110.89701982   267.43349000
 H      8   7   5     2.060285996380   109.90582852    27.01180350
 C      8   7   5     2.889999886699   111.79490173   150.33804252
 N     11   8   7     2.577001036135   117.56417307   280.18808443
 O     11   8   7     2.341457614868   119.47403106   100.30716238
 C     12  11   8     2.746643315306   124.56736787     2.56878445
 H     14  12  11     2.067980417900   108.52225584   142.90407215
 H     14  12  11     2.073942362346   111.86171765   262.37347465
 H     14  12  11     2.054383502357   110.31345958    25.30161201
 C     12  11   8     2.748892314552   119.09271609   182.23206853
 H     18  12  11     2.069699632803   110.27258302   245.51124950
 H     18  12  11     2.057251377671   108.17099266     5.31050719
 H     18  12  11     2.068311944008   109.90626235   125.34406908
 C      7   5   1     2.786606073486   115.49159797   192.33734168
 H     22   7   5     2.067683380624   107.13614183   157.30080434
 C     22   7   5     2.887040194830   114.46989621   278.98960913
 H     24  22   7     2.068032222358   107.34069153    58.17288637
 C     24  22   7     2.889056922274   108.67162756   175.45187779
 H     26  24  22     2.068725413822   110.78901147   181.64647660
 H     26  24  22     2.068726276930   111.28637324   301.76122678
 H     26  24  22     2.071190706132   110.64870646    62.11554109
 H     22   7   5     2.074484681360   108.00190508    40.65984203
 C     24  22   7     2.882464878383   112.07540012   298.22669577
 H     31  24  22     2.072568713911   110.57709738   300.98801042
 H     31  24  22     2.064074077073   111.22853358    61.22248588
 H     31  24  22     2.069277728896   110.50425881   181.29184514

---------------------
BASIS SET INFORMATION
---------------------
There are 4 groups of distinct atoms

 Group   1 Type C   : 10s4p1d contracted to 3s2p1d pattern {631/31/1}
 Group   2 Type H   : 4s contracted to 2s pattern {31}
 Group   3 Type O   : 10s4p1d contracted to 3s2p1d pattern {631/31/1}
 Group   4 Type N   : 10s4p1d contracted to 3s2p1d pattern {631/31/1}

Atom   0C    basis set group =>   1
Atom   1H    basis set group =>   2
Atom   2H    basis set group =>   2
Atom   3H    basis set group =>   2
Atom   4C    basis set group =>   1
Atom   5O    basis set group =>   3
Atom   6N    basis set group =>   4
Atom   7C    basis set group =>   1
Atom   8H    basis set group =>   2
Atom   9H    basis set group =>   2
Atom  10C    basis set group =>   1
Atom  11N    basis set group =>   4
Atom  12O    basis set group =>   3
Atom  13C    basis set group =>   1
Atom  14H    basis set group =>   2
Atom  15H    basis set group =>   2
Atom  16H    basis set group =>   2
Atom  17C    basis set group =>   1
Atom  18H    basis set group =>   2
Atom  19H    basis set group =>   2
Atom  20H    basis set group =>   2
Atom  21C    basis set group =>   1
Atom  22H    basis set group =>   2
Atom  23C    basis set group =>   1
Atom  24H    basis set group =>   2
Atom  25C    basis set group =>   1
Atom  26H    basis set group =>   2
Atom  27H    basis set group =>   2
Atom  28H    basis set group =>   2
Atom  29H    basis set group =>   2
Atom  30C    basis set group =>   1
Atom  31H    basis set group =>   2
Atom  32H    basis set group =>   2
Atom  33H    basis set group =>   2
---------------------------------
AUXILIARY/J BASIS SET INFORMATION
---------------------------------
There are 4 groups of distinct atoms

 Group   1 Type C   : 13s11p10d2f contracted to 13s11p10d2f pattern {1111111111111/11111111111/1111111111/11}
 Group   2 Type H   : 9s2p contracted to 9s2p pattern {111111111/11}
 Group   3 Type O   : 14s11p10d2f contracted to 14s11p10d2f pattern {11111111111111/11111111111/1111111111/11}
 Group   4 Type N   : 14s11p10d2f contracted to 14s11p10d2f pattern {11111111111111/11111111111/1111111111/11}

Atom   0C    basis set group =>   1
Atom   1H    basis set group =>   2
Atom   2H    basis set group =>   2
Atom   3H    basis set group =>   2
Atom   4C    basis set group =>   1
Atom   5O    basis set group =>   3
Atom   6N    basis set group =>   4
Atom   7C    basis set group =>   1
Atom   8H    basis set group =>   2
Atom   9H    basis set group =>   2
Atom  10C    basis set group =>   1
Atom  11N    basis set group =>   4
Atom  12O    basis set group =>   3
Atom  13C    basis set group =>   1
Atom  14H    basis set group =>   2
Atom  15H    basis set group =>   2
Atom  16H    basis set group =>   2
Atom  17C    basis set group =>   1
Atom  18H    basis set group =>   2
Atom  19H    basis set group =>   2
Atom  20H    basis set group =>   2
Atom  21C    basis set group =>   1
Atom  22H    basis set group =>   2
Atom  23C    basis set group =>   1
Atom  24H    basis set group =>   2
Atom  25C    basis set group =>   1
Atom  26H    basis set group =>   2
Atom  27H    basis set group =>   2
Atom  28H    basis set group =>   2
Atom  29H    basis set group =>   2
Atom  30C    basis set group =>   1
Atom  31H    basis set group =>   2
Atom  32H    basis set group =>   2
Atom  33H    basis set group =>   2
---------------------------------
AUXILIARY/C BASIS SET INFORMATION
---------------------------------
There are 4 groups of distinct atoms

 Group   1 Type C   : 13s11p10d2f contracted to 13s11p10d2f pattern {1111111111111/11111111111/1111111111/11}
 Group   2 Type H   : 9s2p contracted to 9s2p pattern {111111111/11}
 Group   3 Type O   : 14s11p10d2f contracted to 14s11p10d2f pattern {11111111111111/11111111111/1111111111/11}
 Group   4 Type N   : 14s11p10d2f contracted to 14s11p10d2f pattern {11111111111111/11111111111/1111111111/11}

Atom   0C    basis set group =>   1
Atom   1H    basis set group =>   2
Atom   2H    basis set group =>   2
Atom   3H    basis set group =>   2
Atom   4C    basis set group =>   1
Atom   5O    basis set group =>   3
Atom   6N    basis set group =>   4
Atom   7C    basis set group =>   1
Atom   8H    basis set group =>   2
Atom   9H    basis set group =>   2
Atom  10C    basis set group =>   1
Atom  11N    basis set group =>   4
Atom  12O    basis set group =>   3
Atom  13C    basis set group =>   1
Atom  14H    basis set group =>   2
Atom  15H    basis set group =>   2
Atom  16H    basis set group =>   2
Atom  17C    basis set group =>   1
Atom  18H    basis set group =>   2
Atom  19H    basis set group =>   2
Atom  20H    basis set group =>   2
Atom  21C    basis set group =>   1
Atom  22H    basis set group =>   2
Atom  23C    basis set group =>   1
Atom  24H    basis set group =>   2
Atom  25C    basis set group =>   1
Atom  26H    basis set group =>   2
Atom  27H    basis set group =>   2
Atom  28H    basis set group =>   2
Atom  29H    basis set group =>   2
Atom  30C    basis set group =>   1
Atom  31H    basis set group =>   2
Atom  32H    basis set group =>   2
Atom  33H    basis set group =>   2
----------------------------------
AUXILIARY/JK BASIS SET INFORMATION
----------------------------------
There are 4 groups of distinct atoms

 Group   1 Type C   : 13s11p10d2f contracted to 13s11p10d2f pattern {1111111111111/11111111111/1111111111/11}
 Group   2 Type H   : 9s2p contracted to 9s2p pattern {111111111/11}
 Group   3 Type O   : 14s11p10d2f contracted to 14s11p10d2f pattern {11111111111111/11111111111/1111111111/11}
 Group   4 Type N   : 14s11p10d2f contracted to 14s11p10d2f pattern {11111111111111/11111111111/1111111111/11}

Atom   0C    basis set group =>   1
Atom   1H    basis set group =>   2
Atom   2H    basis set group =>   2
Atom   3H    basis set group =>   2
Atom   4C    basis set group =>   1
Atom   5O    basis set group =>   3
Atom   6N    basis set group =>   4
Atom   7C    basis set group =>   1
Atom   8H    basis set group =>   2
Atom   9H    basis set group =>   2
Atom  10C    basis set group =>   1
Atom  11N    basis set group =>   4
Atom  12O    basis set group =>   3
Atom  13C    basis set group =>   1
Atom  14H    basis set group =>   2
Atom  15H    basis set group =>   2
Atom  16H    basis set group =>   2
Atom  17C    basis set group =>   1
Atom  18H    basis set group =>   2
Atom  19H    basis set group =>   2
Atom  20H    basis set group =>   2
Atom  21C    basis set group =>   1
Atom  22H    basis set group =>   2
Atom  23C    basis set group =>   1
Atom  24H    basis set group =>   2
Atom  25C    basis set group =>   1
Atom  26H    basis set group =>   2
Atom  27H    basis set group =>   2
Atom  28H    basis set group =>   2
Atom  29H    basis set group =>   2
Atom  30C    basis set group =>   1
Atom  31H    basis set group =>   2
Atom  32H    basis set group =>   2
Atom  33H    basis set group =>   2


           ************************************************************
           *        Program running with 4 parallel MPI-processes     *
           *              working on a common directory               *
           ************************************************************
------------------------------------------------------------------------------
                           ORCA GTO INTEGRAL CALCULATION
                           -- RI-GTO INTEGRALS CHOSEN --
------------------------------------------------------------------------------
------------------------------------------------------------------------------
                   ___                                                        
                  /   \      - P O W E R E D   B Y -                         
                 /     \                                                     
                 |  |  |   _    _      __       _____    __    __             
                 |  |  |  | |  | |    /  \     |  _  \  |  |  /  |          
                  \  \/   | |  | |   /    \    | | | |  |  | /  /          
                 / \  \   | |__| |  /  /\  \   | |_| |  |  |/  /          
                |  |  |   |  __  | /  /__\  \  |    /   |      \           
                |  |  |   | |  | | |   __   |  |    \   |  |\   \          
                \     /   | |  | | |  |  |  |  | |\  \  |  | \   \       
                 \___/    |_|  |_| |__|  |__|  |_| \__\ |__|  \__/        
                                                                              
                      - O R C A' S   B I G   F R I E N D -                    
                                      &                                       
                       - I N T E G R A L  F E E D E R -                       
                                                                              
 v1 FN, 2020, v2 2021                                                         
------------------------------------------------------------------------------


Reading SHARK input file Nl_water.SHARKINP.tmp ... ok
----------------------
SHARK INTEGRAL PACKAGE
----------------------

Number of atoms                             ...     34
Number of basis functions                   ...    236
Number of shells                            ...    124
Maximum angular momentum                    ...      2
Integral batch strategy                     ... SHARK/LIBINT Hybrid
RI-J (if used) integral strategy            ... SPLIT-RIJ (Revised 2003 algorithm where possible)
Printlevel                                  ...      1
Contraction scheme used                     ... SEGMENTED contraction
Coulomb Range Separation                    ... NOT USED
Exchange Range Separation                   ... NOT USED
Finite Nucleus Model                        ... NOT USED
Auxiliary Coulomb fitting basis             ... AVAILABLE
   # of basis functions in Aux-J            ...   1844
   # of shells in Aux-J                     ...    728
   Maximum angular momentum in Aux-J        ...      3
Auxiliary J/K fitting basis                 ... AVAILABLE
   # of basis functions in Aux-JK           ...   1844
   # of shells in Aux-JK                    ...    728
   Maximum angular momentum in Aux-JK       ...      3
Auxiliary Correlation fitting basis         ... AVAILABLE
   # of basis functions in Aux-C            ...   1844
   # of shells in Aux-C                     ...    728
   Maximum angular momentum in Aux-C        ...      3
Auxiliary 'external' fitting basis          ... NOT available
Integral threshold                          ...     2.500000e-11
Primitive cut-off                           ...     2.500000e-12
Primitive pair pre-selection threshold      ...     2.500000e-12

Calculating pre-screening integrals         ... done (  0.0 sec) Dimension = 124
Organizing shell pair data                  ... done (  0.5 sec)
Shell pair information
Total number of shell pairs                 ...      7750
Shell pairs after pre-screening             ...      6812
Total number of primitive shell pairs       ...     42549
Primitive shell pairs kept                  ...     22118
          la=0 lb=0:   2892 shell pairs
          la=1 lb=0:   2122 shell pairs
          la=1 lb=1:    394 shell pairs
          la=2 lb=0:    948 shell pairs
          la=2 lb=1:    368 shell pairs
          la=2 lb=2:     88 shell pairs

Calculating one electron integrals          ... done (  0.0 sec)
Calculating RI/J V-Matrix + Cholesky decomp.... done (  0.2 sec)
Calculating RI/JK V-Matrix + Cholesky decomp... done (  0.2 sec)
Calculating RI/C V-Matrix + Cholesky decomp.... done (  0.2 sec)
Calculating Nuclear repulsion               ... done (  0.0 sec) ENN=   1007.611292957794 Eh

SHARK setup successfully completed in   1.8 seconds

Maximum memory used throughout the entire GTOINT-calculation: 31.1 MB


           ************************************************************
           *        Program running with 4 parallel MPI-processes     *
           *              working on a common directory               *
           ************************************************************
-------------------------------------------------------------------------------
                                 ORCA SCF
-------------------------------------------------------------------------------

------------
SCF SETTINGS
------------
Hamiltonian:
 Density Functional     Method          .... DFT(GTOs)
 Exchange Functional    Exchange        .... B88
   X-Alpha parameter    XAlpha          ....  0.666667
   Becke's b parameter  XBeta           ....  0.004200
 Correlation Functional Correlation     .... LYP
 LDA part of GGA corr.  LDAOpt          .... VWN-5
 Gradients option       PostSCFGGA      .... off
 Hybrid DFT is turned on
   Fraction HF Exchange ScalHFX         ....  0.200000
   Scaling of DF-GGA-X  ScalDFX         ....  0.720000
   Scaling of DF-GGA-C  ScalDFC         ....  0.810000
   Scaling of DF-LDA-C  ScalLDAC        ....  1.000000
   Perturbative correction              ....  0.000000
   Density functional embedding theory  .... OFF
   NL short-range parameter             ....  4.800000
 RI-approximation to the Coulomb term is turned on
   Number of AuxJ basis functions       .... 1844
   RIJ-COSX (HFX calculated with COS-X)).... on


General Settings:
 Integral files         IntName         .... Nl_water
 Hartree-Fock type      HFTyp           .... RHF
 Total Charge           Charge          ....    0
 Multiplicity           Mult            ....    1
 Number of Electrons    NEL             ....  110
 Basis Dimension        Dim             ....  236
 Nuclear Repulsion      ENuc            ....   1007.6112929578 Eh

Convergence Acceleration:
 DIIS                   CNVDIIS         .... on
   Start iteration      DIISMaxIt       ....    12
   Startup error        DIISStart       ....  0.200000
   # of expansion vecs  DIISMaxEq       ....     5
   Bias factor          DIISBfac        ....   1.050
   Max. coefficient     DIISMaxC        ....  10.000
 Trust-Rad. Augm. Hess. CNVTRAH         .... auto
   Auto Start mean grad. ratio tolernc. ....  1.125000
   Auto Start start iteration           ....    20
   Auto Start num. interpolation iter.  ....    10
   Max. Number of Micro iterations      ....    16
   Max. Number of Macro iterations      .... Maxiter - #DIIS iter
   Number of Davidson start vectors     ....     2
   Converg. threshold I  (grad. norm)   ....   1.000e-05
   Converg. threshold II (energy diff.) ....   1.000e-08
   Grad. Scal. Fac. for Micro threshold ....   0.100
   Minimum threshold for Micro iter.    ....   0.010
   NR start threshold (gradient norm)   ....   0.001
   Initial trust radius                 ....   0.400
   Minimum AH scaling param. (alpha)    ....   1.000
   Maximum AH scaling param. (alpha)    .... 1000.000
   Orbital update algorithm             .... Taylor
   White noise on init. David. guess    .... on
   Maximum white noise                  ....   0.010
   Quad. conv. algorithm                .... NR
 SOSCF                  CNVSOSCF        .... on
   Start iteration      SOSCFMaxIt      ....   150
   Startup grad/error   SOSCFStart      ....  0.003300
 Level Shifting         CNVShift        .... on
   Level shift para.    LevelShift      ....    0.2500
   Turn off err/grad.   ShiftErr        ....    0.0010
 Zerner damping         CNVZerner       .... off
 Static damping         CNVDamp         .... on
   Fraction old density DampFac         ....    0.7000
   Max. Damping (<1)    DampMax         ....    0.9800
   Min. Damping (>=0)   DampMin         ....    0.0000
   Turn off err/grad.   DampErr         ....    0.1000
 Fernandez-Rico         CNVRico         .... off

SCF Procedure:
 Maximum # iterations   MaxIter         ....   125
 SCF integral mode      SCFMode         .... Direct
   Integral package                     .... SHARK and LIBINT hybrid scheme
 Reset frequency        DirectResetFreq ....    20
 Integral Threshold     Thresh          ....  2.500e-11 Eh
 Primitive CutOff       TCut            ....  2.500e-12 Eh

Convergence Tolerance:
 Convergence Check Mode ConvCheckMode   .... Total+1el-Energy
 Convergence forced     ConvForced      .... 0
 Energy Change          TolE            ....  1.000e-08 Eh
 1-El. energy change                    ....  1.000e-05 Eh
 Orbital Gradient       TolG            ....  1.000e-05
 Orbital Rotation angle TolX            ....  1.000e-05
 DIIS Error             TolErr          ....  5.000e-07


Diagonalization of the overlap matrix:
Smallest eigenvalue                        ... 3.255e-03
Time for diagonalization                   ...    0.009 sec
Threshold for overlap eigenvalues          ... 1.000e-08
Number of eigenvalues below threshold      ... 0
Time for construction of square roots      ...    0.004 sec
Total time needed                          ...    0.014 sec

Time for model grid setup =    0.282 sec

------------------------------
INITIAL GUESS: MODEL POTENTIAL
------------------------------
Loading Hartree-Fock densities                     ... done
Calculating cut-offs                               ... done
Initializing the effective Hamiltonian             ... done
Setting up the integral package (SHARK)            ... done
Starting the Coulomb interaction                   ... done (   0.2 sec)
Reading the grid                                   ... done
Mapping shells                                     ... done
Starting the XC term evaluation                    ... done (   0.2 sec)
  promolecular density results
     # of electrons  =    109.997302341
     EX              =    -86.927586007
     EC              =     -3.678538563
     EX+EC           =    -90.606124569
Transforming the Hamiltonian                       ... done (   0.0 sec)
Diagonalizing the Hamiltonian                      ... done (   0.0 sec)
Back transforming the eigenvectors                 ... done (   0.0 sec)
Now organizing SCF variables                       ... done
                      ------------------
                      INITIAL GUESS DONE (   0.7 sec)
                      ------------------
-------------------
DFT GRID GENERATION
-------------------

General Integration Accuracy     IntAcc      ... 4.388
Radial Grid Type                 RadialGrid  ... OptM3 with GC (2021)
Angular Grid (max. ang.)         AngularGrid ... 4 (Lebedev-302)
Angular grid pruning method      GridPruning ... 4 (adaptive)
Weight generation scheme         WeightScheme... Becke
Basis function cutoff            BFCut       ... 1.0000e-11
Integration weight cutoff        WCut        ... 1.0000e-14
Angular grids for H and He will be reduced by one unit
Partially contracted basis set               ... off
Rotationally invariant grid construction     ... off

Total number of grid points                  ...   147101
Total number of batches                      ...     2316
Average number of points per batch           ...       63
Average number of grid points per atom       ...     4326
Time for grid setup =    1.223 sec

--------------------
COSX GRID GENERATION
--------------------

GRIDX 1
-------
General Integration Accuracy     IntAcc      ... 3.816
Radial Grid Type                 RadialGrid  ... OptM3 with GC (2021)
Angular Grid (max. ang.)         AngularGrid ... 1 (Lebedev-50)
Angular grid pruning method      GridPruning ... 4 (adaptive)
Weight generation scheme         WeightScheme... Becke
Basis function cutoff            BFCut       ... 1.0000e-11
Integration weight cutoff        WCut        ... 1.0000e-14
Angular grids for H and He will be reduced by one unit
Partially contracted basis set               ... on
Rotationally invariant grid construction     ... off

Total number of grid points                  ...    18762
Total number of batches                      ...      313
Average number of points per batch           ...       59
Average number of grid points per atom       ...      552
UseSFitting                                  ... on

GRIDX 2
-------
General Integration Accuracy     IntAcc      ... 4.020
Radial Grid Type                 RadialGrid  ... OptM3 with GC (2021)
Angular Grid (max. ang.)         AngularGrid ... 2 (Lebedev-110)
Angular grid pruning method      GridPruning ... 4 (adaptive)
Weight generation scheme         WeightScheme... Becke
Basis function cutoff            BFCut       ... 1.0000e-11
Integration weight cutoff        WCut        ... 1.0000e-14
Angular grids for H and He will be reduced by one unit
Partially contracted basis set               ... on
Rotationally invariant grid construction     ... off

Total number of grid points                  ...    39308
Total number of batches                      ...      631
Average number of points per batch           ...       62
Average number of grid points per atom       ...     1156
UseSFitting                                  ... on

GRIDX 3
-------
General Integration Accuracy     IntAcc      ... 4.338
Radial Grid Type                 RadialGrid  ... OptM3 with GC (2021)
Angular Grid (max. ang.)         AngularGrid ... 3 (Lebedev-194)
Angular grid pruning method      GridPruning ... 4 (adaptive)
Weight generation scheme         WeightScheme... Becke
Basis function cutoff            BFCut       ... 1.0000e-11
Integration weight cutoff        WCut        ... 1.0000e-14
Angular grids for H and He will be reduced by one unit
Partially contracted basis set               ... on
Rotationally invariant grid construction     ... off

Total number of grid points                  ...    85437
Total number of batches                      ...     1355
Average number of points per batch           ...       63
Average number of grid points per atom       ...     2513
UseSFitting                                  ... on

Time for X-Grid setup             =    1.989 sec


--------------------
CPCM SOLVATION MODEL
--------------------
CPCM parameters:
  Epsilon                                         ...      80.4000
  Refrac                                          ...       1.3300
  Rsolv                                           ...       1.3000
  Surface type                                    ... GAUSSIAN VDW
  Epsilon function type                           ...         CPCM
Radii:
 Radius for C  used is    3.8550 Bohr (=   2.0400 Ang.)
 Radius for H  used is    2.4944 Bohr (=   1.3200 Ang.)
 Radius for O  used is    3.4469 Bohr (=   1.8240 Ang.)
 Radius for N  used is    3.5149 Bohr (=   1.8600 Ang.)
Calculating surface                               ...        done! (  0.0s)
GEPOL surface points                              ...         1778
GEPOL Volume                                      ...    1775.7506
GEPOL Surface-area                                ...     931.2555
Calculating surface distance matrix               ...        done! (  0.0s)
Performing Cholesky decomposition & store         ...        done! (  0.1s)
Overall time for CPCM initialization              ...                 0.1s
--------------
SCF ITERATIONS
--------------
ITER       Energy         Delta-E        Max-DP      RMS-DP      [F,P]     Damp
               ***  Starting incremental Fock matrix formation  ***
  0   -652.2205167847   0.000000000000 0.09784638  0.00218105  0.2738991 0.7000
  1   -652.4366064424  -0.216089657608 0.05686473  0.00147758  0.1116472 0.7000
                               ***Turning on DIIS***
  2   -652.5196190528  -0.083012610457 0.06508499  0.00232300  0.0397719 0.0000
  3   -652.6498619456  -0.130242892773 0.03718967  0.00100262  0.0541980 0.0000
  4   -652.6786766009  -0.028814655333 0.00920786  0.00033594  0.0129990 0.0000
  5   -652.6805630996  -0.001886498662 0.00414705  0.00010416  0.0067455 0.0000
                      *** Initiating the SOSCF procedure ***
                           *** Shutting down DIIS ***
                      *** Re-Reading the Fockian *** 
                      *** Removing any level shift *** 
ITER      Energy       Delta-E        Grad      Rot      Max-DP    RMS-DP
  6   -652.68070857  -0.0001454716  0.000225  0.000225  0.001315  0.000045
               *** Restarting incremental Fock matrix formation ***
  7   -652.68068108   0.0000274920  0.000208  0.000833  0.001481  0.000026
  8   -652.68067608   0.0000050013  0.000382  0.000566  0.000961  0.000016
  9   -652.68068409  -0.0000080133  0.000044  0.000134  0.000297  0.000006
 10   -652.68068382   0.0000002707  0.000087  0.000086  0.000210  0.000004
 11   -652.68068419  -0.0000003667  0.000006  0.000010  0.000027  0.000001
 12   -652.68068418   0.0000000058  0.000006  0.000004  0.000015  0.000000
                  ***Gradient check signals convergence***
              ***Rediagonalizing the Fockian in SOSCF/NRSCF***

               *****************************************************
               *                     SUCCESS                       *
               *           SCF CONVERGED AFTER  13 CYCLES          *
               *****************************************************

Old exchange energy                            =    -17.751608969 Eh
New exchange energy                            =    -17.751596814 Eh
Exchange energy change after final integration =      0.000012155 Eh
Total energy after final integration           =   -652.680672029 Eh
Final COS-X integration done in                =     9.896 sec

----------------
TOTAL SCF ENERGY
----------------

Total Energy       :         -652.68067203 Eh          -17760.34400 eV

Components:
Nuclear Repulsion  :         1007.61129296 Eh           27418.49721 eV
Electronic Energy  :        -1660.29196499 Eh          -45178.84122 eV
One Electron Energy:        -2887.10603050 Eh          -78562.14911 eV
Two Electron Energy:         1226.81406551 Eh           33383.30790 eV
Max COSX asymmetry :            0.00000273 Eh               0.00007 eV
CPCM Dielectric    :           -0.02128985 Eh              -0.57933 eV

Virial components:
Potential Energy   :        -1301.54325963 Eh          -35416.79265 eV
Kinetic Energy     :          648.86258760 Eh           17656.44865 eV
Virial Ratio       :            2.00588427


DFT components:
N(Alpha)           :       54.999947378924 electrons
N(Beta)            :       54.999947378924 electrons
N(Total)           :      109.999894757847 electrons
E(X)               :      -70.451540472382 Eh       
E(C)               :       -4.336452393355 Eh       
E(XC)              :      -74.787992865737 Eh       
DFET-embed. en.    :        0.000000000000 Eh       
CPCM Solvation Model Properties:
Surface-charge          :           -0.02240822
Charge-correction       :           -0.00023165 Eh              -0.00630 eV
Free-energy (cav+disp)  :  This term is not implemented in the current solvation scheme

---------------
SCF CONVERGENCE
---------------

  Last Energy change         ...   -2.6623e-09  Tolerance :   1.0000e-08
  Last MAX-Density change    ...    3.1086e-15  Tolerance :   1.0000e-07
  Last RMS-Density change    ...    4.3204e-17  Tolerance :   5.0000e-09
  Last Orbital Gradient      ...    5.1697e-07  Tolerance :   1.0000e-05
  Last Orbital Rotation      ...    1.8865e-06  Tolerance :   1.0000e-05

             **** THE GBW FILE WAS UPDATED (Nl_water.gbw) ****
             **** DENSITY Nl_water.scfp WAS UPDATED ****
             **** ENERGY FILE WAS UPDATED (Nl_water.en.tmp) ****
             **** THE GBW FILE WAS UPDATED (Nl_water.gbw) ****
             **** DENSITY Nl_water.scfp WAS UPDATED ****
----------------
ORBITAL ENERGIES
----------------

  NO   OCC          E(Eh)            E(eV) 
   0   2.0000     -19.110919      -520.0346 
   1   2.0000     -19.110155      -520.0137 
   2   2.0000     -14.360105      -390.7583 
   3   2.0000     -14.357159      -390.6782 
   4   2.0000     -10.282751      -279.8079 
   5   2.0000     -10.281470      -279.7730 
   6   2.0000     -10.216974      -278.0180 
   7   2.0000     -10.202539      -277.6252 
   8   2.0000     -10.195798      -277.4418 
   9   2.0000     -10.195046      -277.4213 
  10   2.0000     -10.172896      -276.8186 
  11   2.0000     -10.169231      -276.7189 
  12   2.0000     -10.154664      -276.3225 
  13   2.0000     -10.151850      -276.2459 
  14   2.0000      -1.032370       -28.0922 
  15   2.0000      -1.027213       -27.9519 
  16   2.0000      -0.933198       -25.3936 
  17   2.0000      -0.925791       -25.1921 
  18   2.0000      -0.796071       -21.6622 
  19   2.0000      -0.742999       -20.2180 
  20   2.0000      -0.735793       -20.0219 
  21   2.0000      -0.713042       -19.4029 
  22   2.0000      -0.679114       -18.4796 
  23   2.0000      -0.672872       -18.3098 
  24   2.0000      -0.663182       -18.0461 
  25   2.0000      -0.572333       -15.5740 
  26   2.0000      -0.541926       -14.7466 
  27   2.0000      -0.530504       -14.4357 
  28   2.0000      -0.505055       -13.7433 
  29   2.0000      -0.496043       -13.4980 
  30   2.0000      -0.478917       -13.0320 
  31   2.0000      -0.467770       -12.7287 
  32   2.0000      -0.456470       -12.4212 
  33   2.0000      -0.446679       -12.1548 
  34   2.0000      -0.438866       -11.9421 
  35   2.0000      -0.424177       -11.5424 
  36   2.0000      -0.409007       -11.1297 
  37   2.0000      -0.407435       -11.0869 
  38   2.0000      -0.400024       -10.8852 
  39   2.0000      -0.398871       -10.8538 
  40   2.0000      -0.397250       -10.8097 
  41   2.0000      -0.391615       -10.6564 
  42   2.0000      -0.377419       -10.2701 
  43   2.0000      -0.374174       -10.1818 
  44   2.0000      -0.373692       -10.1687 
  45   2.0000      -0.367758       -10.0072 
  46   2.0000      -0.360565        -9.8115 
  47   2.0000      -0.349693        -9.5156 
  48   2.0000      -0.324077        -8.8186 
  49   2.0000      -0.322987        -8.7889 
  50   2.0000      -0.314421        -8.5558 
  51   2.0000      -0.260616        -7.0917 
  52   2.0000      -0.249552        -6.7907 
  53   2.0000      -0.239060        -6.5052 
  54   2.0000      -0.235046        -6.3959 
  55   0.0000       0.015192         0.4134 
  56   0.0000       0.021379         0.5817 
  57   0.0000       0.088859         2.4180 
  58   0.0000       0.107467         2.9243 
  59   0.0000       0.114682         3.1207 
  60   0.0000       0.133803         3.6410 
  61   0.0000       0.139171         3.7870 
  62   0.0000       0.144634         3.9357 
  63   0.0000       0.145139         3.9494 
  64   0.0000       0.153283         4.1710 
  65   0.0000       0.162211         4.4140 
  66   0.0000       0.165501         4.5035 
  67   0.0000       0.170351         4.6355 
  68   0.0000       0.170622         4.6429 
  69   0.0000       0.177416         4.8277 
  70   0.0000       0.180032         4.8989 
  71   0.0000       0.182578         4.9682 
  72   0.0000       0.187342         5.0978 
  73   0.0000       0.193109         5.2548 
  74   0.0000       0.199338         5.4242 
  75   0.0000       0.206216         5.6114 
  76   0.0000       0.214397         5.8340 
  77   0.0000       0.223605         6.0846 
  78   0.0000       0.235200         6.4001 
  79   0.0000       0.241452         6.5702 
  80   0.0000       0.248877         6.7723 
  81   0.0000       0.254036         6.9127 
  82   0.0000       0.265815         7.2332 
  83   0.0000       0.273361         7.4385 
  84   0.0000       0.283035         7.7018 
  85   0.0000       0.292129         7.9492 
  86   0.0000       0.332226         9.0403 
  87   0.0000       0.363744         9.8980 
  88   0.0000       0.392539        10.6815 
  89   0.0000       0.398624        10.8471 
  90   0.0000       0.470225        12.7955 
  91   0.0000       0.500937        13.6312 
  92   0.0000       0.513807        13.9814 
  93   0.0000       0.519043        14.1239 
  94   0.0000       0.526688        14.3319 
  95   0.0000       0.530058        14.4236 
  96   0.0000       0.534293        14.5389 
  97   0.0000       0.553225        15.0540 
  98   0.0000       0.575296        15.6546 
  99   0.0000       0.592396        16.1199 
 100   0.0000       0.594922        16.1887 
 101   0.0000       0.617036        16.7904 
 102   0.0000       0.623695        16.9716 
 103   0.0000       0.638344        17.3702 
 104   0.0000       0.647790        17.6273 
 105   0.0000       0.654685        17.8149 
 106   0.0000       0.669557        18.2196 
 107   0.0000       0.676746        18.4152 
 108   0.0000       0.693638        18.8749 
 109   0.0000       0.698293        19.0015 
 110   0.0000       0.713051        19.4031 
 111   0.0000       0.720014        19.5926 
 112   0.0000       0.741155        20.1678 
 113   0.0000       0.749681        20.3999 
 114   0.0000       0.755602        20.5610 
 115   0.0000       0.765002        20.8168 
 116   0.0000       0.775583        21.1047 
 117   0.0000       0.788070        21.4445 
 118   0.0000       0.819056        22.2876 
 119   0.0000       0.825682        22.4679 
 120   0.0000       0.843927        22.9644 
 121   0.0000       0.847853        23.0713 
 122   0.0000       0.851909        23.1816 
 123   0.0000       0.872308        23.7367 
 124   0.0000       0.877224        23.8705 
 125   0.0000       0.886878        24.1332 
 126   0.0000       0.890424        24.2297 
 127   0.0000       0.898531        24.4503 
 128   0.0000       0.904411        24.6103 
 129   0.0000       0.911699        24.8086 
 130   0.0000       0.921289        25.0696 
 131   0.0000       0.925713        25.1899 
 132   0.0000       0.929019        25.2799 
 133   0.0000       0.933984        25.4150 
 134   0.0000       0.954882        25.9837 
 135   0.0000       0.958293        26.0765 
 136   0.0000       0.964091        26.2342 
 137   0.0000       0.977988        26.6124 
 138   0.0000       0.986665        26.8485 
 139   0.0000       0.997215        27.1356 
 140   0.0000       1.003421        27.3045 
 141   0.0000       1.007262        27.4090 
 142   0.0000       1.026391        27.9295 
 143   0.0000       1.039166        28.2772 
 144   0.0000       1.054710        28.7001 
 145   0.0000       1.060339        28.8533 
 146   0.0000       1.085952        29.5503 
 147   0.0000       1.108699        30.1692 
 148   0.0000       1.118673        30.4406 
 149   0.0000       1.166475        31.7414 
 150   0.0000       1.167139        31.7595 
 151   0.0000       1.181002        32.1367 
 152   0.0000       1.214627        33.0517 
 153   0.0000       1.229405        33.4538 
 154   0.0000       1.322095        35.9760 
 155   0.0000       1.337989        36.4085 
 156   0.0000       1.355342        36.8807 
 157   0.0000       1.378921        37.5223 
 158   0.0000       1.394530        37.9471 
 159   0.0000       1.404874        38.2286 
 160   0.0000       1.428937        38.8833 
 161   0.0000       1.436738        39.0956 
 162   0.0000       1.448363        39.4120 
 163   0.0000       1.489920        40.5428 
 164   0.0000       1.508348        41.0442 
 165   0.0000       1.531657        41.6785 
 166   0.0000       1.581623        43.0381 
 167   0.0000       1.609798        43.8048 
 168   0.0000       1.620732        44.1024 
 169   0.0000       1.631975        44.4083 
 170   0.0000       1.683106        45.7996 
 171   0.0000       1.711017        46.5591 
 172   0.0000       1.739191        47.3258 
 173   0.0000       1.757038        47.8114 
 174   0.0000       1.785213        48.5781 
 175   0.0000       1.804966        49.1156 
 176   0.0000       1.818712        49.4897 
 177   0.0000       1.825360        49.6706 
 178   0.0000       1.847950        50.2853 
 179   0.0000       1.865175        50.7540 
 180   0.0000       1.871448        50.9247 
 181   0.0000       1.883248        51.2458 
 182   0.0000       1.895325        51.5744 
 183   0.0000       1.921551        52.2881 
 184   0.0000       1.932572        52.5879 
 185   0.0000       1.952226        53.1228 
 186   0.0000       1.957144        53.2566 
 187   0.0000       1.960869        53.3580 
 188   0.0000       1.977123        53.8003 
 189   0.0000       1.987570        54.0845 
 190   0.0000       2.013202        54.7820 
 191   0.0000       2.023867        55.0722 
 192   0.0000       2.050557        55.7985 
 193   0.0000       2.054087        55.8945 
 194   0.0000       2.057240        55.9804 
 195   0.0000       2.079541        56.5872 
 196   0.0000       2.093112        56.9565 
 197   0.0000       2.107380        57.3447 
 198   0.0000       2.132440        58.0266 
 199   0.0000       2.138849        58.2010 
 200   0.0000       2.156470        58.6805 
 201   0.0000       2.180866        59.3444 
 202   0.0000       2.219542        60.3968 
 203   0.0000       2.238247        60.9058 
 204   0.0000       2.256140        61.3927 
 205   0.0000       2.262338        61.5614 
 206   0.0000       2.266719        61.6805 
 207   0.0000       2.274257        61.8857 
 208   0.0000       2.278104        61.9904 
 209   0.0000       2.325979        63.2931 
 210   0.0000       2.361139        64.2498 
 211   0.0000       2.371152        64.5223 
 212   0.0000       2.376945        64.6800 
 213   0.0000       2.410800        65.6012 
 214   0.0000       2.425775        66.0087 
 215   0.0000       2.457628        66.8754 
 216   0.0000       2.464786        67.0702 
 217   0.0000       2.496617        67.9364 
 218   0.0000       2.540952        69.1428 
 219   0.0000       2.549897        69.3862 
 220   0.0000       2.564378        69.7803 
 221   0.0000       2.602988        70.8309 
 222   0.0000       2.613783        71.1247 
 223   0.0000       2.646659        72.0192 
 224   0.0000       2.685168        73.0671 
 225   0.0000       2.711045        73.7713 
 226   0.0000       2.721846        74.0652 
 227   0.0000       2.735491        74.4365 
 228   0.0000       2.775390        75.5222 
 229   0.0000       2.810112        76.4670 
 230   0.0000       2.921516        79.4985 
 231   0.0000       2.958955        80.5172 
 232   0.0000       2.997747        81.5728 
 233   0.0000       3.010946        81.9320 
 234   0.0000       3.149737        85.7087 
 235   0.0000       3.182738        86.6067 

                    ********************************
                    * MULLIKEN POPULATION ANALYSIS *
                    ********************************

-----------------------
MULLIKEN ATOMIC CHARGES
-----------------------
   0 C :   -0.571143
   1 H :    0.197156
   2 H :    0.181635
   3 H :    0.198609
   4 C :    0.531700
   5 O :   -0.525943
   6 N :   -0.390097
   7 C :   -0.253345
   8 H :    0.184759
   9 H :    0.204690
  10 C :    0.537172
  11 N :   -0.358452
  12 O :   -0.542832
  13 C :   -0.340371
  14 H :    0.183666
  15 H :    0.179001
  16 H :    0.186026
  17 C :   -0.333119
  18 H :    0.174179
  19 H :    0.184866
  20 H :    0.174537
  21 C :   -0.144382
  22 H :    0.159024
  23 C :   -0.064755
  24 H :    0.137981
  25 C :   -0.460500
  26 H :    0.148181
  27 H :    0.146773
  28 H :    0.144959
  29 H :    0.152022
  30 C :   -0.467981
  31 H :    0.143512
  32 H :    0.157927
  33 H :    0.144544
Sum of atomic charges:    0.0000000

--------------------------------
MULLIKEN REDUCED ORBITAL CHARGES
--------------------------------
  0 C s       :     3.327724  s :     3.327724
      pz      :     1.104147  p :     3.211473
      px      :     1.112890
      py      :     0.994436
      dz2     :     0.005852  d :     0.031947
      dxz     :     0.007448
      dyz     :     0.005354
      dx2y2   :     0.007667
      dxy     :     0.005626
  1 H s       :     0.802844  s :     0.802844
  2 H s       :     0.818365  s :     0.818365
  3 H s       :     0.801391  s :     0.801391
  4 C s       :     2.988695  s :     2.988695
      pz      :     0.786214  p :     2.372422
      px      :     0.757895
      py      :     0.828313
      dz2     :     0.010504  d :     0.107183
      dxz     :     0.021749
      dyz     :     0.009900
      dx2y2   :     0.027974
      dxy     :     0.037056
  5 O s       :     3.857440  s :     3.857440
      pz      :     1.488278  p :     4.643315
      px      :     1.396181
      py      :     1.758856
      dz2     :     0.003217  d :     0.025188
      dxz     :     0.007724
      dyz     :     0.001332
      dx2y2   :     0.007093
      dxy     :     0.005822
  6 N s       :     3.563278  s :     3.563278
      pz      :     1.470667  p :     3.790120
      px      :     1.173744
      py      :     1.145709
      dz2     :     0.004648  d :     0.036699
      dxz     :     0.006303
      dyz     :     0.006324
      dx2y2   :     0.008215
      dxy     :     0.011209
  7 C s       :     3.255312  s :     3.255312
      pz      :     1.054255  p :     2.945793
      px      :     0.852502
      py      :     1.039036
      dz2     :     0.016417  d :     0.052240
      dxz     :     0.009497
      dyz     :     0.004555
      dx2y2   :     0.011326
      dxy     :     0.010444
  8 H s       :     0.815241  s :     0.815241
  9 H s       :     0.795310  s :     0.795310
 10 C s       :     2.974898  s :     2.974898
      pz      :     0.753745  p :     2.380186
      px      :     0.833191
      py      :     0.793250
      dz2     :     0.033667  d :     0.107744
      dxz     :     0.022871
      dyz     :     0.020790
      dx2y2   :     0.010963
      dxy     :     0.019454
 11 N s       :     3.530174  s :     3.530174
      pz      :     1.170450  p :     3.790621
      px      :     1.290414
      py      :     1.329756
      dz2     :     0.009118  d :     0.037657
      dxz     :     0.007997
      dyz     :     0.007873
      dx2y2   :     0.005963
      dxy     :     0.006706
 12 O s       :     3.861849  s :     3.861849
      pz      :     1.534415  p :     4.655972
      px      :     1.661805
      py      :     1.459752
      dz2     :     0.006039  d :     0.025012
      dxz     :     0.004250
      dyz     :     0.007092
      dx2y2   :     0.004296
      dxy     :     0.003334
 13 C s       :     3.269198  s :     3.269198
      pz      :     0.937126  p :     3.022707
      px      :     1.100087
      py      :     0.985495
      dz2     :     0.012786  d :     0.048466
      dxz     :     0.003839
      dyz     :     0.013119
      dx2y2   :     0.009267
      dxy     :     0.009456
 14 H s       :     0.816334  s :     0.816334
 15 H s       :     0.820999  s :     0.820999
 16 H s       :     0.813974  s :     0.813974
 17 C s       :     3.259628  s :     3.259628
      pz      :     1.119941  p :     3.025530
      px      :     0.909766
      py      :     0.995823
      dz2     :     0.008234  d :     0.047961
      dxz     :     0.004034
      dyz     :     0.012600
      dx2y2   :     0.008783
      dxy     :     0.014312
 18 H s       :     0.825821  s :     0.825821
 19 H s       :     0.815134  s :     0.815134
 20 H s       :     0.825463  s :     0.825463
 21 C s       :     3.213137  s :     3.213137
      pz      :     1.016043  p :     2.877978
      px      :     1.049734
      py      :     0.812201
      dz2     :     0.006189  d :     0.053268
      dxz     :     0.012993
      dyz     :     0.011882
      dx2y2   :     0.012475
      dxy     :     0.009728
 22 H s       :     0.840976  s :     0.840976
 23 C s       :     3.194878  s :     3.194878
      pz      :     0.951341  p :     2.824536
      px      :     0.950397
      py      :     0.922798
      dz2     :     0.005107  d :     0.045340
      dxz     :     0.011682
      dyz     :     0.011805
      dx2y2   :     0.007415
      dxy     :     0.009332
 24 H s       :     0.862019  s :     0.862019
 25 C s       :     3.298905  s :     3.298905
      pz      :     1.060357  p :     3.126613
      px      :     1.055085
      py      :     1.011172
      dz2     :     0.002495  d :     0.034982
      dxz     :     0.008714
      dyz     :     0.010823
      dx2y2   :     0.006800
      dxy     :     0.006150
 26 H s       :     0.851819  s :     0.851819
 27 H s       :     0.853227  s :     0.853227
 28 H s       :     0.855041  s :     0.855041
 29 H s       :     0.847978  s :     0.847978
 30 C s       :     3.300199  s :     3.300199
      pz      :     1.053059  p :     3.132847
      px      :     1.007752
      py      :     1.072036
      dz2     :     0.003095  d :     0.034935
      dxz     :     0.008672
      dyz     :     0.010280
      dx2y2   :     0.005277
      dxy     :     0.007611
 31 H s       :     0.856488  s :     0.856488
 32 H s       :     0.842073  s :     0.842073
 33 H s       :     0.855456  s :     0.855456


                     *******************************
                     * LOEWDIN POPULATION ANALYSIS *
                     *******************************

----------------------
LOEWDIN ATOMIC CHARGES
----------------------
   0 C :   -0.398323
   1 H :    0.153511
   2 H :    0.150986
   3 H :    0.158092
   4 C :    0.119398
   5 O :   -0.323127
   6 N :   -0.085289
   7 C :   -0.176566
   8 H :    0.144406
   9 H :    0.157201
  10 C :    0.100885
  11 N :   -0.065690
  12 O :   -0.338219
  13 C :   -0.281294
  14 H :    0.144181
  15 H :    0.136237
  16 H :    0.143034
  17 C :   -0.281185
  18 H :    0.134988
  19 H :    0.147873
  20 H :    0.136639
  21 C :   -0.153883
  22 H :    0.134358
  23 C :   -0.134734
  24 H :    0.123999
  25 C :   -0.362041
  26 H :    0.127122
  27 H :    0.125229
  28 H :    0.124003
  29 H :    0.128971
  30 C :   -0.367831
  31 H :    0.123424
  32 H :    0.128193
  33 H :    0.125452

-------------------------------
LOEWDIN REDUCED ORBITAL CHARGES
-------------------------------
  0 C s       :     2.983233  s :     2.983233
      pz      :     1.142624  p :     3.352294
      px      :     1.145125
      py      :     1.064546
      dz2     :     0.010907  d :     0.062796
      dxz     :     0.013216
      dyz     :     0.010791
      dx2y2   :     0.016001
      dxy     :     0.011880
  1 H s       :     0.846489  s :     0.846489
  2 H s       :     0.849014  s :     0.849014
  3 H s       :     0.841908  s :     0.841908
  4 C s       :     2.854517  s :     2.854517
      pz      :     0.819620  p :     2.773670
      px      :     0.962153
      py      :     0.991897
      dz2     :     0.023308  d :     0.252415
      dxz     :     0.048829
      dyz     :     0.020513
      dx2y2   :     0.066631
      dxy     :     0.093134
  5 O s       :     3.563640  s :     3.563640
      pz      :     1.481535  p :     4.707999
      px      :     1.466614
      py      :     1.759850
      dz2     :     0.006542  d :     0.051488
      dxz     :     0.013474
      dyz     :     0.002142
[...]
     76      -0.002031   0.000486  -0.000003  -0.000003   0.000004  -0.000001
     77      -0.003280  -0.001185   0.000011  -0.000006   0.000000   0.000000
     78       0.005286   0.001729  -0.000149  -0.000143   0.000014  -0.000037
     79      -0.016772  -0.007699   0.000418   0.000389  -0.000037   0.000113
     80       0.020564   0.010342  -0.000374  -0.000321   0.000028  -0.000077
     81       0.046478   0.006194  -0.000474  -0.000541   0.000029   0.000118
     82       0.008578   0.000459  -0.000082  -0.000096   0.000007  -0.000034
     83      -0.026411  -0.003782   0.000281   0.000317  -0.000022  -0.000054
     84       0.042058   0.008359  -0.000165  -0.000089  -0.000021  -0.000001
     85       0.035942   0.008329  -0.000191  -0.000129  -0.000024   0.000008
     86       0.045858   0.010294  -0.000196  -0.000106  -0.000031   0.000011
     87       0.345948   0.042379  -0.006401  -0.006920   0.000290  -0.000669
     88       0.054176   0.007187  -0.000667  -0.001292  -0.000010   0.000155
     89      -0.184702  -0.023024   0.003202   0.003143  -0.000150   0.000217
     90      -0.006236   0.017837   0.000059   0.000072   0.000073  -0.000131
     91       0.012533  -0.083626  -0.000123  -0.000167   0.000004   0.000438
     92      -0.002814  -0.026307   0.000059   0.000061   0.000041   0.000106
     93       0.016880   0.190329  -0.000244  -0.000136  -0.000710  -0.000727
     94       0.013231   0.099798  -0.000211  -0.000155  -0.000340  -0.000578
     95       0.011746   0.165127  -0.000166  -0.000058  -0.000563  -0.000741
     96       0.048935  -0.362610  -0.000389  -0.000562  -0.000183   0.001640
     97      -0.106424   0.768547   0.000856   0.001185   0.000269  -0.003290
     98      -0.047584   0.337854   0.000476   0.000602   0.000099  -0.001959
     99       0.015463  -0.042072  -0.000211  -0.000247  -0.000048   0.000440
    100      -0.054762   0.140179   0.000835   0.001006   0.000110  -0.001323
    101       0.069802  -0.193191  -0.001008  -0.001209  -0.000145   0.001184


-----------
IR SPECTRUM
-----------

 Mode   freq       eps      Int      T**2         TX        TY        TZ
       cm**-1   L/(mol*cm) km/mol    a.u.
----------------------------------------------------------------------------
  6:     11.34   0.000338    1.71  0.009311  ( 0.062010 -0.070756  0.021419)
  7:     48.98   0.000200    1.01  0.001274  (-0.035495  0.002186  0.003085)
  8:     63.56   0.001509    7.63  0.007409  (-0.053479  0.044727 -0.050487)
  9:     69.98   0.001070    5.41  0.004770  ( 0.045018 -0.004376 -0.052196)
 10:     78.06   0.001325    6.70  0.005298  (-0.060163  0.007638  0.040245)
 11:     94.21   0.000697    3.52  0.002310  (-0.022166 -0.016044  0.039508)
 12:    110.97   0.000244    1.23  0.000687  (-0.009539 -0.022392 -0.009703)
 13:    121.50   0.000247    1.25  0.000634  (-0.000975  0.021808 -0.012563)
 14:    154.59   0.000675    3.41  0.001363  ( 0.024103 -0.022212  0.016982)
 15:    184.29   0.000556    2.81  0.000942  (-0.011244  0.026196 -0.011385)
 16:    188.21   0.000115    0.58  0.000190  ( 0.006396 -0.006488 -0.010355)
 17:    229.23   0.000327    1.65  0.000446  ( 0.003463  0.020827 -0.000292)
 18:    238.55   0.001105    5.58  0.001445  ( 0.001793  0.037970 -0.000541)
 19:    248.79   0.001878    9.49  0.002356  ( 0.043711 -0.011658  0.017590)
 20:    272.99   0.000336    1.70  0.000384  ( 0.018599  0.005464  0.002832)
 21:    298.53   0.000916    4.63  0.000957  ( 0.003371 -0.030521  0.003772)
 22:    324.60   0.000620    3.13  0.000596  ( 0.013995  0.010551 -0.016997)
 23:    345.60   0.004792   24.22  0.004327  ( 0.046564  0.040809 -0.022218)
 24:    372.02   0.001481    7.49  0.001243  ( 0.014378 -0.015444 -0.028238)
 25:    414.09   0.000418    2.11  0.000315  ( 0.013334 -0.000903  0.011670)
 26:    416.59   0.000721    3.64  0.000540  ( 0.021060  0.000646 -0.009797)
 27:    428.73   0.001651    8.34  0.001201  ( 0.022433  0.026409  0.000866)
 28:    461.14   0.001110    5.61  0.000751  (-0.019006 -0.015969 -0.011619)
 29:    515.11   0.002737   13.83  0.001658  (-0.011765  0.035434 -0.016244)
 30:    562.89   0.004195   21.20  0.002326  (-0.016196 -0.015212 -0.042801)
 31:    611.96   0.001340    6.77  0.000684  ( 0.011774  0.004021 -0.022994)
 32:    631.01   0.007057   35.66  0.003490  (-0.050568 -0.011262  0.028395)
 33:    708.07   0.003194   16.14  0.001408  ( 0.001907  0.037469 -0.000197)
 34:    772.25   0.000837    4.23  0.000338  ( 0.017961 -0.003851 -0.000857)
 35:    821.65   0.004976   25.15  0.001890  (-0.031387  0.005706  0.029536)
 36:    827.04   0.001591    8.04  0.000600  (-0.022667  0.009282  0.000745)
 37:    908.20   0.000475    2.40  0.000163  ( 0.004597 -0.011146 -0.004239)
 38:    937.69   0.000642    3.24  0.000214  (-0.005382  0.013133  0.003498)
 39:    948.45   0.000492    2.49  0.000162  (-0.009859 -0.000810  0.008000)
 40:    974.96   0.000718    3.63  0.000230  ( 0.001201  0.014903 -0.002486)
 41:    981.36   0.002009   10.15  0.000639  ( 0.007573  0.023480  0.005504)
 42:   1001.14   0.002862   14.46  0.000892  ( 0.028203  0.007594  0.006245)
 43:   1005.65   0.012067   60.98  0.003744  (-0.047300 -0.019726  0.033437)
 44:   1062.30   0.002549   12.88  0.000749  (-0.013248 -0.008701  0.022310)
 45:   1083.28   0.006765   34.19  0.001949  ( 0.019927  0.026665  0.028995)
 46:   1088.03   0.002322   11.74  0.000666  (-0.007060  0.009183 -0.023062)
 47:   1132.18   0.001026    5.19  0.000283  (-0.004540  0.009642  0.013010)
 48:   1146.64   0.008320   42.05  0.002264  (-0.031670  0.034200  0.009584)
 49:   1155.29   0.005231   26.44  0.001413  (-0.026282  0.019163  0.018844)
 50:   1176.37   0.001599    8.08  0.000424  ( 0.012880  0.000805  0.016052)
 51:   1200.23   0.011471   57.97  0.002983  ( 0.015843 -0.009971 -0.051305)
 52:   1203.43   0.002587   13.08  0.000671  ( 0.007975  0.011862 -0.021602)
 53:   1241.04   0.003663   18.51  0.000921  (-0.013971  0.026798 -0.002802)
 54:   1271.24   0.038346  193.78  0.009413  ( 0.060918  0.066830  0.035154)
 55:   1293.28   0.016628   84.03  0.004012  ( 0.047936  0.038523 -0.015176)
 56:   1329.54   0.006068   30.66  0.001424  ( 0.011739  0.035828 -0.001663)
 57:   1348.34   0.000159    0.81  0.000037  ( 0.003820  0.003567  0.003096)
 58:   1383.79   0.007098   35.87  0.001601  ( 0.007198  0.039353  0.000503)
 59:   1394.28   0.003212   16.23  0.000719  ( 0.015527  0.018332  0.011907)
 60:   1404.61   0.008014   40.50  0.001781  ( 0.037946  0.016132  0.008968)
 61:   1419.52   0.007593   38.37  0.001669  ( 0.005270  0.040325  0.003916)
 62:   1421.85   0.003820   19.31  0.000839  (-0.022646 -0.017261  0.005268)
 63:   1435.76   0.012913   65.26  0.002807  ( 0.038550  0.033736 -0.013506)
 64:   1440.53   0.012701   64.18  0.002751  (-0.019356  0.019117  0.044846)
 65:   1454.29   0.012811   64.74  0.002749  (-0.043983 -0.021324  0.018966)
 66:   1468.27   0.028901  146.05  0.006142  (-0.028140 -0.062059 -0.038721)
 67:   1486.54   0.000804    4.07  0.000169  ( 0.011749  0.005534 -0.000442)
 68:   1488.91   0.004246   21.46  0.000890  (-0.023577  0.010986 -0.014607)
 69:   1499.49   0.002043   10.33  0.000425  (-0.005694 -0.008942  0.017687)
 70:   1502.92   0.002862   14.46  0.000594  (-0.015267 -0.017914  0.006345)
 71:   1506.69   0.002246   11.35  0.000465  (-0.012044  0.015227  0.009397)
 72:   1507.79   0.000647    3.27  0.000134  (-0.008645  0.007053 -0.003059)
 73:   1509.80   0.002637   13.33  0.000545  ( 0.009133  0.006130  0.020595)
 74:   1513.45   0.001636    8.27  0.000337  (-0.000217  0.008659 -0.016196)
 75:   1514.68   0.008357   42.23  0.001722  ( 0.009321 -0.034375 -0.021288)
 76:   1518.16   0.000822    4.15  0.000169  ( 0.005164  0.011521  0.003089)
 77:   1525.43   0.004985   25.19  0.001020  ( 0.011278  0.000148  0.029876)
 78:   1531.71   0.000773    3.91  0.000158  ( 0.012227  0.000441  0.002803)
 79:   1552.46   0.015616   78.92  0.003139  ( 0.039434  0.007921 -0.039002)
 80:   1709.42   0.129756  655.74  0.023688  ( 0.018721  0.073752  0.133783)
 81:   1716.79   0.090490  457.30  0.016448  ( 0.125640 -0.023803  0.009819)
 82:   3031.06   0.007575   38.28  0.000780  (-0.012259  0.021039  0.013671)
 83:   3042.22   0.007877   39.81  0.000808  ( 0.020966  0.015261 -0.011641)
 84:   3045.03   0.009303   47.01  0.000953  (-0.013971 -0.026887  0.005940)
 85:   3050.83   0.015852   80.11  0.001621  (-0.023115  0.015091  0.029316)
 86:   3059.58   0.007904   39.94  0.000806  ( 0.018749 -0.011469 -0.017976)
 87:   3062.28   0.000932    4.71  0.000095  ( 0.005492 -0.007698 -0.002351)
 88:   3066.62   0.001531    7.74  0.000156  (-0.000039 -0.009680 -0.007880)
 89:   3067.31   0.010116   51.12  0.001029  (-0.005580  0.006012 -0.031015)
 90:   3093.97   0.006758   34.15  0.000682  ( 0.024214  0.009748 -0.000521)
 91:   3100.91   0.013197   66.69  0.001328  ( 0.026198 -0.018513  0.017293)
 92:   3101.66   0.007945   40.15  0.000799  (-0.021932 -0.008143 -0.015875)
 93:   3106.76   0.016999   85.90  0.001707  ( 0.003274 -0.016079  0.037923)
 94:   3118.32   0.003893   19.68  0.000390  ( 0.002947 -0.011145  0.016023)
 95:   3125.70   0.002047   10.35  0.000204  (-0.004578 -0.000861  0.013517)
 96:   3125.90   0.006309   31.88  0.000630  (-0.023221 -0.006003 -0.007389)
 97:   3134.29   0.010491   53.02  0.001045  ( 0.003865 -0.029799 -0.011902)
 98:   3165.63   0.003540   17.89  0.000349  ( 0.012676  0.010872  0.008374)
 99:   3176.69   0.002261   11.43  0.000222  (-0.012782  0.006386  0.004240)
100:   3195.22   0.000712    3.60  0.000070  ( 0.004605  0.005097  0.004731)
101:   3200.63   0.002093   10.58  0.000204  ( 0.012168  0.006000  0.004479)

* The epsilon (eps) is given for a Dirac delta lineshape.
** The dipole moment derivative (T) already includes vibrational overlap.

The first frequency considered to be a vibration is 6
The total number of vibrations considered is 96


--------------------------
THERMOCHEMISTRY AT 298.15K
--------------------------

Temperature         ... 298.15 K
Pressure            ... 1.00 atm
Total Mass          ... 200.28 AMU

Throughout the following assumptions are being made:
  (1) The electronic state is orbitally nondegenerate
  (2) There are no thermally accessible electronically excited states
  (3) Hindered rotations indicated by low frequency modes are not
      treated as such but are treated as vibrations and this may
      cause some error
  (4) All equations used are the standard statistical mechanics
      equations for an ideal gas
  (5) All vibrations are strictly harmonic

freq.      11.34  E(vib)   ...       0.58 
freq.      48.98  E(vib)   ...       0.53 
freq.      63.56  E(vib)   ...       0.51 
freq.      69.98  E(vib)   ...       0.50 
freq.      78.06  E(vib)   ...       0.49 
freq.      94.21  E(vib)   ...       0.47 
freq.     110.97  E(vib)   ...       0.45 
freq.     121.50  E(vib)   ...       0.44 
freq.     154.59  E(vib)   ...       0.40 
freq.     184.29  E(vib)   ...       0.37 
freq.     188.21  E(vib)   ...       0.36 
freq.     229.23  E(vib)   ...       0.32 
freq.     238.55  E(vib)   ...       0.32 
freq.     248.79  E(vib)   ...       0.31 
freq.     272.99  E(vib)   ...       0.29 
freq.     298.53  E(vib)   ...       0.26 
freq.     324.60  E(vib)   ...       0.24 
freq.     345.60  E(vib)   ...       0.23 
freq.     372.02  E(vib)   ...       0.21 
freq.     414.09  E(vib)   ...       0.19 
freq.     416.59  E(vib)   ...       0.18 
freq.     428.73  E(vib)   ...       0.18 
freq.     461.14  E(vib)   ...       0.16 
freq.     515.11  E(vib)   ...       0.13 
freq.     562.89  E(vib)   ...       0.11 
freq.     611.96  E(vib)   ...       0.10 
freq.     631.01  E(vib)   ...       0.09 
freq.     708.07  E(vib)   ...       0.07 
freq.     772.25  E(vib)   ...       0.05 
freq.     821.65  E(vib)   ...       0.05 
freq.     827.04  E(vib)   ...       0.04 
freq.     908.20  E(vib)   ...       0.03 
freq.     937.69  E(vib)   ...       0.03 
freq.     948.45  E(vib)   ...       0.03 
freq.     974.96  E(vib)   ...       0.03 
freq.     981.36  E(vib)   ...       0.02 
freq.    1001.14  E(vib)   ...       0.02 
freq.    1005.65  E(vib)   ...       0.02 
freq.    1062.30  E(vib)   ...       0.02 
freq.    1083.28  E(vib)   ...       0.02 
freq.    1088.03  E(vib)   ...       0.02 
freq.    1132.18  E(vib)   ...       0.01 
freq.    1146.64  E(vib)   ...       0.01 
freq.    1155.29  E(vib)   ...       0.01 
freq.    1176.37  E(vib)   ...       0.01 
freq.    1200.23  E(vib)   ...       0.01 
freq.    1203.43  E(vib)   ...       0.01 
freq.    1241.04  E(vib)   ...       0.01 
freq.    1271.24  E(vib)   ...       0.01 
freq.    1293.28  E(vib)   ...       0.01 
freq.    1329.54  E(vib)   ...       0.01 
freq.    1348.34  E(vib)   ...       0.01 
freq.    1383.79  E(vib)   ...       0.00 
freq.    1394.28  E(vib)   ...       0.00 
freq.    1404.61  E(vib)   ...       0.00 
freq.    1419.52  E(vib)   ...       0.00 
freq.    1421.85  E(vib)   ...       0.00 
freq.    1435.76  E(vib)   ...       0.00 
freq.    1440.53  E(vib)   ...       0.00 
freq.    1454.29  E(vib)   ...       0.00 
freq.    1468.27  E(vib)   ...       0.00 
freq.    1486.54  E(vib)   ...       0.00 
freq.    1488.91  E(vib)   ...       0.00 
freq.    1499.49  E(vib)   ...       0.00 
freq.    1502.92  E(vib)   ...       0.00 
freq.    1506.69  E(vib)   ...       0.00 
freq.    1507.79  E(vib)   ...       0.00 
freq.    1509.80  E(vib)   ...       0.00 
freq.    1513.45  E(vib)   ...       0.00 
freq.    1514.68  E(vib)   ...       0.00 
freq.    1518.16  E(vib)   ...       0.00 
freq.    1525.43  E(vib)   ...       0.00 
freq.    1531.71  E(vib)   ...       0.00 
freq.    1552.46  E(vib)   ...       0.00 
freq.    1709.42  E(vib)   ...       0.00 
freq.    1716.79  E(vib)   ...       0.00 
freq.    3031.06  E(vib)   ...       0.00 
freq.    3042.22  E(vib)   ...       0.00 
freq.    3045.03  E(vib)   ...       0.00 
freq.    3050.83  E(vib)   ...       0.00 
freq.    3059.58  E(vib)   ...       0.00 
freq.    3062.28  E(vib)   ...       0.00 
freq.    3066.62  E(vib)   ...       0.00 
freq.    3067.31  E(vib)   ...       0.00 
freq.    3093.97  E(vib)   ...       0.00 
freq.    3100.91  E(vib)   ...       0.00 
freq.    3101.66  E(vib)   ...       0.00 
freq.    3106.76  E(vib)   ...       0.00 
freq.    3118.32  E(vib)   ...       0.00 
freq.    3125.70  E(vib)   ...       0.00 
freq.    3125.90  E(vib)   ...       0.00 
freq.    3134.29  E(vib)   ...       0.00 
freq.    3165.63  E(vib)   ...       0.00 
freq.    3176.69  E(vib)   ...       0.00 
freq.    3195.22  E(vib)   ...       0.00 
freq.    3200.63  E(vib)   ...       0.00 

------------
INNER ENERGY
------------

The inner energy is: U= E(el) + E(ZPE) + E(vib) + E(rot) + E(trans)
    E(el)   - is the total energy from the electronic structure calculation
              = E(kin-el) + E(nuc-el) + E(el-el) + E(nuc-nuc)
    E(ZPE)  - the the zero temperature vibrational energy from the frequency calculation
    E(vib)  - the the finite temperature correction to E(ZPE) due to population
              of excited vibrational states
    E(rot)  - is the rotational thermal energy
    E(trans)- is the translational thermal energy

Summary of contributions to the inner energy U:
Electronic energy                ...   -652.73898897 Eh
Zero point energy                ...      0.30092982 Eh     188.84 kcal/mol
Thermal vibrational correction   ...      0.01440110 Eh       9.04 kcal/mol
Thermal rotational correction    ...      0.00141627 Eh       0.89 kcal/mol
Thermal translational correction ...      0.00141627 Eh       0.89 kcal/mol
-----------------------------------------------------------------------
Total thermal energy                   -652.42082551 Eh


Summary of corrections to the electronic energy:
(perhaps to be used in another calculation)
Total thermal correction                  0.01723365 Eh      10.81 kcal/mol
Non-thermal (ZPE) correction              0.30092982 Eh     188.84 kcal/mol
-----------------------------------------------------------------------
Total correction                          0.31816346 Eh     199.65 kcal/mol


--------
ENTHALPY
--------

The enthalpy is H = U + kB*T
                kB is Boltzmann's constant
Total free energy                 ...   -652.42082551 Eh 
Thermal Enthalpy correction       ...      0.00094421 Eh       0.59 kcal/mol
-----------------------------------------------------------------------
Total Enthalpy                    ...   -652.41988130 Eh


Note: Only C1 symmetry has been detected, increase convergence thresholds 
      if your molecule has a higher symmetry. Symmetry factor of 1.0 is   
      used for the rotational entropy correction. 
 

Note: Rotational entropy computed according to Herzberg 
Infrared and Raman Spectra, Chapter V,1, Van Nostrand Reinhold, 1945 
Point Group:  C1, Symmetry Number:   1  
Rotational constants in cm-1:     0.025538     0.018726     0.013652 

Vibrational entropy computed according to the QRRHO of S. Grimme
Chem.Eur.J. 2012 18 9955


-------
ENTROPY
-------

The entropy contributions are T*S = T*(S(el)+S(vib)+S(rot)+S(trans))
     S(el)   - electronic entropy
     S(vib)  - vibrational entropy
     S(rot)  - rotational entropy
     S(trans)- translational entropy
The entropies will be listed as multiplied by the temperature to get
units of energy

Electronic entropy                ...      0.00000000 Eh      0.00 kcal/mol
Vibrational entropy               ...      0.02621474 Eh     16.45 kcal/mol
Rotational entropy                ...      0.01514727 Eh      9.51 kcal/mol
Translational entropy             ...      0.01985492 Eh     12.46 kcal/mol
-----------------------------------------------------------------------
Final entropy term                ...      0.06121693 Eh     38.41 kcal/mol

In case the symmetry of your molecule has not been determined correctly
or in case you have a reason to use a different symmetry number we print 
out the resulting rotational entropy values for sn=1,12 :
 --------------------------------------------------------
|  sn= 1 | S(rot)=       0.01514727 Eh      9.51 kcal/mol|
|  sn= 2 | S(rot)=       0.01449281 Eh      9.09 kcal/mol|
|  sn= 3 | S(rot)=       0.01410998 Eh      8.85 kcal/mol|
|  sn= 4 | S(rot)=       0.01383836 Eh      8.68 kcal/mol|
|  sn= 5 | S(rot)=       0.01362767 Eh      8.55 kcal/mol|
|  sn= 6 | S(rot)=       0.01345552 Eh      8.44 kcal/mol|
|  sn= 7 | S(rot)=       0.01330998 Eh      8.35 kcal/mol|
|  sn= 8 | S(rot)=       0.01318390 Eh      8.27 kcal/mol|
|  sn= 9 | S(rot)=       0.01307269 Eh      8.20 kcal/mol|
|  sn=10 | S(rot)=       0.01297321 Eh      8.14 kcal/mol|
|  sn=11 | S(rot)=       0.01288322 Eh      8.08 kcal/mol|
|  sn=12 | S(rot)=       0.01280107 Eh      8.03 kcal/mol|
 --------------------------------------------------------


-------------------
GIBBS FREE ENERGY
-------------------

The Gibbs free energy is G = H - T*S

Total enthalpy                    ...   -652.41988130 Eh 
Total entropy correction          ...     -0.06121693 Eh    -38.41 kcal/mol
-----------------------------------------------------------------------
Final Gibbs free energy         ...   -652.48109823 Eh

For completeness - the Gibbs free energy minus the electronic energy
G-E(el)                           ...      0.25789074 Eh    161.83 kcal/mol


Timings for individual modules:

Sum of individual times         ...     1414.638 sec (=  23.577 min)
GTO integral calculation        ...       13.933 sec (=   0.232 min)   1.0 %
SCF iterations                  ...      577.864 sec (=   9.631 min)  40.8 %
SCF Gradient evaluation         ...      171.828 sec (=   2.864 min)  12.1 %
Geometry relaxation             ...        1.033 sec (=   0.017 min)   0.1 %
Analytical frequency calculation...      649.980 sec (=  10.833 min)  45.9 %
                             ****ORCA TERMINATED NORMALLY****
TOTAL RUN TIME: 0 days 0 hours 23 minutes 38 seconds 949 msec
