
                                 *****************
                                 * O   R   C   A *
                                 *****************

                                            #,                                       
                                            ###                                      
                                            ####                                     
                                            #####                                    
                                            ######                                   
                                           ########,                                 
                                     ,,################,,,,,                         
                               ,,#################################,,                 
                          ,,##########################################,,             
                       ,#########################################, ''#####,          
                    ,#############################################,,   '####,        
                  ,##################################################,,,,####,       
                ,###########''''           ''''###############################       
              ,#####''   ,,,,##########,,,,          '''####'''          '####       
            ,##' ,,,,###########################,,,                        '##       
           ' ,,###''''                  '''############,,,                           
         ,,##''                                '''############,,,,        ,,,,,,###''
      ,#''                                            '''#######################'''  
     '                                                          ''''####''''         
             ,#######,   #######,   ,#######,      ##                                
            ,#'     '#,  ##    ##  ,#'     '#,    #''#        ######   ,####,        
            ##       ##  ##   ,#'  ##            #'  '#       #        #'  '#        
            ##       ##  #######   ##           ,######,      #####,   #    #        
            '#,     ,#'  ##    ##  '#,     ,#' ,#      #,         ##   #,  ,#        
             '#######'   ##     ##  '#######'  #'      '#     #####' # '####'        



                  #######################################################
                  #                        -***-                        #
                  #          Department of theory and spectroscopy      #
                  #    Directorship and core code : Frank Neese         #
                  #        Max Planck Institute fuer Kohlenforschung    #
                  #                Kaiser Wilhelm Platz 1               #
                  #                 D-45470 Muelheim/Ruhr               #
                  #                      Germany                        #
                  #                                                     #
                  #                  All rights reserved                #
                  #                        -***-                        #
                  #######################################################


                         Program Version 5.0.4 -  RELEASE  -


 With contributions from (in alphabetic order):
   Daniel Aravena         : Magnetic Suceptibility
   Michael Atanasov       : Ab Initio Ligand Field Theory (pilot matlab implementation)
   Alexander A. Auer      : GIAO ZORA, VPT2 properties, NMR spectrum
   Ute Becker             : Parallelization
   Giovanni Bistoni       : ED, misc. LED, open-shell LED, HFLD
   Martin Brehm           : Molecular dynamics
   Dmytro Bykov           : SCF Hessian
   Vijay G. Chilkuri      : MRCI spin determinant printing, contributions to CSF-ICE
   Dipayan Datta          : RHF DLPNO-CCSD density
   Achintya Kumar Dutta   : EOM-CC, STEOM-CC
   Dmitry Ganyushin       : Spin-Orbit,Spin-Spin,Magnetic field MRCI
   Miquel Garcia          : C-PCM and meta-GGA Hessian, CC/C-PCM, Gaussian charge scheme
   Yang Guo               : DLPNO-NEVPT2, F12-NEVPT2, CIM, IAO-localization
   Andreas Hansen         : Spin unrestricted coupled pair/coupled cluster methods
   Benjamin Helmich-Paris : MC-RPA, TRAH-SCF, COSX integrals
   Lee Huntington         : MR-EOM, pCC
   Robert Izsak           : Overlap fitted RIJCOSX, COSX-SCS-MP3, EOM
   Marcus Kettner         : VPT2
   Christian Kollmar      : KDIIS, OOCD, Brueckner-CCSD(T), CCSD density, CASPT2, CASPT2-K
   Simone Kossmann        : Meta GGA functionals, TD-DFT gradient, OOMP2, MP2 Hessian
   Martin Krupicka        : Initial AUTO-CI
   Lucas Lang             : DCDCAS
   Marvin Lechner         : AUTO-CI (C++ implementation), FIC-MRCC
   Dagmar Lenk            : GEPOL surface, SMD
   Dimitrios Liakos       : Extrapolation schemes; Compound Job, initial MDCI parallelization
   Dimitrios Manganas     : Further ROCIS development; embedding schemes
   Dimitrios Pantazis     : SARC Basis sets
   Anastasios Papadopoulos: AUTO-CI, single reference methods and gradients
   Taras Petrenko         : DFT Hessian,TD-DFT gradient, ASA, ECA, R-Raman, ABS, FL, XAS/XES, NRVS
   Peter Pinski           : DLPNO-MP2, DLPNO-MP2 Gradient
   Christoph Reimann      : Effective Core Potentials
   Marius Retegan         : Local ZFS, SOC
   Christoph Riplinger    : Optimizer, TS searches, QM/MM, DLPNO-CCSD(T), (RO)-DLPNO pert. Triples
   Tobias Risthaus        : Range-separated hybrids, TD-DFT gradient, RPA, STAB
   Michael Roemelt        : Original ROCIS implementation
   Masaaki Saitow         : Open-shell DLPNO-CCSD energy and density
   Barbara Sandhoefer     : DKH picture change effects
   Avijit Sen             : IP-ROCIS
   Kantharuban Sivalingam : CASSCF convergence, NEVPT2, FIC-MRCI
   Bernardo de Souza      : ESD, SOC TD-DFT
   Georgi Stoychev        : AutoAux, RI-MP2 NMR, DLPNO-MP2 response
   Willem Van den Heuvel  : Paramagnetic NMR
   Boris Wezisla          : Elementary symmetry handling
   Frank Wennmohs         : Technical directorship


 We gratefully acknowledge several colleagues who have allowed us to
 interface, adapt or use parts of their codes:
   Stefan Grimme, W. Hujo, H. Kruse, P. Pracht,  : VdW corrections, initial TS optimization,
                  C. Bannwarth, S. Ehlert          DFT functionals, gCP, sTDA/sTD-DF
   Ed Valeev, F. Pavosevic, A. Kumar             : LibInt (2-el integral package), F12 methods
   Garnet Chan, S. Sharma, J. Yang, R. Olivares  : DMRG
   Ulf Ekstrom                                   : XCFun DFT Library
   Mihaly Kallay                                 : mrcc  (arbitrary order and MRCC methods)
   Jiri Pittner, Ondrej Demel                    : Mk-CCSD
   Frank Weinhold                                : gennbo (NPA and NBO analysis)
   Christopher J. Cramer and Donald G. Truhlar   : smd solvation model
   Lars Goerigk                                  : TD-DFT with DH, B97 family of functionals
   V. Asgeirsson, H. Jonsson                     : NEB implementation
   FAccTs GmbH                                   : IRC, NEB, NEB-TS, DLPNO-Multilevel, CI-OPT
                                                   MM, QMMM, 2- and 3-layer-ONIOM, Crystal-QMMM,
                                                   LR-CPCM, SF, NACMEs, symmetry and pop. for TD-DFT,
                                                   nearIR, NL-DFT gradient (VV10), updates on ESD,
                                                   ML-optimized integration grids
   S Lehtola, MJT Oliveira, MAL Marques          : LibXC Library
   Liviu Ungur et al                             : ANISO software


 Your calculation uses the libint2 library for the computation of 2-el integrals
 For citations please refer to: http://libint.valeyev.net

 Your ORCA version has been built with support for libXC version: 5.1.0
 For citations please refer to: https://tddft.org/programs/libxc/

 This ORCA versions uses:
   CBLAS   interface :  Fast vector & matrix operations
   LAPACKE interface :  Fast linear algebra routines
   SCALAPACK package :  Parallel linear algebra routines
   Shared memory     :  Shared parallel matrices
   BLAS/LAPACK       :  OpenBLAS 0.3.15  USE64BITINT DYNAMIC_ARCH NO_AFFINITY SkylakeX SINGLE_THREADED
        Core in use  :  SkylakeX
   Copyright (c) 2011-2014, The OpenBLAS Project




***************************************
The coordinates will be read from file: /users/fjb15167/WWenergy/structures/Nq.xyz
***************************************


Your calculation utilizes the atom-pairwise dispersion correction
based on tight binding partial charges (D4)
Cite in your paper:
E.Caldeweyher, C.Bannwarth, S.Grimme, J.Chem.Phys., (2017), 147, 034112.
E.Caldeweyher, S.Ehlert, A.Hansen, H.Neugebauer, S.Grimme, J.Chem.Phys., (2018), in progress.
   

================================================================================

----- Orbital basis set information -----
Your calculation utilizes the basis: 6-31G(d)
   H-He, Li-Ne : W. J. Hehre, R. Ditchfield and J.A. Pople, J. Chem. Phys. 56, 2257 (1972).
                 Note: He and Ne are unpublished basis sets taken from the Gaussian program.
                 Note: Li and B from J. D. Dill and J. A. Pople, J. Chem. Phys. 62, 2921 (1975).
   Na - Ar     : M. M. Francl, W. J. Pietro, W. J. Hehre, J. S. Binkley, M. S. Gordon, 
                 D. J. DeFrees and J. A. Pople, J. Chem. Phys. 77, 3654 (1982).
   K - Zn      : V. A. Rassolov, J. A. Pople, M. A. Ratner, and T. L. Windus, J. Chem. Phys. 109, 1223 (1998).

----- AuxJ basis set information -----
Your calculation utilizes the AutoAux generation procedure.
  G. L. Stoychev, A. A. Auer, F. Neese, J. Chem. Theory Comput. 13, 554 (2017)

----- AuxC basis set information -----
Your calculation utilizes the AutoAux generation procedure.
  G. L. Stoychev, A. A. Auer, F. Neese, J. Chem. Theory Comput. 13, 554 (2017)

----- AuxJK basis set information -----
Your calculation utilizes the AutoAux generation procedure.
  G. L. Stoychev, A. A. Auer, F. Neese, J. Chem. Theory Comput. 13, 554 (2017)

================================================================================
                                        WARNINGS
                       Please study these warnings very carefully!
================================================================================


WARNING: Geometry Optimization
  ===> : Switching off AutoStart
         For restart on a previous wavefunction, please use MOREAD

INFO   : the flag for use of the SHARK integral package has been found!

================================================================================
                                       INPUT FILE
================================================================================
NAME = Nq_octanol.inp
|  1> ! OPT FREQ B3LYP 6-31G(d) D4 AUTOAUX
|  2> ! CPCM
|  3> 
|  4> %cpcm
|  5> epsilon 9.8629 
|  6> refrac  1.4295 
|  7> end
|  8> 
|  9> %PAL NPROCS 4 END
| 10> 
| 11> %maxcore 3375
| 12> 
| 13> *xyzfile 0 1 /users/fjb15167/WWenergy/structures/Nq.xyz
| 14> 
| 15>                          ****END OF INPUT****
================================================================================

                       *****************************
                       * Geometry Optimization Run *
                       *****************************

Geometry optimization settings:
Update method            Update   .... BFGS
Choice of coordinates    CoordSys .... Z-matrix Internals
Initial Hessian          InHess   .... Almoef's Model

Convergence Tolerances:
Energy Change            TolE     ....  5.0000e-06 Eh
Max. Gradient            TolMAXG  ....  3.0000e-04 Eh/bohr
RMS Gradient             TolRMSG  ....  1.0000e-04 Eh/bohr
Max. Displacement        TolMAXD  ....  4.0000e-03 bohr
RMS Displacement         TolRMSD  ....  2.0000e-03 bohr
Strict Convergence                ....  False
------------------------------------------------------------------------------
                        ORCA OPTIMIZATION COORDINATE SETUP
------------------------------------------------------------------------------

The optimization will be done in new redundant internal coordinates
Making redundant internal coordinates   ...  (new redundants) done
Evaluating the initial hessian          ...  (Almloef) done
Evaluating the coordinates              ...  done
Calculating the B-matrix                .... done
Calculating the G-matrix                .... done
Diagonalizing the G-matrix              .... done
Small eigenvalue found = 4.178e-03
Small eigenvalue found = 6.145e-03
Small eigenvalue found = 1.273e-02
Small eigenvalue found = 1.421e-02
Small eigenvalue found = 2.934e-02
The first mode is                       ....   58
The number of degrees of freedom        ....   90

    -----------------------------------------------------------------
                    Redundant Internal Coordinates


    -----------------------------------------------------------------
         Definition                    Initial Value    Approx d2E/dq
    -----------------------------------------------------------------
      1. B(H   1,C   0)                  1.0923         0.357043   
      2. B(H   2,C   0)                  1.0948         0.353808   
      3. B(H   3,C   0)                  1.0896         0.360646   
      4. B(C   4,C   0)                  1.5306         0.372764   
      5. B(O   5,C   4)                  1.2183         1.051666   
      6. B(N   6,C   4)                  1.3819         0.576552   
      7. B(C   7,N   6)                  1.4580         0.435830   
      8. B(H   8,C   7)                  1.0959         0.352408   
      9. B(H   9,C   7)                  1.0897         0.360442   
     10. B(C  10,N   6)                  1.4589         0.434462   
     11. B(H  11,C  10)                  1.0908         0.358995   
     12. B(H  12,C  10)                  1.0957         0.352701   
     13. B(C  13,C  10)                  1.5341         0.367938   
     14. B(H  14,C  13)                  1.0930         0.356129   
     15. B(H  15,C  13)                  1.0961         0.352128   
     16. B(C  16,C   7)                  1.5253         0.380075   
     17. B(N  17,C  16)                  1.3638         0.616140   
     18. B(O  18,C  16)                  1.2422         0.963256   
     19. B(C  19,N  17)                  1.4555         0.439911   
     20. B(H  20,C  19)                  1.0969         0.351060   
     21. B(H  21,C  19)                  1.0955         0.352854   
     22. B(H  22,C  19)                  1.0876         0.363253   
     23. B(C  23,N  17)                  1.4543         0.441838   
     24. B(H  24,C  23)                  1.0968         0.351190   
     25. B(H  25,C  23)                  1.0885         0.362089   
     26. B(H  26,C  23)                  1.0936         0.355376   
     27. B(C  27,C  13)                  1.5189         0.389084   
     28. B(O  28,C  27)                  1.2328         0.997073   
     29. B(N  29,C  27)                  1.3641         0.615427   
     30. B(H  30,N  29)                  1.0120         0.429540   
     31. B(H  31,N  29)                  1.0092         0.433979   
     32. A(H   1,C   0,C   4)          113.9355         0.323750   
     33. A(H   2,C   0,H   3)          108.6367         0.290105   
     34. A(H   1,C   0,H   2)          107.4471         0.289648   
     35. A(H   1,C   0,H   3)          109.9349         0.290519   
     36. A(H   3,C   0,C   4)          106.5661         0.324284   
     37. A(H   2,C   0,C   4)          110.2320         0.323267   
     38. A(C   0,C   4,O   5)          121.4430         0.432751   
     39. A(O   5,C   4,N   6)          122.9512         0.465292   
     40. A(C   0,C   4,N   6)          115.6057         0.389028   
     41. A(C   4,N   6,C  10)          124.3162         0.397055   
     42. A(C   7,N   6,C  10)          117.0393         0.378150   
     43. A(C   4,N   6,C   7)          118.5615         0.397274   
     44. A(H   8,C   7,C  16)          105.4199         0.324088   
     45. A(N   6,C   7,H   9)          107.8445         0.330720   
     46. A(H   9,C   7,C  16)          113.8270         0.325290   
     47. A(H   8,C   7,H   9)          108.9874         0.289899   
     48. A(N   6,C   7,C  16)          111.0611         0.371856   
     49. A(N   6,C   7,H   8)          109.6358         0.329490   
     50. A(H  12,C  10,C  13)          109.5458         0.322411   
     51. A(H  11,C  10,C  13)          108.8418         0.323347   
     52. A(N   6,C  10,C  13)          113.4038         0.369586   
     53. A(H  11,C  10,H  12)          107.5130         0.289754   
     54. A(N   6,C  10,H  12)          107.4419         0.329364   
     55. A(N   6,C  10,H  11)          109.9270         0.330328   
     56. A(H  14,C  13,H  15)          107.9169         0.289316   
     57. A(H  15,C  13,C  27)          107.0216         0.325295   
     58. A(C  10,C  13,H  15)          109.2495         0.322325   
     59. A(C  10,C  13,H  14)          110.4695         0.322923   
     60. A(H  14,C  13,C  27)          112.2158         0.325900   
     61. A(C  10,C  13,C  27)          109.8516         0.364938   
     62. A(N  17,C  16,O  18)          122.5615         0.463474   
     63. A(C   7,C  16,O  18)          119.1873         0.427471   
     64. A(C   7,C  16,N  17)          118.2222         0.394913   
     65. A(C  16,N  17,C  19)          125.5907         0.402604   
     66. A(C  19,N  17,C  23)          115.2694         0.379867   
     67. A(C  16,N  17,C  23)          118.3959         0.402914   
     68. A(H  21,C  19,H  22)          108.9112         0.290310   
     69. A(H  20,C  19,H  22)          108.4489         0.290078   
     70. A(N  17,C  19,H  22)          112.0277         0.331657   
     71. A(H  20,C  19,H  21)          108.1543         0.288760   
     72. A(N  17,C  19,H  21)          109.1576         0.330067   
     73. A(N  17,C  19,H  20)          110.0557         0.329789   
     74. A(H  25,C  23,H  26)          110.1359         0.290488   
     75. A(H  24,C  23,H  26)          108.6095         0.289099   
     76. A(N  17,C  23,H  26)          109.3471         0.330695   
     77. A(H  24,C  23,H  25)          109.4605         0.289949   
     78. A(N  17,C  23,H  25)          108.5354         0.331721   
     79. A(N  17,C  23,H  24)          110.7479         0.330047   
     80. A(O  28,C  27,N  29)          122.6862         0.466311   
     81. A(C  13,C  27,N  29)          115.6948         0.396459   
     82. A(C  13,C  27,O  28)          121.5701         0.431938   
     83. A(H  30,N  29,H  31)          118.1271         0.303043   
     84. A(C  27,N  29,H  31)          121.3250         0.358396   
     85. A(C  27,N  29,H  30)          117.3195         0.357770   
     86. D(O   5,C   4,C   0,H   2)    105.2090         0.010395   
     87. D(O   5,C   4,C   0,H   3)    -12.4990         0.010395   
     88. D(N   6,C   4,C   0,H   1)     46.0381         0.010395   
     89. D(N   6,C   4,C   0,H   2)    -74.8393         0.010395   
     90. D(N   6,C   4,C   0,H   3)    167.4528         0.010395   
     91. D(O   5,C   4,C   0,H   1)   -133.9136         0.010395   
     92. D(C   7,N   6,C   4,C   0)    175.8472         0.026641   
     93. D(C  10,N   6,C   4,C   0)     -0.7352         0.026641   
     94. D(C   7,N   6,C   4,O   5)     -4.2019         0.026641   
     95. D(C  10,N   6,C   4,O   5)    179.2158         0.026641   
     96. D(C  16,C   7,N   6,C   4)    123.8866         0.016195   
     97. D(H   9,C   7,N   6,C   4)     -1.4755         0.016195   
     98. D(H   8,C   7,N   6,C  10)     56.8160         0.016195   
     99. D(H   9,C   7,N   6,C  10)    175.3555         0.016195   
    100. D(H   8,C   7,N   6,C   4)   -120.0151         0.016195   
    101. D(C  16,C   7,N   6,C  10)    -59.2823         0.016195   
    102. D(C  13,C  10,N   6,C   7)     90.2757         0.016094   
    103. D(C  13,C  10,N   6,C   4)    -93.0943         0.016094   
    104. D(H  12,C  10,N   6,C   7)    -30.9296         0.016094   
    105. D(H  12,C  10,N   6,C   4)    145.7003         0.016094   
    106. D(H  11,C  10,N   6,C   7)   -147.6358         0.016094   
    107. D(H  11,C  10,N   6,C   4)     28.9942         0.016094   
    108. D(C  27,C  13,C  10,H  11)     35.8814         0.010830   
    109. D(C  27,C  13,C  10,N   6)    158.5719         0.010830   
    110. D(H  15,C  13,C  10,H  12)    161.4755         0.010830   
    111. D(H  15,C  13,C  10,H  11)    -81.2308         0.010830   
    112. D(H  15,C  13,C  10,N   6)     41.4597         0.010830   
    113. D(H  14,C  13,C  10,H  12)     42.9098         0.010830   
    114. D(H  14,C  13,C  10,H  11)    160.2035         0.010830   
    115. D(C  27,C  13,C  10,H  12)    -81.4123         0.010830   
    116. D(H  14,C  13,C  10,N   6)    -77.1061         0.010830   
    117. D(O  18,C  16,C   7,H   9)   -138.8669         0.010779   
    118. D(O  18,C  16,C   7,H   8)    -19.4762         0.010779   
    119. D(O  18,C  16,C   7,N   6)     99.1934         0.010779   
    120. D(N  17,C  16,C   7,H   9)     43.0383         0.010779   
    121. D(N  17,C  16,C   7,H   8)    162.4290         0.010779   
    122. D(N  17,C  16,C   7,N   6)    -78.9015         0.010779   
    123. D(C  23,N  17,C  16,O  18)     -1.7023         0.030711   
    124. D(C  23,N  17,C  16,C   7)    176.3242         0.030711   
    125. D(C  19,N  17,C  16,O  18)   -171.3226         0.030711   
    126. D(C  19,N  17,C  16,C   7)      6.7039         0.030711   
    127. D(H  22,C  19,N  17,C  16)    -12.4552         0.016502   
    128. D(H  21,C  19,N  17,C  23)     56.9298         0.016502   
    129. D(H  21,C  19,N  17,C  16)   -133.1642         0.016502   
    130. D(H  20,C  19,N  17,C  23)    -61.6227         0.016502   
    131. D(H  22,C  19,N  17,C  23)    177.6389         0.016502   
    132. D(H  20,C  19,N  17,C  16)    108.2833         0.016502   
    133. D(H  26,C  23,N  17,C  19)    -52.6817         0.016648   
    134. D(H  26,C  23,N  17,C  16)    136.6423         0.016648   
    135. D(H  25,C  23,N  17,C  19)   -172.8497         0.016648   
    136. D(H  25,C  23,N  17,C  16)     16.4743         0.016648   
    137. D(H  24,C  23,N  17,C  19)     66.9671         0.016648   
    138. D(H  24,C  23,N  17,C  16)   -103.7089         0.016648   
    139. D(N  29,C  27,C  13,H  14)     11.6901         0.011266   
    140. D(N  29,C  27,C  13,C  10)    134.9933         0.011266   
    141. D(O  28,C  27,C  13,H  15)     71.0126         0.011266   
    142. D(O  28,C  27,C  13,H  14)   -170.7867         0.011266   
    143. D(N  29,C  27,C  13,H  15)   -106.5106         0.011266   
    144. D(O  28,C  27,C  13,C  10)    -47.4835         0.011266   
    145. D(H  31,N  29,C  27,O  28)    167.0443         0.030634   
    146. D(H  31,N  29,C  27,C  13)    -15.4630         0.030634   
    147. D(H  30,N  29,C  27,O  28)      7.7279         0.030634   
    148. D(H  30,N  29,C  27,C  13)   -174.7793         0.030634   
    -----------------------------------------------------------------

Number of atoms                         .... 32
Number of degrees of freedom            .... 148

         *************************************************************
         *                GEOMETRY OPTIMIZATION CYCLE   1            *
         *************************************************************
---------------------------------
CARTESIAN COORDINATES (ANGSTROEM)
---------------------------------
  C     -1.175000    2.741000   -0.057000
  H     -1.791000    1.976000    0.421000
  H     -1.653000    3.001000   -1.007000
  H     -1.137000    3.632000    0.569000
  C      0.275000    2.312000   -0.294000
  O      1.208000    3.044000   -0.015000
  N      0.444000    1.053000   -0.838000
  C      1.793000    0.615000   -1.176000
  H      1.851000    0.395000   -2.248000
  H      2.477000    1.431000   -0.944000
  C     -0.650000    0.146000   -1.168000
  H     -1.544000    0.718000   -1.420000
  H     -0.354000   -0.414000   -2.062000
  C     -0.991000   -0.834000   -0.038000
  H     -0.256000   -1.642000    0.002000
  H     -0.962000   -0.304000    0.921000
  C      2.136000   -0.695000   -0.474000
  N      2.498000   -0.647000    0.840000
  O      2.042000   -1.762000   -1.103000
  C      2.458000    0.536000    1.687000
  H      1.642000    0.450000    2.415000
  H      3.401000    0.615000    2.239000
  H      2.310000    1.446000    1.110000
  C      2.747000   -1.900000    1.535000
  H      1.905000   -2.155000    2.190000
  H      2.881000   -2.686000    0.794000
  H      3.648000   -1.802000    2.147000
  C     -2.407000   -1.354000   -0.216000
  O     -3.349000   -0.594000   -0.450000
  N     -2.569000   -2.698000   -0.048000
  H     -3.485000   -3.083000   -0.240000
  H     -1.779000   -3.326000   -0.050000

----------------------------
CARTESIAN COORDINATES (A.U.)
----------------------------
  NO LB      ZA    FRAG     MASS         X           Y           Z
   0 C     6.0000    0    12.011   -2.220428    5.179739   -0.107714
   1 H     1.0000    0     1.008   -3.384500    3.734099    0.795575
   2 H     1.0000    0     1.008   -3.123717    5.671068   -1.902954
   3 H     1.0000    0     1.008   -2.148619    6.863485    1.075254
   4 C     6.0000    0    12.011    0.519675    4.369047   -0.555579
   5 O     8.0000    0    15.999    2.282789    5.752326   -0.028346
   6 N     7.0000    0    14.007    0.839038    1.989882   -1.583591
   7 C     6.0000    0    12.011    3.388279    1.162182   -2.222318
   8 H     1.0000    0     1.008    3.497883    0.746442   -4.248104
   9 H     1.0000    0     1.008    4.680852    2.704198   -1.783901
  10 C     6.0000    0    12.011   -1.228322    0.275900   -2.207200
  11 H     1.0000    0     1.008   -2.917737    1.356823   -2.683411
  12 H     1.0000    0     1.008   -0.668963   -0.782347   -3.896615
  13 C     6.0000    0    12.011   -1.872719   -1.576032   -0.071810
  14 H     1.0000    0     1.008   -0.483770   -3.102930    0.003779
  15 H     1.0000    0     1.008   -1.817917   -0.574477    1.740438
  16 C     6.0000    0    12.011    4.036455   -1.313360   -0.895730
  17 N     7.0000    0    14.007    4.720536   -1.222653    1.587370
  18 O     8.0000    0    15.999    3.858821   -3.329697   -2.084368
  19 C     6.0000    0    12.011    4.644947    1.012893    3.187968
  20 H     1.0000    0     1.008    3.102930    0.850377    4.563689
  21 H     1.0000    0     1.008    6.426959    1.162182    4.231097
  22 H     1.0000    0     1.008    4.365267    2.732544    2.097596
  23 C     6.0000    0    12.011    5.191078   -3.590480    2.900730
  24 H     1.0000    0     1.008    3.599928   -4.072360    4.138500
  25 H     1.0000    0     1.008    5.444301   -5.075804    1.500443
  26 H     1.0000    0     1.008    6.893721   -3.405286    4.057242
  27 C     6.0000    0    12.011   -4.548571   -2.558689   -0.408181
  28 O     8.0000    0    15.999   -6.328693   -1.122497   -0.850377
  29 N     7.0000    0    14.007   -4.854706   -5.098481   -0.090707
  30 H     1.0000    0     1.008   -6.585696   -5.826026   -0.453534
  31 H     1.0000    0     1.008   -3.361823   -6.285229   -0.094486

--------------------------------
INTERNAL COORDINATES (ANGSTROEM)
--------------------------------
 C      0   0   0     0.000000000000     0.00000000     0.00000000
 H      1   0   0     1.092320923538     0.00000000     0.00000000
 H      1   2   0     1.094798611618   107.44708491     0.00000000
 H      1   2   3     1.089587536639   109.93493684   118.05469566
 C      1   2   3     1.530591388974   113.93546463   237.58078161
 O      5   1   2     1.218258593239   121.44303647   226.08636556
 N      5   1   2     1.381874813433   115.60572583    46.03811749
 C      7   5   1     1.458042866311   118.56149604   175.84715856
 H      8   7   5     1.095877730406   109.63582849   239.98489402
 H      8   7   5     1.089741253693   107.84454272   358.52446679
 C      7   5   1     1.458898557131   124.31616879   359.26481157
 H     11   7   5     1.090836376364   109.92700799    28.99418066
 H     11   7   5     1.095651404417   107.44192446   145.70031765
 C     11   7   5     1.534138520473   113.40380660   266.90566400
 H     14  11   7     1.093018298108   110.46946057   282.89389117
 H     14  11   7     1.096093974073   109.24950926    41.45967433
 C      8   7   5     1.525304231948   111.06114815   123.88658085
 N     17   8   7     1.363797638948   118.22222055   281.09854350
 O     17   8   7     1.242161825206   119.18734412    99.19336253
 C     18  17   8     1.455506097548   125.59072535     6.70391788
 H     20  18  17     1.096921145753   110.05565419   108.28327173
 H     20  18  17     1.095533659912   109.15757151   226.83580982
 H     20  18  17     1.087627233936   112.02774758   347.54483504
 C     18  17   8     1.454315990423   118.39587566   176.32421267
 H     24  18  17     1.096819948761   110.74786018   256.29113500
 H     24  18  17     1.088500344511   108.53543280    16.47430252
 H     24  18  17     1.093594531808   109.34712165   136.64234053
 C     14  11   7     1.518927253031   109.85158726   158.57187205
 O     28  14  11     1.232769240369   121.57008995   312.51651288
 N     28  14  11     1.364112898553   115.69482817   134.99328516
 H     30  28  14     1.012000494071   117.31953064   185.22065003
 H     30  28  14     1.009201664684   121.32495257   344.53704407

---------------------------
INTERNAL COORDINATES (A.U.)
---------------------------
 C      0   0   0     0.000000000000     0.00000000     0.00000000
 H      1   0   0     2.064187395840     0.00000000     0.00000000
 H      1   2   0     2.068869547755   107.44708491     0.00000000
 H      1   2   3     2.059022043182   109.93493684   118.05469566
 C      1   2   3     2.892398548098   113.93546463   237.58078161
 O      5   1   2     2.302175101517   121.44303647   226.08636556
 N      5   1   2     2.611364948752   115.60572583    46.03811749
 C      7   5   1     2.755301708845   118.56149604   175.84715856
 H      8   7   5     2.070908786731   109.63582849   239.98489402
 H      8   7   5     2.059312526315   107.84454272   358.52446679
 C      7   5   1     2.756918730151   124.31616879   359.26481157
 H     11   7   5     2.061382008248   109.92700799    28.99418066
 H     11   7   5     2.070481092594   107.44192446   145.70031765
 C     11   7   5     2.899101655194   113.40380660   266.90566400
 H     14  11   7     2.065505242790   110.46946057   282.89389117
 H     14  11   7     2.071317428040   109.24950926    41.45967433
 C      8   7   5     2.882407269294   111.06114815   123.88658085
 N     17   8   7     2.577204039700   118.22222055   281.09854350
 O     17   8   7     2.347345663652   119.18734412    99.19336253
 C     18  17   8     2.750507910619   125.59072535     6.70391788
 H     20  18  17     2.072880555980   110.05565419   108.28327173
 H     20  18  17     2.070258587726   109.15757151   226.83580982
 H     20  18  17     2.055317607934   112.02774758   347.54483504
 C     18  17   8     2.748258934082   118.39587566   176.32421267
 H     24  18  17     2.072689321380   110.74786018   256.29113500
 H     24  18  17     2.056967547804   108.53543280    16.47430252
 H     24  18  17     2.066594166671   109.34712165   136.64234053
 C     14  11   7     2.870356525578   109.85158726   158.57187205
 O     28  14  11     2.329596250620   121.57008995   312.51651288
 N     28  14  11     2.577799794016   115.69482817   134.99328516
 H     30  28  14     1.912403781187   117.31953064   185.22065003
 H     30  28  14     1.907114760149   121.32495257   344.53704407

---------------------
BASIS SET INFORMATION
---------------------
There are 4 groups of distinct atoms

 Group   1 Type C   : 10s4p1d contracted to 3s2p1d pattern {631/31/1}
 Group   2 Type H   : 4s contracted to 2s pattern {31}
 Group   3 Type O   : 10s4p1d contracted to 3s2p1d pattern {631/31/1}
 Group   4 Type N   : 10s4p1d contracted to 3s2p1d pattern {631/31/1}

Atom   0C    basis set group =>   1
Atom   1H    basis set group =>   2
Atom   2H    basis set group =>   2
Atom   3H    basis set group =>   2
Atom   4C    basis set group =>   1
Atom   5O    basis set group =>   3
Atom   6N    basis set group =>   4
Atom   7C    basis set group =>   1
Atom   8H    basis set group =>   2
Atom   9H    basis set group =>   2
Atom  10C    basis set group =>   1
Atom  11H    basis set group =>   2
Atom  12H    basis set group =>   2
Atom  13C    basis set group =>   1
Atom  14H    basis set group =>   2
Atom  15H    basis set group =>   2
Atom  16C    basis set group =>   1
Atom  17N    basis set group =>   4
Atom  18O    basis set group =>   3
Atom  19C    basis set group =>   1
Atom  20H    basis set group =>   2
Atom  21H    basis set group =>   2
Atom  22H    basis set group =>   2
Atom  23C    basis set group =>   1
Atom  24H    basis set group =>   2
Atom  25H    basis set group =>   2
Atom  26H    basis set group =>   2
Atom  27C    basis set group =>   1
Atom  28O    basis set group =>   3
Atom  29N    basis set group =>   4
Atom  30H    basis set group =>   2
Atom  31H    basis set group =>   2
---------------------------------
AUXILIARY/J BASIS SET INFORMATION
---------------------------------
There are 4 groups of distinct atoms

 Group   1 Type C   : 13s11p10d2f contracted to 13s11p10d2f pattern {1111111111111/11111111111/1111111111/11}
 Group   2 Type H   : 9s2p contracted to 9s2p pattern {111111111/11}
 Group   3 Type O   : 14s11p10d2f contracted to 14s11p10d2f pattern {11111111111111/11111111111/1111111111/11}
 Group   4 Type N   : 14s11p10d2f contracted to 14s11p10d2f pattern {11111111111111/11111111111/1111111111/11}

Atom   0C    basis set group =>   1
Atom   1H    basis set group =>   2
Atom   2H    basis set group =>   2
Atom   3H    basis set group =>   2
Atom   4C    basis set group =>   1
Atom   5O    basis set group =>   3
Atom   6N    basis set group =>   4
Atom   7C    basis set group =>   1
Atom   8H    basis set group =>   2
Atom   9H    basis set group =>   2
Atom  10C    basis set group =>   1
Atom  11H    basis set group =>   2
Atom  12H    basis set group =>   2
Atom  13C    basis set group =>   1
Atom  14H    basis set group =>   2
Atom  15H    basis set group =>   2
Atom  16C    basis set group =>   1
Atom  17N    basis set group =>   4
Atom  18O    basis set group =>   3
Atom  19C    basis set group =>   1
Atom  20H    basis set group =>   2
Atom  21H    basis set group =>   2
Atom  22H    basis set group =>   2
Atom  23C    basis set group =>   1
Atom  24H    basis set group =>   2
Atom  25H    basis set group =>   2
Atom  26H    basis set group =>   2
Atom  27C    basis set group =>   1
Atom  28O    basis set group =>   3
Atom  29N    basis set group =>   4
Atom  30H    basis set group =>   2
Atom  31H    basis set group =>   2
---------------------------------
AUXILIARY/C BASIS SET INFORMATION
---------------------------------
There are 4 groups of distinct atoms

 Group   1 Type C   : 13s11p10d2f contracted to 13s11p10d2f pattern {1111111111111/11111111111/1111111111/11}
 Group   2 Type H   : 9s2p contracted to 9s2p pattern {111111111/11}
 Group   3 Type O   : 14s11p10d2f contracted to 14s11p10d2f pattern {11111111111111/11111111111/1111111111/11}
 Group   4 Type N   : 14s11p10d2f contracted to 14s11p10d2f pattern {11111111111111/11111111111/1111111111/11}

Atom   0C    basis set group =>   1
Atom   1H    basis set group =>   2
Atom   2H    basis set group =>   2
Atom   3H    basis set group =>   2
Atom   4C    basis set group =>   1
Atom   5O    basis set group =>   3
Atom   6N    basis set group =>   4
Atom   7C    basis set group =>   1
Atom   8H    basis set group =>   2
Atom   9H    basis set group =>   2
Atom  10C    basis set group =>   1
Atom  11H    basis set group =>   2
Atom  12H    basis set group =>   2
Atom  13C    basis set group =>   1
Atom  14H    basis set group =>   2
Atom  15H    basis set group =>   2
Atom  16C    basis set group =>   1
Atom  17N    basis set group =>   4
Atom  18O    basis set group =>   3
Atom  19C    basis set group =>   1
Atom  20H    basis set group =>   2
Atom  21H    basis set group =>   2
Atom  22H    basis set group =>   2
Atom  23C    basis set group =>   1
Atom  24H    basis set group =>   2
Atom  25H    basis set group =>   2
Atom  26H    basis set group =>   2
Atom  27C    basis set group =>   1
Atom  28O    basis set group =>   3
Atom  29N    basis set group =>   4
Atom  30H    basis set group =>   2
Atom  31H    basis set group =>   2
----------------------------------
AUXILIARY/JK BASIS SET INFORMATION
----------------------------------
There are 4 groups of distinct atoms

 Group   1 Type C   : 13s11p10d2f contracted to 13s11p10d2f pattern {1111111111111/11111111111/1111111111/11}
 Group   2 Type H   : 9s2p contracted to 9s2p pattern {111111111/11}
 Group   3 Type O   : 14s11p10d2f contracted to 14s11p10d2f pattern {11111111111111/11111111111/1111111111/11}
 Group   4 Type N   : 14s11p10d2f contracted to 14s11p10d2f pattern {11111111111111/11111111111/1111111111/11}

Atom   0C    basis set group =>   1
Atom   1H    basis set group =>   2
Atom   2H    basis set group =>   2
Atom   3H    basis set group =>   2
Atom   4C    basis set group =>   1
Atom   5O    basis set group =>   3
Atom   6N    basis set group =>   4
Atom   7C    basis set group =>   1
Atom   8H    basis set group =>   2
Atom   9H    basis set group =>   2
Atom  10C    basis set group =>   1
Atom  11H    basis set group =>   2
Atom  12H    basis set group =>   2
Atom  13C    basis set group =>   1
Atom  14H    basis set group =>   2
Atom  15H    basis set group =>   2
Atom  16C    basis set group =>   1
Atom  17N    basis set group =>   4
Atom  18O    basis set group =>   3
Atom  19C    basis set group =>   1
Atom  20H    basis set group =>   2
Atom  21H    basis set group =>   2
Atom  22H    basis set group =>   2
Atom  23C    basis set group =>   1
Atom  24H    basis set group =>   2
Atom  25H    basis set group =>   2
Atom  26H    basis set group =>   2
Atom  27C    basis set group =>   1
Atom  28O    basis set group =>   3
Atom  29N    basis set group =>   4
Atom  30H    basis set group =>   2
Atom  31H    basis set group =>   2


           ************************************************************
           *        Program running with 4 parallel MPI-processes     *
           *              working on a common directory               *
           ************************************************************
------------------------------------------------------------------------------
                           ORCA GTO INTEGRAL CALCULATION
                           -- RI-GTO INTEGRALS CHOSEN --
------------------------------------------------------------------------------
------------------------------------------------------------------------------
                   ___                                                        
                  /   \      - P O W E R E D   B Y -                         
                 /     \                                                     
                 |  |  |   _    _      __       _____    __    __             
                 |  |  |  | |  | |    /  \     |  _  \  |  |  /  |          
                  \  \/   | |  | |   /    \    | | | |  |  | /  /          
                 / \  \   | |__| |  /  /\  \   | |_| |  |  |/  /          
                |  |  |   |  __  | /  /__\  \  |    /   |      \           
                |  |  |   | |  | | |   __   |  |    \   |  |\   \          
                \     /   | |  | | |  |  |  |  | |\  \  |  | \   \       
                 \___/    |_|  |_| |__|  |__|  |_| \__\ |__|  \__/        
                                                                              
                      - O R C A' S   B I G   F R I E N D -                    
                                      &                                       
                       - I N T E G R A L  F E E D E R -                       
                                                                              
 v1 FN, 2020, v2 2021                                                         
------------------------------------------------------------------------------


Reading SHARK input file Nq_octanol.SHARKINP.tmp ... ok
----------------------
SHARK INTEGRAL PACKAGE
----------------------

Number of atoms                             ...     32
Number of basis functions                   ...    244
Number of shells                            ...    124
Maximum angular momentum                    ...      2
Integral batch strategy                     ... SHARK/LIBINT Hybrid
RI-J (if used) integral strategy            ... SPLIT-RIJ (Revised 2003 algorithm where possible)
Printlevel                                  ...      1
Contraction scheme used                     ... SEGMENTED contraction
Coulomb Range Separation                    ... NOT USED
Exchange Range Separation                   ... NOT USED
Finite Nucleus Model                        ... NOT USED
Auxiliary Coulomb fitting basis             ... AVAILABLE
   # of basis functions in Aux-J            ...   1911
   # of shells in Aux-J                     ...    733
   Maximum angular momentum in Aux-J        ...      3
Auxiliary J/K fitting basis                 ... AVAILABLE
   # of basis functions in Aux-JK           ...   1911
   # of shells in Aux-JK                    ...    733
   Maximum angular momentum in Aux-JK       ...      3
Auxiliary Correlation fitting basis         ... AVAILABLE
   # of basis functions in Aux-C            ...   1911
   # of shells in Aux-C                     ...    733
   Maximum angular momentum in Aux-C        ...      3
Auxiliary 'external' fitting basis          ... NOT available
Integral threshold                          ...     2.500000e-11
Primitive cut-off                           ...     2.500000e-12
Primitive pair pre-selection threshold      ...     2.500000e-12

Calculating pre-screening integrals         ... done (  0.0 sec) Dimension = 124
Organizing shell pair data                  ... done (  0.0 sec)
Shell pair information
Total number of shell pairs                 ...      7750
Shell pairs after pre-screening             ...      6598
Total number of primitive shell pairs       ...     43437
Primitive shell pairs kept                  ...     21520
          la=0 lb=0:   2617 shell pairs
          la=1 lb=0:   2118 shell pairs
          la=1 lb=1:    440 shell pairs
          la=2 lb=0:    935 shell pairs
          la=2 lb=1:    394 shell pairs
          la=2 lb=2:     94 shell pairs

Calculating one electron integrals          ... done (  0.0 sec)
Calculating RI/J V-Matrix + Cholesky decomp.... done (  0.6 sec)
Calculating RI/JK V-Matrix + Cholesky decomp... done (  0.2 sec)
Calculating RI/C V-Matrix + Cholesky decomp.... done (  0.2 sec)
Calculating Nuclear repulsion               ... done (  0.0 sec) ENN=   1087.461486778013 Eh

SHARK setup successfully completed in   1.6 seconds

Maximum memory used throughout the entire GTOINT-calculation: 32.4 MB


           ************************************************************
           *        Program running with 4 parallel MPI-processes     *
           *              working on a common directory               *
           ************************************************************
-------------------------------------------------------------------------------
                                 ORCA SCF
-------------------------------------------------------------------------------

------------
SCF SETTINGS
------------
Hamiltonian:
 Density Functional     Method          .... DFT(GTOs)
 Exchange Functional    Exchange        .... B88
   X-Alpha parameter    XAlpha          ....  0.666667
   Becke's b parameter  XBeta           ....  0.004200
 Correlation Functional Correlation     .... LYP
 LDA part of GGA corr.  LDAOpt          .... VWN-5
 Gradients option       PostSCFGGA      .... off
 Hybrid DFT is turned on
   Fraction HF Exchange ScalHFX         ....  0.200000
   Scaling of DF-GGA-X  ScalDFX         ....  0.720000
   Scaling of DF-GGA-C  ScalDFC         ....  0.810000
   Scaling of DF-LDA-C  ScalLDAC        ....  1.000000
   Perturbative correction              ....  0.000000
   Density functional embedding theory  .... OFF
   NL short-range parameter             ....  4.800000
 RI-approximation to the Coulomb term is turned on
   Number of AuxJ basis functions       .... 1911
   RIJ-COSX (HFX calculated with COS-X)).... on


General Settings:
 Integral files         IntName         .... Nq_octanol
 Hartree-Fock type      HFTyp           .... RHF
 Total Charge           Charge          ....    0
 Multiplicity           Mult            ....    1
 Number of Electrons    NEL             ....  116
 Basis Dimension        Dim             ....  244
 Nuclear Repulsion      ENuc            ....   1087.4614867780 Eh

Convergence Acceleration:
 DIIS                   CNVDIIS         .... on
   Start iteration      DIISMaxIt       ....    12
   Startup error        DIISStart       ....  0.200000
   # of expansion vecs  DIISMaxEq       ....     5
   Bias factor          DIISBfac        ....   1.050
   Max. coefficient     DIISMaxC        ....  10.000
 Trust-Rad. Augm. Hess. CNVTRAH         .... auto
   Auto Start mean grad. ratio tolernc. ....  1.125000
   Auto Start start iteration           ....    20
   Auto Start num. interpolation iter.  ....    10
   Max. Number of Micro iterations      ....    16
   Max. Number of Macro iterations      .... Maxiter - #DIIS iter
   Number of Davidson start vectors     ....     2
   Converg. threshold I  (grad. norm)   ....   1.000e-05
   Converg. threshold II (energy diff.) ....   1.000e-08
   Grad. Scal. Fac. for Micro threshold ....   0.100
   Minimum threshold for Micro iter.    ....   0.010
   NR start threshold (gradient norm)   ....   0.001
   Initial trust radius                 ....   0.400
   Minimum AH scaling param. (alpha)    ....   1.000
   Maximum AH scaling param. (alpha)    .... 1000.000
   Orbital update algorithm             .... Taylor
   White noise on init. David. guess    .... on
   Maximum white noise                  ....   0.010
   Quad. conv. algorithm                .... NR
 SOSCF                  CNVSOSCF        .... on
   Start iteration      SOSCFMaxIt      ....   150
   Startup grad/error   SOSCFStart      ....  0.003300
 Level Shifting         CNVShift        .... on
   Level shift para.    LevelShift      ....    0.2500
   Turn off err/grad.   ShiftErr        ....    0.0010
 Zerner damping         CNVZerner       .... off
 Static damping         CNVDamp         .... on
   Fraction old density DampFac         ....    0.7000
   Max. Damping (<1)    DampMax         ....    0.9800
   Min. Damping (>=0)   DampMin         ....    0.0000
   Turn off err/grad.   DampErr         ....    0.1000
 Fernandez-Rico         CNVRico         .... off

SCF Procedure:
 Maximum # iterations   MaxIter         ....   125
 SCF integral mode      SCFMode         .... Direct
   Integral package                     .... SHARK and LIBINT hybrid scheme
 Reset frequency        DirectResetFreq ....    20
 Integral Threshold     Thresh          ....  2.500e-11 Eh
 Primitive CutOff       TCut            ....  2.500e-12 Eh

Convergence Tolerance:
 Convergence Check Mode ConvCheckMode   .... Total+1el-Energy
 Convergence forced     ConvForced      .... 0
 Energy Change          TolE            ....  1.000e-08 Eh
 1-El. energy change                    ....  1.000e-05 Eh
 Orbital Gradient       TolG            ....  1.000e-05
 Orbital Rotation angle TolX            ....  1.000e-05
 DIIS Error             TolErr          ....  5.000e-07


Diagonalization of the overlap matrix:
Smallest eigenvalue                        ... 2.790e-03
Time for diagonalization                   ...    0.008 sec
Threshold for overlap eigenvalues          ... 1.000e-08
Number of eigenvalues below threshold      ... 0
Time for construction of square roots      ...    0.004 sec
Total time needed                          ...    0.013 sec

Time for model grid setup =    0.353 sec

------------------------------
INITIAL GUESS: MODEL POTENTIAL
------------------------------
Loading Hartree-Fock densities                     ... done
Calculating cut-offs                               ... done
Initializing the effective Hamiltonian             ... done
Setting up the integral package (SHARK)            ... done
Starting the Coulomb interaction                   ... done (   0.4 sec)
Reading the grid                                   ... done
Mapping shells                                     ... done
Starting the XC term evaluation                    ... done (   0.1 sec)
  promolecular density results
     # of electrons  =    115.997625680
     EX              =    -95.672647301
     EC              =     -3.948673275
     EX+EC           =    -99.621320575
Transforming the Hamiltonian                       ... done (   0.0 sec)
Diagonalizing the Hamiltonian                      ... done (   0.0 sec)
Back transforming the eigenvectors                 ... done (   0.0 sec)
Now organizing SCF variables                       ... done
                      ------------------
                      INITIAL GUESS DONE (   1.0 sec)
                      ------------------
-------------------
DFT GRID GENERATION
-------------------

General Integration Accuracy     IntAcc      ... 4.388
Radial Grid Type                 RadialGrid  ... OptM3 with GC (2021)
Angular Grid (max. ang.)         AngularGrid ... 4 (Lebedev-302)
Angular grid pruning method      GridPruning ... 4 (adaptive)
Weight generation scheme         WeightScheme... Becke
Basis function cutoff            BFCut       ... 1.0000e-11
Integration weight cutoff        WCut        ... 1.0000e-14
Angular grids for H and He will be reduced by one unit
Partially contracted basis set               ... off
Rotationally invariant grid construction     ... off

Total number of grid points                  ...   143864
Total number of batches                      ...     2266
Average number of points per batch           ...       63
Average number of grid points per atom       ...     4496
Time for grid setup =    0.991 sec

--------------------
COSX GRID GENERATION
--------------------

GRIDX 1
-------
General Integration Accuracy     IntAcc      ... 3.816
Radial Grid Type                 RadialGrid  ... OptM3 with GC (2021)
Angular Grid (max. ang.)         AngularGrid ... 1 (Lebedev-50)
Angular grid pruning method      GridPruning ... 4 (adaptive)
Weight generation scheme         WeightScheme... Becke
Basis function cutoff            BFCut       ... 1.0000e-11
Integration weight cutoff        WCut        ... 1.0000e-14
Angular grids for H and He will be reduced by one unit
Partially contracted basis set               ... on
Rotationally invariant grid construction     ... off

Total number of grid points                  ...    18312
Total number of batches                      ...      306
Average number of points per batch           ...       59
Average number of grid points per atom       ...      572
UseSFitting                                  ... on

GRIDX 2
-------
General Integration Accuracy     IntAcc      ... 4.020
Radial Grid Type                 RadialGrid  ... OptM3 with GC (2021)
Angular Grid (max. ang.)         AngularGrid ... 2 (Lebedev-110)
Angular grid pruning method      GridPruning ... 4 (adaptive)
Weight generation scheme         WeightScheme... Becke
Basis function cutoff            BFCut       ... 1.0000e-11
Integration weight cutoff        WCut        ... 1.0000e-14
Angular grids for H and He will be reduced by one unit
Partially contracted basis set               ... on
Rotationally invariant grid construction     ... off

Total number of grid points                  ...    38997
Total number of batches                      ...      625
Average number of points per batch           ...       62
Average number of grid points per atom       ...     1219
UseSFitting                                  ... on

GRIDX 3
-------
General Integration Accuracy     IntAcc      ... 4.338
Radial Grid Type                 RadialGrid  ... OptM3 with GC (2021)
Angular Grid (max. ang.)         AngularGrid ... 3 (Lebedev-194)
Angular grid pruning method      GridPruning ... 4 (adaptive)
Weight generation scheme         WeightScheme... Becke
Basis function cutoff            BFCut       ... 1.0000e-11
Integration weight cutoff        WCut        ... 1.0000e-14
Angular grids for H and He will be reduced by one unit
Partially contracted basis set               ... on
Rotationally invariant grid construction     ... off

Total number of grid points                  ...    85009
Total number of batches                      ...     1348
Average number of points per batch           ...       63
Average number of grid points per atom       ...     2657
UseSFitting                                  ... on

Time for X-Grid setup             =    1.090 sec


--------------------
CPCM SOLVATION MODEL
--------------------
CPCM parameters:
  Epsilon                                         ...       9.8629
  Refrac                                          ...       1.4295
  Rsolv                                           ...       1.3000
  Surface type                                    ... GAUSSIAN VDW
  Epsilon function type                           ...         CPCM
Radii:
 Radius for C  used is    3.8550 Bohr (=   2.0400 Ang.)
 Radius for H  used is    2.4944 Bohr (=   1.3200 Ang.)
 Radius for O  used is    3.4469 Bohr (=   1.8240 Ang.)
 Radius for N  used is    3.5149 Bohr (=   1.8600 Ang.)
Calculating surface                               ...        done! (  0.0s)
GEPOL surface points                              ...         1691
GEPOL Volume                                      ...    1781.5363
GEPOL Surface-area                                ...     953.1009
Calculating surface distance matrix               ...        done! (  0.0s)
Performing Cholesky decomposition & store         ...        done! (  0.1s)
Overall time for CPCM initialization              ...                 0.1s
--------------
SCF ITERATIONS
--------------
ITER       Energy         Delta-E        Max-DP      RMS-DP      [F,P]     Damp
               ***  Starting incremental Fock matrix formation  ***
  0   -742.2407893590   0.000000000000 0.09923168  0.00227282  0.2785391 0.7000
  1   -742.4759215144  -0.235132155377 0.05811786  0.00147219  0.1146740 0.7000
                               ***Turning on DIIS***
  2   -742.5629409242  -0.087019409830 0.07076079  0.00218832  0.0407444 0.0000
  3   -742.7064860765  -0.143545152295 0.03737985  0.00099523  0.0568901 0.0000
  4   -742.7344941918  -0.028008115279 0.00893767  0.00031451  0.0126457 0.0000
  5   -742.7365114093  -0.002017217588 0.00311854  0.00009561  0.0043173 0.0000
                      *** Initiating the SOSCF procedure ***
                           *** Shutting down DIIS ***
                      *** Re-Reading the Fockian *** 
                      *** Removing any level shift *** 
ITER      Energy       Delta-E        Grad      Rot      Max-DP    RMS-DP
  6   -742.73660731  -0.0000959056  0.000220  0.000220  0.001016  0.000030
               *** Restarting incremental Fock matrix formation ***
  7   -742.73668203  -0.0000747161  0.000080  0.000294  0.000508  0.000019
  8   -742.73668250  -0.0000004671  0.000103  0.000201  0.000403  0.000008
  9   -742.73668337  -0.0000008703  0.000037  0.000092  0.000147  0.000005
 10   -742.73668336   0.0000000058  0.000046  0.000063  0.000106  0.000002
 11   -742.73668346  -0.0000000935  0.000011  0.000024  0.000043  0.000001
 12   -742.73668345   0.0000000089  0.000008  0.000009  0.000022  0.000001
 13   -742.73668347  -0.0000000218  0.000003  0.000009  0.000011  0.000000
 14   -742.73668347  -0.0000000058  0.000004  0.000005  0.000008  0.000000
                  ***Gradient check signals convergence***
              ***Rediagonalizing the Fockian in SOSCF/NRSCF***

               *****************************************************
               *                     SUCCESS                       *
               *           SCF CONVERGED AFTER  15 CYCLES          *
               *****************************************************

Old exchange energy                            =    -19.471596525 Eh
New exchange energy                            =    -19.471607186 Eh
Exchange energy change after final integration =     -0.000010661 Eh
Total energy after final integration           =   -742.736694139 Eh
Final COS-X integration done in                =     9.065 sec

----------------
TOTAL SCF ENERGY
----------------

Total Energy       :         -742.73669414 Eh          -20210.89295 eV

Components:
Nuclear Repulsion  :         1087.46148678 Eh           29591.33145 eV
Electronic Energy  :        -1830.19818092 Eh          -49802.22440 eV
One Electron Energy:        -3171.24582482 Eh          -86293.98599 eV
Two Electron Energy:         1341.04764390 Eh           36491.76160 eV
Max COSX asymmetry :            0.00000209 Eh               0.00006 eV
CPCM Dielectric    :           -0.02530571 Eh              -0.68860 eV

Virial components:
Potential Energy   :        -1481.10001283 Eh          -40302.78030 eV
Kinetic Energy     :          738.36331869 Eh           20091.88735 eV
Virial Ratio       :            2.00592307


DFT components:
N(Alpha)           :       57.999954656717 electrons
N(Beta)            :       57.999954656717 electrons
N(Total)           :      115.999909313434 electrons
E(X)               :      -77.358818448087 Eh       
E(C)               :       -4.651897822863 Eh       
E(XC)              :      -82.010716270950 Eh       
DFET-embed. en.    :        0.000000000000 Eh       
CPCM Solvation Model Properties:
Surface-charge          :           -0.01773604
Charge-correction       :           -0.00008150 Eh              -0.00222 eV
Free-energy (cav+disp)  :  This term is not implemented in the current solvation scheme

---------------
SCF CONVERGENCE
---------------

  Last Energy change         ...   -2.9021e-09  Tolerance :   1.0000e-08
  Last MAX-Density change    ...    3.9968e-15  Tolerance :   1.0000e-07
  Last RMS-Density change    ...    4.7772e-17  Tolerance :   5.0000e-09
  Last Orbital Gradient      ...    3.5780e-07  Tolerance :   1.0000e-05
  Last Orbital Rotation      ...    9.1034e-07  Tolerance :   1.0000e-05

             **** THE GBW FILE WAS UPDATED (Nq_octanol.gbw) ****
             **** DENSITY Nq_octanol.scfp WAS UPDATED ****
             **** ENERGY FILE WAS UPDATED (Nq_octanol.en.tmp) ****
             **** THE GBW FILE WAS UPDATED (Nq_octanol.gbw) ****
             **** DENSITY Nq_octanol.scfp WAS UPDATED ****
----------------
ORBITAL ENERGIES
----------------

  NO   OCC          E(Eh)            E(eV) 
   0   2.0000     -19.114670      -520.1366 
   1   2.0000     -19.110460      -520.0221 
   2   2.0000     -19.107967      -519.9542 
   3   2.0000     -14.359943      -390.7539 
   4   2.0000     -14.359587      -390.7442 
   5   2.0000     -14.342352      -390.2752 
   6   2.0000     -10.285413      -279.8803 
   7   2.0000     -10.285290      -279.8770 
   8   2.0000     -10.279555      -279.7209 
   9   2.0000     -10.212642      -277.9001 
  10   2.0000     -10.210535      -277.8428 
  11   2.0000     -10.198691      -277.5205 
  12   2.0000     -10.195592      -277.4362 
  13   2.0000     -10.180595      -277.0281 
  14   2.0000     -10.171861      -276.7904 
  15   2.0000      -1.041468       -28.3398 
  16   2.0000      -1.027950       -27.9719 
  17   2.0000      -1.026697       -27.9379 
  18   2.0000      -0.936367       -25.4799 
  19   2.0000      -0.927962       -25.2511 
  20   2.0000      -0.896820       -24.4037 
  21   2.0000      -0.776131       -21.1196 
  22   2.0000      -0.753599       -20.5065 
  23   2.0000      -0.718408       -19.5489 
  24   2.0000      -0.706854       -19.2345 
  25   2.0000      -0.673248       -18.3200 
  26   2.0000      -0.660115       -17.9626 
  27   2.0000      -0.576666       -15.6919 
  28   2.0000      -0.551745       -15.0137 
  29   2.0000      -0.539633       -14.6842 
  30   2.0000      -0.527063       -14.3421 
  31   2.0000      -0.513685       -13.9781 
  32   2.0000      -0.489336       -13.3155 
  33   2.0000      -0.479954       -13.0602 
  34   2.0000      -0.470071       -12.7913 
  35   2.0000      -0.464256       -12.6330 
  36   2.0000      -0.457054       -12.4371 
  37   2.0000      -0.448029       -12.1915 
  38   2.0000      -0.429558       -11.6889 
  39   2.0000      -0.416298       -11.3280 
  40   2.0000      -0.407690       -11.0938 
  41   2.0000      -0.404408       -11.0045 
  42   2.0000      -0.399596       -10.8736 
  43   2.0000      -0.395938       -10.7740 
  44   2.0000      -0.394237       -10.7277 
  45   2.0000      -0.389564       -10.6006 
  46   2.0000      -0.379932       -10.3385 
  47   2.0000      -0.372274       -10.1301 
  48   2.0000      -0.372101       -10.1254 
  49   2.0000      -0.360218        -9.8020 
  50   2.0000      -0.351865        -9.5747 
  51   2.0000      -0.341732        -9.2990 
  52   2.0000      -0.268062        -7.2943 
  53   2.0000      -0.260862        -7.0984 
  54   2.0000      -0.256345        -6.9755 
  55   2.0000      -0.253628        -6.9016 
  56   2.0000      -0.237853        -6.4723 
  57   2.0000      -0.234349        -6.3770 
  58   0.0000       0.013415         0.3650 
  59   0.0000       0.022508         0.6125 
  60   0.0000       0.032108         0.8737 
  61   0.0000       0.084781         2.3070 
  62   0.0000       0.106663         2.9025 
  63   0.0000       0.115373         3.1395 
  64   0.0000       0.118843         3.2339 
  65   0.0000       0.134670         3.6646 
  66   0.0000       0.143149         3.8953 
  67   0.0000       0.148290         4.0352 
  68   0.0000       0.160385         4.3643 
  69   0.0000       0.163938         4.4610 
  70   0.0000       0.166987         4.5440 
  71   0.0000       0.170818         4.6482 
  72   0.0000       0.178721         4.8633 
  73   0.0000       0.184649         5.0245 
  74   0.0000       0.191702         5.2165 
  75   0.0000       0.194389         5.2896 
  76   0.0000       0.195517         5.3203 
  77   0.0000       0.205703         5.5975 
  78   0.0000       0.215873         5.8742 
  79   0.0000       0.227055         6.1785 
  80   0.0000       0.229276         6.2389 
  81   0.0000       0.237579         6.4649 
  82   0.0000       0.241688         6.5767 
  83   0.0000       0.257415         7.0046 
  84   0.0000       0.278780         7.5860 
  85   0.0000       0.290696         7.9102 
  86   0.0000       0.329648         8.9702 
  87   0.0000       0.341638         9.2964 
  88   0.0000       0.361911         9.8481 
  89   0.0000       0.378312        10.2944 
  90   0.0000       0.404581        11.0092 
  91   0.0000       0.421726        11.4758 
  92   0.0000       0.478344        13.0164 
  93   0.0000       0.499961        13.6046 
  94   0.0000       0.509764        13.8714 
  95   0.0000       0.513200        13.9649 
  96   0.0000       0.525751        14.3064 
  97   0.0000       0.536961        14.6114 
  98   0.0000       0.551281        15.0011 
  99   0.0000       0.568219        15.4620 
 100   0.0000       0.573889        15.6163 
 101   0.0000       0.593943        16.1620 
 102   0.0000       0.607829        16.5399 
 103   0.0000       0.609576        16.5874 
 104   0.0000       0.625303        17.0154 
 105   0.0000       0.641603        17.4589 
 106   0.0000       0.649738        17.6803 
 107   0.0000       0.661707        18.0060 
 108   0.0000       0.670171        18.2363 
 109   0.0000       0.673030        18.3141 
 110   0.0000       0.683823        18.6078 
 111   0.0000       0.689157        18.7529 
 112   0.0000       0.700156        19.0522 
 113   0.0000       0.720330        19.6012 
 114   0.0000       0.724791        19.7226 
 115   0.0000       0.755109        20.5476 
 116   0.0000       0.757830        20.6216 
 117   0.0000       0.767238        20.8776 
 118   0.0000       0.787865        21.4389 
 119   0.0000       0.799651        21.7596 
 120   0.0000       0.808470        21.9996 
 121   0.0000       0.819496        22.2996 
 122   0.0000       0.830935        22.6109 
 123   0.0000       0.838826        22.8256 
 124   0.0000       0.853990        23.2383 
 125   0.0000       0.858430        23.3591 
 126   0.0000       0.869934        23.6721 
 127   0.0000       0.878190        23.8968 
 128   0.0000       0.884889        24.0790 
 129   0.0000       0.892223        24.2786 
 130   0.0000       0.896498        24.3950 
 131   0.0000       0.898914        24.4607 
 132   0.0000       0.911711        24.8089 
 133   0.0000       0.922324        25.0977 
 134   0.0000       0.926897        25.2221 
 135   0.0000       0.934993        25.4425 
 136   0.0000       0.943161        25.6647 
 137   0.0000       0.963305        26.2129 
 138   0.0000       0.972483        26.4626 
 139   0.0000       0.977954        26.6115 
 140   0.0000       0.987916        26.8825 
 141   0.0000       0.994652        27.0659 
 142   0.0000       1.005497        27.3610 
 143   0.0000       1.009827        27.4788 
 144   0.0000       1.033385        28.1198 
 145   0.0000       1.043305        28.3898 
 146   0.0000       1.071646        29.1610 
 147   0.0000       1.099141        29.9091 
 148   0.0000       1.118544        30.4371 
 149   0.0000       1.137795        30.9610 
 150   0.0000       1.150362        31.3029 
 151   0.0000       1.159840        31.5609 
 152   0.0000       1.172256        31.8987 
 153   0.0000       1.220956        33.2239 
 154   0.0000       1.257348        34.2142 
 155   0.0000       1.269473        34.5441 
 156   0.0000       1.276251        34.7286 
 157   0.0000       1.310063        35.6486 
 158   0.0000       1.327220        36.1155 
 159   0.0000       1.343544        36.5597 
 160   0.0000       1.360979        37.0341 
 161   0.0000       1.405377        38.2422 
 162   0.0000       1.415906        38.5288 
 163   0.0000       1.426490        38.8168 
 164   0.0000       1.433576        39.0096 
 165   0.0000       1.437905        39.1274 
 166   0.0000       1.465147        39.8687 
 167   0.0000       1.485157        40.4132 
 168   0.0000       1.499822        40.8122 
 169   0.0000       1.541496        41.9462 
 170   0.0000       1.580994        43.0210 
 171   0.0000       1.619000        44.0552 
 172   0.0000       1.666062        45.3358 
 173   0.0000       1.692554        46.0567 
 174   0.0000       1.710479        46.5445 
 175   0.0000       1.721149        46.8349 
 176   0.0000       1.740440        47.3598 
 177   0.0000       1.756094        47.7857 
 178   0.0000       1.781667        48.4816 
 179   0.0000       1.787733        48.6467 
 180   0.0000       1.802676        49.0533 
 181   0.0000       1.803786        49.0835 
 182   0.0000       1.828813        49.7645 
 183   0.0000       1.843121        50.1539 
 184   0.0000       1.848828        50.3092 
 185   0.0000       1.885390        51.3041 
 186   0.0000       1.886744        51.3409 
 187   0.0000       1.902701        51.7751 
 188   0.0000       1.908675        51.9377 
 189   0.0000       1.924822        52.3771 
 190   0.0000       1.946670        52.9716 
 191   0.0000       1.950117        53.0654 
 192   0.0000       1.961162        53.3659 
 193   0.0000       1.972768        53.6818 
 194   0.0000       1.984743        54.0076 
 195   0.0000       1.990668        54.1688 
 196   0.0000       2.025201        55.1085 
 197   0.0000       2.030611        55.2557 
 198   0.0000       2.043477        55.6058 
 199   0.0000       2.053849        55.8881 
 200   0.0000       2.073578        56.4249 
 201   0.0000       2.086186        56.7680 
 202   0.0000       2.097040        57.0634 
 203   0.0000       2.106334        57.3162 
 204   0.0000       2.137394        58.1615 
 205   0.0000       2.152487        58.5722 
 206   0.0000       2.199201        59.8433 
 207   0.0000       2.211954        60.1903 
 208   0.0000       2.220062        60.4110 
 209   0.0000       2.247572        61.1596 
 210   0.0000       2.263849        61.6025 
 211   0.0000       2.281354        62.0788 
 212   0.0000       2.286242        62.2118 
 213   0.0000       2.309945        62.8568 
 214   0.0000       2.325974        63.2930 
 215   0.0000       2.341614        63.7186 
 216   0.0000       2.369407        64.4748 
 217   0.0000       2.389422        65.0195 
 218   0.0000       2.418442        65.8091 
 219   0.0000       2.425415        65.9989 
 220   0.0000       2.426201        66.0203 
 221   0.0000       2.467249        67.1373 
 222   0.0000       2.490506        67.7701 
 223   0.0000       2.512477        68.3680 
 224   0.0000       2.549809        69.3838 
 225   0.0000       2.571566        69.9759 
 226   0.0000       2.609209        71.0002 
 227   0.0000       2.617637        71.2295 
 228   0.0000       2.640459        71.8505 
 229   0.0000       2.658110        72.3309 
 230   0.0000       2.669301        72.6354 
 231   0.0000       2.688601        73.1606 
 232   0.0000       2.722748        74.0897 
 233   0.0000       2.735587        74.4391 
 234   0.0000       2.745718        74.7148 
 235   0.0000       2.845639        77.4338 
 236   0.0000       2.937870        79.9435 
 237   0.0000       2.966765        80.7298 
 238   0.0000       2.988669        81.3258 
 239   0.0000       3.005866        81.7938 
 240   0.0000       3.013773        82.0089 
 241   0.0000       3.068946        83.5103 
 242   0.0000       3.165443        86.1361 
 243   0.0000       3.184152        86.6452 

                    ********************************
                    * MULLIKEN POPULATION ANALYSIS *
                    ********************************

-----------------------
MULLIKEN ATOMIC CHARGES
-----------------------
   0 C :   -0.564495
   1 H :    0.189019
   2 H :    0.197354
   3 H :    0.179372
   4 C :    0.528983
   5 O :   -0.508325
   6 N :   -0.378472
   7 C :   -0.247149
   8 H :    0.179811
   9 H :    0.202867
  10 C :   -0.174591
  11 H :    0.191023
  12 H :    0.180980
  13 C :   -0.375119
  14 H :    0.181820
  15 H :    0.193318
  16 C :    0.531988
  17 N :   -0.361482
  18 O :   -0.545402
  19 C :   -0.351396
  20 H :    0.170318
  21 H :    0.171012
  22 H :    0.201005
  23 C :   -0.328734
  24 H :    0.168599
  25 H :    0.185650
  26 H :    0.170626
  27 C :    0.538729
  28 O :   -0.527509
  29 N :   -0.739283
  30 H :    0.363761
  31 H :    0.375724
Sum of atomic charges:   -0.0000000

--------------------------------
MULLIKEN REDUCED ORBITAL CHARGES
--------------------------------
  0 C s       :     3.327098  s :     3.327098
      pz      :     1.101051  p :     3.205712
      px      :     1.003124
      py      :     1.101537
      dz2     :     0.005019  d :     0.031685
      dxz     :     0.005969
      dyz     :     0.007863
      dx2y2   :     0.006637
      dxy     :     0.006197
  1 H s       :     0.810981  s :     0.810981
  2 H s       :     0.802646  s :     0.802646
  3 H s       :     0.820628  s :     0.820628
  4 C s       :     2.980539  s :     2.980539
      pz      :     0.784555  p :     2.379887
      px      :     0.831407
      py      :     0.763925
      dz2     :     0.011636  d :     0.110591
      dxz     :     0.014239
      dyz     :     0.019273
      dx2y2   :     0.041610
      dxy     :     0.023833
  5 O s       :     3.852603  s :     3.852603
      pz      :     1.504978  p :     4.629516
      px      :     1.523290
      py      :     1.601248
      dz2     :     0.003115  d :     0.026206
      dxz     :     0.005692
      dyz     :     0.003643
      dx2y2   :     0.006327
      dxy     :     0.007430
  6 N s       :     3.533842  s :     3.533842
      pz      :     1.533598  p :     3.808191
      px      :     1.090640
      py      :     1.183953
      dz2     :     0.004351  d :     0.036440
      dxz     :     0.005390
      dyz     :     0.005705
      dx2y2   :     0.010798
      dxy     :     0.010196
  7 C s       :     3.248981  s :     3.248981
      pz      :     1.072912  p :     2.946111
      px      :     0.861983
      py      :     1.011216
      dz2     :     0.013473  d :     0.052057
      dxz     :     0.008235
      dyz     :     0.007096
      dx2y2   :     0.010024
      dxy     :     0.013229
  8 H s       :     0.820189  s :     0.820189
  9 H s       :     0.797133  s :     0.797133
 10 C s       :     3.218645  s :     3.218645
      pz      :     1.011472  p :     2.902078
      px      :     0.944999
      py      :     0.945607
      dz2     :     0.009769  d :     0.053868
      dxz     :     0.008365
      dyz     :     0.012829
      dx2y2   :     0.006196
      dxy     :     0.016709
 11 H s       :     0.808977  s :     0.808977
 12 H s       :     0.819020  s :     0.819020
 13 C s       :     3.279041  s :     3.279041
      pz      :     1.027319  p :     3.059108
      px      :     0.977785
      py      :     1.054005
      dz2     :     0.009372  d :     0.036970
      dxz     :     0.003100
      dyz     :     0.008509
      dx2y2   :     0.005465
      dxy     :     0.010524
 14 H s       :     0.818180  s :     0.818180
 15 H s       :     0.806682  s :     0.806682
 16 C s       :     2.982421  s :     2.982421
      pz      :     0.771263  p :     2.378257
      px      :     0.803184
      py      :     0.803810
      dz2     :     0.031834  d :     0.107334
      dxz     :     0.017607
      dyz     :     0.028047
      dx2y2   :     0.015363
      dxy     :     0.014483
 17 N s       :     3.534226  s :     3.534226
      pz      :     1.100549  p :     3.789518
      px      :     1.575313
      py      :     1.113656
      dz2     :     0.009098  d :     0.037738
      dxz     :     0.006848
      dyz     :     0.011180
      dx2y2   :     0.005898
      dxy     :     0.004714
 18 O s       :     3.865327  s :     3.865327
      pz      :     1.680990  p :     4.655151
      px      :     1.506250
      py      :     1.467911
      dz2     :     0.003710  d :     0.024924
      dxz     :     0.002325
      dyz     :     0.007455
      dx2y2   :     0.004921
      dxy     :     0.006513
 19 C s       :     3.271117  s :     3.271117
      pz      :     1.010395  p :     3.032152
      px      :     1.098584
      py      :     0.923173
      dz2     :     0.002790  d :     0.048128
      dxz     :     0.014320
      dyz     :     0.014003
      dx2y2   :     0.012507
      dxy     :     0.004508
 20 H s       :     0.829682  s :     0.829682
 21 H s       :     0.828988  s :     0.828988
 22 H s       :     0.798995  s :     0.798995
 23 C s       :     3.258186  s :     3.258186
      pz      :     1.044468  p :     3.022596
      px      :     1.084419
      py      :     0.893709
      dz2     :     0.002541  d :     0.047952
      dxz     :     0.012991
      dyz     :     0.014136
      dx2y2   :     0.011712
      dxy     :     0.006571
 24 H s       :     0.831401  s :     0.831401
 25 H s       :     0.814350  s :     0.814350
 26 H s       :     0.829374  s :     0.829374
 27 C s       :     2.988698  s :     2.988698
      pz      :     0.761866  p :     2.362556
      px      :     0.856121
      py      :     0.744568
      dz2     :     0.007470  d :     0.110017
      dxz     :     0.011437
      dyz     :     0.021176
      dx2y2   :     0.044435
      dxy     :     0.025500
 28 O s       :     3.851901  s :     3.851901
      pz      :     1.477845  p :     4.650359
      px      :     1.545154
      py      :     1.627360
      dz2     :     0.002803  d :     0.025248
      dxz     :     0.005505
      dyz     :     0.003744
      dx2y2   :     0.005874
      dxy     :     0.007323
 29 N s       :     3.596553  s :     3.596553
      pz      :     1.704576  p :     4.117773
      px      :     1.253940
      py      :     1.159257
      dz2     :     0.003833  d :     0.024957
      dxz     :     0.001120
      dyz     :     0.003090
      dx2y2   :     0.005603
      dxy     :     0.011311
 30 H s       :     0.636239  s :     0.636239
 31 H s       :     0.624276  s :     0.624276


                     *******************************
                     * LOEWDIN POPULATION ANALYSIS *
                     *******************************

----------------------
LOEWDIN ATOMIC CHARGES
----------------------
   0 C :   -0.397222
   1 H :    0.150042
   2 H :    0.158390
   3 H :    0.149119
   4 C :    0.112775
   5 O :   -0.308069
   6 N :   -0.074964
   7 C :   -0.178454
   8 H :    0.144398
   9 H :    0.158084
  10 C :   -0.157484
  11 H :    0.147206
  12 H :    0.143108
  13 C :   -0.271899
  14 H :    0.144886
  15 H :    0.155943
  16 C :    0.098877
  17 N :   -0.068021
  18 O :   -0.341586
  19 C :   -0.287288
  20 H :    0.132413
  21 H :    0.135099
  22 H :    0.151236
  23 C :   -0.280566
  24 H :    0.131423
  25 H :    0.147967
  26 H :    0.135936
  27 C :    0.112158
  28 O :   -0.331490
  29 N :   -0.355787
  30 H :    0.269152
  31 H :    0.274617

-------------------------------
LOEWDIN REDUCED ORBITAL CHARGES
-------------------------------
  0 C s       :     2.986333  s :     2.986333
      pz      :     1.142223  p :     3.349006
      px      :     1.067314
      py      :     1.139469
      dz2     :     0.009237  d :     0.061883
      dxz     :     0.011779
      dyz     :     0.014189
      dx2y2   :     0.014193
      dxy     :     0.012485
  1 H s       :     0.849958  s :     0.849958
  2 H s       :     0.841610  s :     0.841610
  3 H s       :     0.850881  s :     0.850881
  4 C s       :     2.848795  s :     2.848795
      pz      :     0.822758  p :     2.776474
      px      :     1.022990
      py      :     0.930725
      dz2     :     0.025777  d :     0.261957
      dxz     :     0.029384
      dyz     :     0.045819
      dx2y2   :     0.104970
      dxy     :     0.056007
  5 O s       :     3.549870  s :     3.549870
      pz      :     1.500196  p :     4.703841
      px      :     1.590184
      py      :     1.613461
      dz2     :     0.006816  d :     0.054358
      dxz     :     0.009325
      dyz     :     0.006431
      dx2y2   :     0.012943
      dxy     :     0.018842
  6 N s       :     3.096641  s :     3.096641
      pz      :     1.509019  p :     3.883353
      px      :     1.153578
      py      :     1.220756
      dz2     :     0.009007  d :     0.094970
      dxz     :     0.013381
      dyz     :     0.013486
      dx2y2   :     0.030684
      dxy     :     0.028412
  7 C s       :     2.930117  s :     2.930117
      pz      :     1.104269  p :     3.138046
      px      :     0.963366
      py      :     1.070411
      dz2     :     0.026836  d :     0.110291
      dxz     :     0.017324
      dyz     :     0.014968
      dx2y2   :     0.022701
      dxy     :     0.028463
  8 H s       :     0.855602  s :     0.855602
  9 H s       :     0.841916  s :     0.841916
 10 C s       :     2.920430  s :     2.920430
      pz      :     1.080771  p :     3.122707
      px      :     1.017915
      py      :     1.024021
      dz2     :     0.019376  d :     0.114346
      dxz     :     0.017646
      dyz     :     0.028668
      dx2y2   :     0.013232
      dxy     :     0.035424
 11 H s       :     0.852794  s :     0.852794
 12 H s       :     0.856892  s :     0.856892
[...]
     61       0.000027   0.000011  -0.000872   0.003034   0.000009  -0.000006
     62       0.000067   0.000272   0.027933  -0.053922  -0.000041   0.000011
     63       0.000988   0.000401   0.082058  -0.146886   0.000065  -0.000013
     64       0.000068  -0.000018   0.003266  -0.003036  -0.000002   0.000001
     65       0.000851   0.000422   0.067366  -0.119984   0.000047  -0.000011
     66       0.000056  -0.000105  -0.007018   0.013675  -0.000024   0.000013
     67      -0.001778   0.000371  -0.383105   0.710783   0.000017  -0.000012
     68       0.001118  -0.000261   0.240062  -0.444227  -0.000021   0.000012
     69       0.000002   0.000027   0.007425   0.004083  -0.000002  -0.000002
     70       0.000064   0.000100  -0.049405  -0.026149   0.000012  -0.000008
     71       0.000005   0.000027  -0.062127  -0.033408  -0.000008   0.000005
     72      -0.000430  -0.000571  -0.106307  -0.057999  -0.000051   0.000044
     73      -0.000163  -0.000193  -0.037486  -0.019865  -0.000014   0.000009
     74       0.000252   0.000338   0.061789   0.034128   0.000053  -0.000065
     75       0.000109   0.000203  -0.150315  -0.081846   0.000020  -0.000025
     76      -0.000463  -0.000811   0.598345   0.324627  -0.000022   0.000015
     77      -0.000495  -0.000793   0.571397   0.308953  -0.000043   0.000029
     78       0.000216   0.000009   0.171575   0.089035   0.000029   0.000016
     79       0.000003  -0.000027   0.021532   0.012365  -0.000013   0.000020
     80       0.000185   0.000032   0.119137   0.061941   0.000037  -0.000007
     81       0.000434   0.000560  -0.000010   0.000016   0.000420  -0.001238
     82      -0.000330  -0.000558  -0.000003   0.000002   0.001692  -0.000385
     83       0.000255   0.000375  -0.000003   0.000010  -0.000360  -0.000149
     84      -0.000011   0.000031   0.000001  -0.000005  -0.000683   0.000540
     85       0.000323   0.000516   0.000002  -0.000003   0.000818  -0.000472
     86      -0.000189  -0.000292  -0.000002   0.000001  -0.000306   0.000226
     87      -0.000120  -0.000152   0.000006  -0.000005  -0.014499  -0.083905
     88       0.000065   0.000121   0.000004  -0.000006  -0.051639   0.013083
     89      -0.000050  -0.000077   0.000003   0.000002   0.009227  -0.017581
     90      -0.000235  -0.000162   0.000005  -0.000002   0.698418   0.565328
     91      -0.000114  -0.000041   0.000018  -0.000019   0.326462   0.269310
     92      -0.000104  -0.000128   0.000005  -0.000001   0.047199   0.036905
     93       0.001169   0.001553  -0.000025   0.000011  -0.496214   0.603170
     94      -0.000763  -0.001118   0.000014   0.000004   0.355372  -0.439549
     95       0.000286   0.000396  -0.000015   0.000003  -0.167018   0.204839


-----------
IR SPECTRUM
-----------

 Mode   freq       eps      Int      T**2         TX        TY        TZ
       cm**-1   L/(mol*cm) km/mol    a.u.
----------------------------------------------------------------------------
  6:     28.00   0.003295   16.65  0.036718  (-0.031172 -0.109472 -0.154151)
  7:     35.26   0.002211   11.17  0.019563  (-0.048735 -0.014678  0.130279)
  8:     45.80   0.000190    0.96  0.001293  ( 0.033148  0.005870  0.012638)
  9:     65.12   0.001258    6.36  0.006028  (-0.068640  0.005760  0.035827)
 10:     70.88   0.001382    6.98  0.006085  ( 0.073556 -0.008132 -0.024674)
 11:     77.76   0.000031    0.15  0.000123  (-0.006456  0.001673  0.008856)
 12:     98.46   0.000463    2.34  0.001468  (-0.002602  0.023870 -0.029853)
 13:    114.39   0.002877   14.54  0.007850  (-0.001596  0.057347 -0.067516)
 14:    132.67   0.001382    6.98  0.003251  ( 0.049746 -0.017658  0.021552)
 15:    162.34   0.000488    2.47  0.000939  (-0.026706 -0.011318 -0.009867)
 16:    184.68   0.052604  265.84  0.088885  (-0.057566  0.060241  0.286256)
 17:    187.02   0.010892   55.04  0.018174  ( 0.009412 -0.035246 -0.129782)
 18:    201.79   0.000385    1.95  0.000596  (-0.018060 -0.006767 -0.014957)
 19:    231.74   0.000367    1.85  0.000494  (-0.011132  0.019092  0.002327)
 20:    261.30   0.003852   19.47  0.004601  (-0.067077 -0.009959  0.001447)
 21:    278.62   0.000544    2.75  0.000609  ( 0.012149 -0.004713  0.020966)
 22:    349.07   0.002647   13.38  0.002367  ( 0.005467  0.003736 -0.048195)
 23:    359.92   0.000559    2.82  0.000484  ( 0.002964 -0.021509  0.003616)
 24:    390.63   0.002516   12.71  0.002010  (-0.003539  0.022781 -0.038448)
 25:    430.48   0.000105    0.53  0.000076  (-0.000344 -0.008024  0.003406)
 26:    449.39   0.003118   15.75  0.002165  (-0.044668 -0.008550 -0.009827)
 27:    463.96   0.002494   12.60  0.001677  (-0.006208  0.040225 -0.004552)
 28:    499.10   0.003660   18.49  0.002288  (-0.045645  0.005724  0.013114)
 29:    547.11   0.004236   21.41  0.002416  (-0.025236 -0.034719  0.023955)
 30:    575.28   0.005319   26.88  0.002885  (-0.001683  0.053568 -0.003565)
 31:    589.85   0.003535   17.86  0.001870  ( 0.017273  0.025912  0.030005)
 32:    604.84   0.002707   13.68  0.001396  (-0.003242  0.011015 -0.035561)
 33:    641.93   0.001624    8.21  0.000790  (-0.008324 -0.000339  0.026837)
 34:    688.07   0.002218   11.21  0.001006  (-0.000972  0.007779  0.030730)
 35:    712.97   0.000412    2.08  0.000180  ( 0.008360  0.009973  0.003292)
 36:    761.47   0.002012   10.17  0.000825  (-0.009058  0.006613 -0.026436)
 37:    783.66   0.003217   16.26  0.001281  (-0.032022  0.011473 -0.011142)
 38:    827.29   0.002643   13.36  0.000997  ( 0.003840  0.009155  0.029973)
 39:    911.19   0.003080   15.57  0.001055  (-0.001980 -0.021274 -0.024461)
 40:    960.76   0.001879    9.50  0.000610  (-0.007355 -0.018850 -0.014178)
 41:   1002.96   0.006211   31.39  0.001932  (-0.008494  0.010304 -0.041882)
 42:   1014.76   0.007621   38.51  0.002344  (-0.010421 -0.046532  0.008345)
 43:   1039.89   0.007154   36.15  0.002147  ( 0.026105 -0.034646 -0.016282)
 44:   1053.01   0.003198   16.16  0.000948  ( 0.008064  0.022615 -0.019270)
 45:   1062.58   0.001798    9.09  0.000528  ( 0.002722 -0.005479  0.022152)
 46:   1090.00   0.002601   13.15  0.000745  ( 0.001772  0.026035  0.007988)
 47:   1098.76   0.003505   17.71  0.000995  ( 0.008808  0.010692  0.028347)
 48:   1128.56   0.003235   16.35  0.000894  (-0.015253  0.005272 -0.025178)
 49:   1135.81   0.000571    2.89  0.000157  (-0.006998  0.010254  0.001671)
 50:   1176.15   0.012532   63.33  0.003325  (-0.017911 -0.014483 -0.052862)
 51:   1184.97   0.000053    0.27  0.000014  ( 0.002780  0.000681  0.002374)
 52:   1225.76   0.007082   35.79  0.001803  ( 0.017895  0.002706 -0.038411)
 53:   1253.91   0.013589   68.67  0.003382  ( 0.006012 -0.055537 -0.016168)
 54:   1287.34   0.008149   41.18  0.001976  ( 0.016738  0.002143 -0.041119)
 55:   1289.23   0.026093  131.86  0.006316  (-0.038064  0.069762 -0.000464)
 56:   1306.28   0.014315   72.34  0.003420  (-0.016251  0.056156  0.001502)
 57:   1330.17   0.027210  137.51  0.006383  ( 0.032844  0.072041 -0.010713)
 58:   1369.87   0.002624   13.26  0.000598  ( 0.008825  0.021967  0.006107)
 59:   1402.86   0.000865    4.37  0.000192  (-0.004057  0.011581 -0.006467)
 60:   1413.64   0.004641   23.45  0.001024  ( 0.028507  0.011002 -0.009525)
 61:   1433.42   0.036684  185.38  0.007986  ( 0.055183  0.068299  0.016621)
 62:   1440.66   0.011764   59.45  0.002548  ( 0.001490 -0.016064  0.047832)
 63:   1456.75   0.018050   91.22  0.003867  (-0.022293  0.037531 -0.044284)
 64:   1474.52   0.039335  198.79  0.008325  (-0.009997  0.084142  0.033837)
 65:   1484.73   0.001639    8.28  0.000345  (-0.018230  0.000597 -0.003446)
 66:   1489.66   0.000852    4.31  0.000179  (-0.001792  0.001855 -0.013112)
 67:   1494.40   0.007135   36.06  0.001490  ( 0.037745 -0.007980  0.001229)
 68:   1504.59   0.005380   27.19  0.001116  (-0.026123  0.019936  0.006006)
 69:   1506.99   0.005556   28.08  0.001151  ( 0.012644 -0.011326 -0.029366)
 70:   1511.45   0.000717    3.62  0.000148  (-0.002438 -0.011803  0.001658)
 71:   1519.41   0.002362   11.94  0.000485  ( 0.018114  0.001240  0.012469)
 72:   1530.63   0.006924   34.99  0.001412  ( 0.034173  0.015270  0.003274)
 73:   1534.60   0.003161   15.97  0.000643  ( 0.006057  0.000659 -0.024610)
 74:   1555.83   0.016268   82.21  0.003263  ( 0.010175 -0.027987  0.048746)
 75:   1638.35   0.033528  169.43  0.006386  ( 0.032748  0.072293 -0.009353)
 76:   1709.00   0.166554  841.70  0.030413  (-0.069362 -0.125965 -0.098664)
 77:   1712.44   0.046427  234.62  0.008460  ( 0.046069 -0.017914 -0.077571)
 78:   1748.50   0.107422  542.87  0.019172  (-0.070180  0.113184 -0.037900)
 79:   3032.67   0.006210   31.38  0.000639  ( 0.007434 -0.019236 -0.014620)
 80:   3038.70   0.018227   92.11  0.001872  (-0.009557 -0.012423  0.040326)
 81:   3061.26   0.000620    3.13  0.000063  ( 0.002466 -0.001832  0.007334)
 82:   3062.80   0.000603    3.05  0.000061  (-0.007402  0.000311  0.002552)
 83:   3083.19   0.003922   19.82  0.000397  (-0.006675 -0.003378 -0.018467)
 84:   3087.23   0.009969   50.38  0.001008  (-0.008691  0.009513  0.029011)
 85:   3095.67   0.016565   83.71  0.001670  ( 0.038534  0.003028  0.013258)
 86:   3098.44   0.002158   10.91  0.000217  ( 0.014565  0.000748  0.002159)
 87:   3127.21   0.001577    7.97  0.000157  (-0.003359 -0.002748  0.011770)
 88:   3130.33   0.002992   15.12  0.000298  (-0.007901  0.015347  0.000578)
 89:   3162.60   0.001603    8.10  0.000158  (-0.006518  0.008406 -0.006709)
 90:   3170.06   0.004251   21.48  0.000418  ( 0.002158 -0.019784 -0.004729)
 91:   3175.39   0.000702    3.55  0.000069  ( 0.007386 -0.001515  0.003481)
 92:   3192.73   0.001166    5.89  0.000114  ( 0.006340 -0.008503 -0.001197)
 93:   3194.46   0.000511    2.58  0.000050  (-0.006420 -0.001459 -0.002557)
 94:   3577.06   0.016049   81.11  0.001400  ( 0.006432  0.036177 -0.007072)
 95:   3702.80   0.014817   74.88  0.001249  ( 0.033692 -0.007427  0.007645)

* The epsilon (eps) is given for a Dirac delta lineshape.
** The dipole moment derivative (T) already includes vibrational overlap.

The first frequency considered to be a vibration is 6
The total number of vibrations considered is 90


--------------------------
THERMOCHEMISTRY AT 298.15K
--------------------------

Temperature         ... 298.15 K
Pressure            ... 1.00 atm
Total Mass          ... 215.25 AMU

Throughout the following assumptions are being made:
  (1) The electronic state is orbitally nondegenerate
  (2) There are no thermally accessible electronically excited states
  (3) Hindered rotations indicated by low frequency modes are not
      treated as such but are treated as vibrations and this may
      cause some error
  (4) All equations used are the standard statistical mechanics
      equations for an ideal gas
  (5) All vibrations are strictly harmonic

freq.      28.00  E(vib)   ...       0.55 
freq.      35.26  E(vib)   ...       0.54 
freq.      45.80  E(vib)   ...       0.53 
freq.      65.12  E(vib)   ...       0.50 
freq.      70.88  E(vib)   ...       0.50 
freq.      77.76  E(vib)   ...       0.49 
freq.      98.46  E(vib)   ...       0.46 
freq.     114.39  E(vib)   ...       0.44 
freq.     132.67  E(vib)   ...       0.42 
freq.     162.34  E(vib)   ...       0.39 
freq.     184.68  E(vib)   ...       0.37 
freq.     187.02  E(vib)   ...       0.36 
freq.     201.79  E(vib)   ...       0.35 
freq.     231.74  E(vib)   ...       0.32 
freq.     261.30  E(vib)   ...       0.30 
freq.     278.62  E(vib)   ...       0.28 
freq.     349.07  E(vib)   ...       0.23 
freq.     359.92  E(vib)   ...       0.22 
freq.     390.63  E(vib)   ...       0.20 
freq.     430.48  E(vib)   ...       0.18 
freq.     449.39  E(vib)   ...       0.17 
freq.     463.96  E(vib)   ...       0.16 
freq.     499.10  E(vib)   ...       0.14 
freq.     547.11  E(vib)   ...       0.12 
freq.     575.28  E(vib)   ...       0.11 
freq.     589.85  E(vib)   ...       0.10 
freq.     604.84  E(vib)   ...       0.10 
freq.     641.93  E(vib)   ...       0.09 
freq.     688.07  E(vib)   ...       0.07 
freq.     712.97  E(vib)   ...       0.07 
freq.     761.47  E(vib)   ...       0.06 
freq.     783.66  E(vib)   ...       0.05 
freq.     827.29  E(vib)   ...       0.04 
freq.     911.19  E(vib)   ...       0.03 
freq.     960.76  E(vib)   ...       0.03 
freq.    1002.96  E(vib)   ...       0.02 
freq.    1014.76  E(vib)   ...       0.02 
freq.    1039.89  E(vib)   ...       0.02 
freq.    1053.01  E(vib)   ...       0.02 
freq.    1062.58  E(vib)   ...       0.02 
freq.    1090.00  E(vib)   ...       0.02 
freq.    1098.76  E(vib)   ...       0.02 
freq.    1128.56  E(vib)   ...       0.01 
freq.    1135.81  E(vib)   ...       0.01 
freq.    1176.15  E(vib)   ...       0.01 
freq.    1184.97  E(vib)   ...       0.01 
freq.    1225.76  E(vib)   ...       0.01 
freq.    1253.91  E(vib)   ...       0.01 
freq.    1287.34  E(vib)   ...       0.01 
freq.    1289.23  E(vib)   ...       0.01 
freq.    1306.28  E(vib)   ...       0.01 
freq.    1330.17  E(vib)   ...       0.01 
freq.    1369.87  E(vib)   ...       0.01 
freq.    1402.86  E(vib)   ...       0.00 
freq.    1413.64  E(vib)   ...       0.00 
freq.    1433.42  E(vib)   ...       0.00 
freq.    1440.66  E(vib)   ...       0.00 
freq.    1456.75  E(vib)   ...       0.00 
freq.    1474.52  E(vib)   ...       0.00 
freq.    1484.73  E(vib)   ...       0.00 
freq.    1489.66  E(vib)   ...       0.00 
freq.    1494.40  E(vib)   ...       0.00 
freq.    1504.59  E(vib)   ...       0.00 
freq.    1506.99  E(vib)   ...       0.00 
freq.    1511.45  E(vib)   ...       0.00 
freq.    1519.41  E(vib)   ...       0.00 
freq.    1530.63  E(vib)   ...       0.00 
freq.    1534.60  E(vib)   ...       0.00 
freq.    1555.83  E(vib)   ...       0.00 
freq.    1638.35  E(vib)   ...       0.00 
freq.    1709.00  E(vib)   ...       0.00 
freq.    1712.44  E(vib)   ...       0.00 
freq.    1748.50  E(vib)   ...       0.00 
freq.    3032.67  E(vib)   ...       0.00 
freq.    3038.70  E(vib)   ...       0.00 
freq.    3061.26  E(vib)   ...       0.00 
freq.    3062.80  E(vib)   ...       0.00 
freq.    3083.19  E(vib)   ...       0.00 
freq.    3087.23  E(vib)   ...       0.00 
freq.    3095.67  E(vib)   ...       0.00 
freq.    3098.44  E(vib)   ...       0.00 
freq.    3127.21  E(vib)   ...       0.00 
freq.    3130.33  E(vib)   ...       0.00 
freq.    3162.60  E(vib)   ...       0.00 
freq.    3170.06  E(vib)   ...       0.00 
freq.    3175.39  E(vib)   ...       0.00 
freq.    3192.73  E(vib)   ...       0.00 
freq.    3194.46  E(vib)   ...       0.00 
freq.    3577.06  E(vib)   ...       0.00 
freq.    3702.80  E(vib)   ...       0.00 

------------
INNER ENERGY
------------

The inner energy is: U= E(el) + E(ZPE) + E(vib) + E(rot) + E(trans)
    E(el)   - is the total energy from the electronic structure calculation
              = E(kin-el) + E(nuc-el) + E(el-el) + E(nuc-nuc)
    E(ZPE)  - the the zero temperature vibrational energy from the frequency calculation
    E(vib)  - the the finite temperature correction to E(ZPE) due to population
              of excited vibrational states
    E(rot)  - is the rotational thermal energy
    E(trans)- is the translational thermal energy

Summary of contributions to the inner energy U:
Electronic energy                ...   -742.79305972 Eh
Zero point energy                ...      0.27184883 Eh     170.59 kcal/mol
Thermal vibrational correction   ...      0.01477475 Eh       9.27 kcal/mol
Thermal rotational correction    ...      0.00141627 Eh       0.89 kcal/mol
Thermal translational correction ...      0.00141627 Eh       0.89 kcal/mol
-----------------------------------------------------------------------
Total thermal energy                   -742.50360360 Eh


Summary of corrections to the electronic energy:
(perhaps to be used in another calculation)
Total thermal correction                  0.01760730 Eh      11.05 kcal/mol
Non-thermal (ZPE) correction              0.27184883 Eh     170.59 kcal/mol
-----------------------------------------------------------------------
Total correction                          0.28945612 Eh     181.64 kcal/mol


--------
ENTHALPY
--------

The enthalpy is H = U + kB*T
                kB is Boltzmann's constant
Total free energy                 ...   -742.50360360 Eh 
Thermal Enthalpy correction       ...      0.00094421 Eh       0.59 kcal/mol
-----------------------------------------------------------------------
Total Enthalpy                    ...   -742.50265939 Eh


Note: Only C1 symmetry has been detected, increase convergence thresholds 
      if your molecule has a higher symmetry. Symmetry factor of 1.0 is   
      used for the rotational entropy correction. 
 

Note: Rotational entropy computed according to Herzberg 
Infrared and Raman Spectra, Chapter V,1, Van Nostrand Reinhold, 1945 
Point Group:  C1, Symmetry Number:   1  
Rotational constants in cm-1:     0.021124     0.015973     0.011022 

Vibrational entropy computed according to the QRRHO of S. Grimme
Chem.Eur.J. 2012 18 9955


-------
ENTROPY
-------

The entropy contributions are T*S = T*(S(el)+S(vib)+S(rot)+S(trans))
     S(el)   - electronic entropy
     S(vib)  - vibrational entropy
     S(rot)  - rotational entropy
     S(trans)- translational entropy
The entropies will be listed as multiplied by the temperature to get
units of energy

Electronic entropy                ...      0.00000000 Eh      0.00 kcal/mol
Vibrational entropy               ...      0.02684818 Eh     16.85 kcal/mol
Rotational entropy                ...      0.01541290 Eh      9.67 kcal/mol
Translational entropy             ...      0.01995702 Eh     12.52 kcal/mol
-----------------------------------------------------------------------
Final entropy term                ...      0.06221809 Eh     39.04 kcal/mol

In case the symmetry of your molecule has not been determined correctly
or in case you have a reason to use a different symmetry number we print 
out the resulting rotational entropy values for sn=1,12 :
 --------------------------------------------------------
|  sn= 1 | S(rot)=       0.01541290 Eh      9.67 kcal/mol|
|  sn= 2 | S(rot)=       0.01475844 Eh      9.26 kcal/mol|
|  sn= 3 | S(rot)=       0.01437561 Eh      9.02 kcal/mol|
|  sn= 4 | S(rot)=       0.01410398 Eh      8.85 kcal/mol|
|  sn= 5 | S(rot)=       0.01389330 Eh      8.72 kcal/mol|
|  sn= 6 | S(rot)=       0.01372115 Eh      8.61 kcal/mol|
|  sn= 7 | S(rot)=       0.01357560 Eh      8.52 kcal/mol|
|  sn= 8 | S(rot)=       0.01344953 Eh      8.44 kcal/mol|
|  sn= 9 | S(rot)=       0.01333832 Eh      8.37 kcal/mol|
|  sn=10 | S(rot)=       0.01323884 Eh      8.31 kcal/mol|
|  sn=11 | S(rot)=       0.01314885 Eh      8.25 kcal/mol|
|  sn=12 | S(rot)=       0.01306669 Eh      8.20 kcal/mol|
 --------------------------------------------------------


-------------------
GIBBS FREE ENERGY
-------------------

The Gibbs free energy is G = H - T*S

Total enthalpy                    ...   -742.50265939 Eh 
Total entropy correction          ...     -0.06221809 Eh    -39.04 kcal/mol
-----------------------------------------------------------------------
Final Gibbs free energy         ...   -742.56487748 Eh

For completeness - the Gibbs free energy minus the electronic energy
G-E(el)                           ...      0.22818224 Eh    143.19 kcal/mol


Timings for individual modules:

Sum of individual times         ...     1606.687 sec (=  26.778 min)
GTO integral calculation        ...       16.602 sec (=   0.277 min)   1.0 %
SCF iterations                  ...      756.393 sec (=  12.607 min)  47.1 %
SCF Gradient evaluation         ...      213.969 sec (=   3.566 min)  13.3 %
Geometry relaxation             ...        1.133 sec (=   0.019 min)   0.1 %
Analytical frequency calculation...      618.590 sec (=  10.310 min)  38.5 %
                             ****ORCA TERMINATED NORMALLY****
TOTAL RUN TIME: 0 days 0 hours 26 minutes 52 seconds 37 msec
