
                                 *****************
                                 * O   R   C   A *
                                 *****************

                                            #,                                       
                                            ###                                      
                                            ####                                     
                                            #####                                    
                                            ######                                   
                                           ########,                                 
                                     ,,################,,,,,                         
                               ,,#################################,,                 
                          ,,##########################################,,             
                       ,#########################################, ''#####,          
                    ,#############################################,,   '####,        
                  ,##################################################,,,,####,       
                ,###########''''           ''''###############################       
              ,#####''   ,,,,##########,,,,          '''####'''          '####       
            ,##' ,,,,###########################,,,                        '##       
           ' ,,###''''                  '''############,,,                           
         ,,##''                                '''############,,,,        ,,,,,,###''
      ,#''                                            '''#######################'''  
     '                                                          ''''####''''         
             ,#######,   #######,   ,#######,      ##                                
            ,#'     '#,  ##    ##  ,#'     '#,    #''#        ######   ,####,        
            ##       ##  ##   ,#'  ##            #'  '#       #        #'  '#        
            ##       ##  #######   ##           ,######,      #####,   #    #        
            '#,     ,#'  ##    ##  '#,     ,#' ,#      #,         ##   #,  ,#        
             '#######'   ##     ##  '#######'  #'      '#     #####' # '####'        



                  #######################################################
                  #                        -***-                        #
                  #          Department of theory and spectroscopy      #
                  #    Directorship and core code : Frank Neese         #
                  #        Max Planck Institute fuer Kohlenforschung    #
                  #                Kaiser Wilhelm Platz 1               #
                  #                 D-45470 Muelheim/Ruhr               #
                  #                      Germany                        #
                  #                                                     #
                  #                  All rights reserved                #
                  #                        -***-                        #
                  #######################################################


                         Program Version 5.0.4 -  RELEASE  -


 With contributions from (in alphabetic order):
   Daniel Aravena         : Magnetic Suceptibility
   Michael Atanasov       : Ab Initio Ligand Field Theory (pilot matlab implementation)
   Alexander A. Auer      : GIAO ZORA, VPT2 properties, NMR spectrum
   Ute Becker             : Parallelization
   Giovanni Bistoni       : ED, misc. LED, open-shell LED, HFLD
   Martin Brehm           : Molecular dynamics
   Dmytro Bykov           : SCF Hessian
   Vijay G. Chilkuri      : MRCI spin determinant printing, contributions to CSF-ICE
   Dipayan Datta          : RHF DLPNO-CCSD density
   Achintya Kumar Dutta   : EOM-CC, STEOM-CC
   Dmitry Ganyushin       : Spin-Orbit,Spin-Spin,Magnetic field MRCI
   Miquel Garcia          : C-PCM and meta-GGA Hessian, CC/C-PCM, Gaussian charge scheme
   Yang Guo               : DLPNO-NEVPT2, F12-NEVPT2, CIM, IAO-localization
   Andreas Hansen         : Spin unrestricted coupled pair/coupled cluster methods
   Benjamin Helmich-Paris : MC-RPA, TRAH-SCF, COSX integrals
   Lee Huntington         : MR-EOM, pCC
   Robert Izsak           : Overlap fitted RIJCOSX, COSX-SCS-MP3, EOM
   Marcus Kettner         : VPT2
   Christian Kollmar      : KDIIS, OOCD, Brueckner-CCSD(T), CCSD density, CASPT2, CASPT2-K
   Simone Kossmann        : Meta GGA functionals, TD-DFT gradient, OOMP2, MP2 Hessian
   Martin Krupicka        : Initial AUTO-CI
   Lucas Lang             : DCDCAS
   Marvin Lechner         : AUTO-CI (C++ implementation), FIC-MRCC
   Dagmar Lenk            : GEPOL surface, SMD
   Dimitrios Liakos       : Extrapolation schemes; Compound Job, initial MDCI parallelization
   Dimitrios Manganas     : Further ROCIS development; embedding schemes
   Dimitrios Pantazis     : SARC Basis sets
   Anastasios Papadopoulos: AUTO-CI, single reference methods and gradients
   Taras Petrenko         : DFT Hessian,TD-DFT gradient, ASA, ECA, R-Raman, ABS, FL, XAS/XES, NRVS
   Peter Pinski           : DLPNO-MP2, DLPNO-MP2 Gradient
   Christoph Reimann      : Effective Core Potentials
   Marius Retegan         : Local ZFS, SOC
   Christoph Riplinger    : Optimizer, TS searches, QM/MM, DLPNO-CCSD(T), (RO)-DLPNO pert. Triples
   Tobias Risthaus        : Range-separated hybrids, TD-DFT gradient, RPA, STAB
   Michael Roemelt        : Original ROCIS implementation
   Masaaki Saitow         : Open-shell DLPNO-CCSD energy and density
   Barbara Sandhoefer     : DKH picture change effects
   Avijit Sen             : IP-ROCIS
   Kantharuban Sivalingam : CASSCF convergence, NEVPT2, FIC-MRCI
   Bernardo de Souza      : ESD, SOC TD-DFT
   Georgi Stoychev        : AutoAux, RI-MP2 NMR, DLPNO-MP2 response
   Willem Van den Heuvel  : Paramagnetic NMR
   Boris Wezisla          : Elementary symmetry handling
   Frank Wennmohs         : Technical directorship


 We gratefully acknowledge several colleagues who have allowed us to
 interface, adapt or use parts of their codes:
   Stefan Grimme, W. Hujo, H. Kruse, P. Pracht,  : VdW corrections, initial TS optimization,
                  C. Bannwarth, S. Ehlert          DFT functionals, gCP, sTDA/sTD-DF
   Ed Valeev, F. Pavosevic, A. Kumar             : LibInt (2-el integral package), F12 methods
   Garnet Chan, S. Sharma, J. Yang, R. Olivares  : DMRG
   Ulf Ekstrom                                   : XCFun DFT Library
   Mihaly Kallay                                 : mrcc  (arbitrary order and MRCC methods)
   Jiri Pittner, Ondrej Demel                    : Mk-CCSD
   Frank Weinhold                                : gennbo (NPA and NBO analysis)
   Christopher J. Cramer and Donald G. Truhlar   : smd solvation model
   Lars Goerigk                                  : TD-DFT with DH, B97 family of functionals
   V. Asgeirsson, H. Jonsson                     : NEB implementation
   FAccTs GmbH                                   : IRC, NEB, NEB-TS, DLPNO-Multilevel, CI-OPT
                                                   MM, QMMM, 2- and 3-layer-ONIOM, Crystal-QMMM,
                                                   LR-CPCM, SF, NACMEs, symmetry and pop. for TD-DFT,
                                                   nearIR, NL-DFT gradient (VV10), updates on ESD,
                                                   ML-optimized integration grids
   S Lehtola, MJT Oliveira, MAL Marques          : LibXC Library
   Liviu Ungur et al                             : ANISO software


 Your calculation uses the libint2 library for the computation of 2-el integrals
 For citations please refer to: http://libint.valeyev.net

 Your ORCA version has been built with support for libXC version: 5.1.0
 For citations please refer to: https://tddft.org/programs/libxc/

 This ORCA versions uses:
   CBLAS   interface :  Fast vector & matrix operations
   LAPACKE interface :  Fast linear algebra routines
   SCALAPACK package :  Parallel linear algebra routines
   Shared memory     :  Shared parallel matrices
   BLAS/LAPACK       :  OpenBLAS 0.3.15  USE64BITINT DYNAMIC_ARCH NO_AFFINITY SkylakeX SINGLE_THREADED
        Core in use  :  SkylakeX
   Copyright (c) 2011-2014, The OpenBLAS Project




***************************************
The coordinates will be read from file: /users/fjb15167/WWenergy/structures/Nse.xyz
***************************************


Your calculation utilizes the atom-pairwise dispersion correction
based on tight binding partial charges (D4)
Cite in your paper:
E.Caldeweyher, C.Bannwarth, S.Grimme, J.Chem.Phys., (2017), 147, 034112.
E.Caldeweyher, S.Ehlert, A.Hansen, H.Neugebauer, S.Grimme, J.Chem.Phys., (2018), in progress.
   

================================================================================

----- Orbital basis set information -----
Your calculation utilizes the basis: 6-31G(d)
   H-He, Li-Ne : W. J. Hehre, R. Ditchfield and J.A. Pople, J. Chem. Phys. 56, 2257 (1972).
                 Note: He and Ne are unpublished basis sets taken from the Gaussian program.
                 Note: Li and B from J. D. Dill and J. A. Pople, J. Chem. Phys. 62, 2921 (1975).
   Na - Ar     : M. M. Francl, W. J. Pietro, W. J. Hehre, J. S. Binkley, M. S. Gordon, 
                 D. J. DeFrees and J. A. Pople, J. Chem. Phys. 77, 3654 (1982).
   K - Zn      : V. A. Rassolov, J. A. Pople, M. A. Ratner, and T. L. Windus, J. Chem. Phys. 109, 1223 (1998).

----- AuxJ basis set information -----
Your calculation utilizes the AutoAux generation procedure.
  G. L. Stoychev, A. A. Auer, F. Neese, J. Chem. Theory Comput. 13, 554 (2017)

----- AuxC basis set information -----
Your calculation utilizes the AutoAux generation procedure.
  G. L. Stoychev, A. A. Auer, F. Neese, J. Chem. Theory Comput. 13, 554 (2017)

----- AuxJK basis set information -----
Your calculation utilizes the AutoAux generation procedure.
  G. L. Stoychev, A. A. Auer, F. Neese, J. Chem. Theory Comput. 13, 554 (2017)

================================================================================
                                        WARNINGS
                       Please study these warnings very carefully!
================================================================================


WARNING: Geometry Optimization
  ===> : Switching off AutoStart
         For restart on a previous wavefunction, please use MOREAD

INFO   : the flag for use of the SHARK integral package has been found!

================================================================================
                                       INPUT FILE
================================================================================
NAME = Nse_gas.inp
|  1> ! OPT FREQ B3LYP 6-31G(d) D4 AUTOAUX
|  2> 
|  3> %PAL NPROCS 4 END
|  4> 
|  5> %maxcore 3375
|  6> 
|  7> *xyzfile 0 1 /users/fjb15167/WWenergy/structures/Nse.xyz
|  8> 
|  9>                          ****END OF INPUT****
================================================================================

                       *****************************
                       * Geometry Optimization Run *
                       *****************************

Geometry optimization settings:
Update method            Update   .... BFGS
Choice of coordinates    CoordSys .... Z-matrix Internals
Initial Hessian          InHess   .... Almoef's Model

Convergence Tolerances:
Energy Change            TolE     ....  5.0000e-06 Eh
Max. Gradient            TolMAXG  ....  3.0000e-04 Eh/bohr
RMS Gradient             TolRMSG  ....  1.0000e-04 Eh/bohr
Max. Displacement        TolMAXD  ....  4.0000e-03 bohr
RMS Displacement         TolRMSD  ....  2.0000e-03 bohr
Strict Convergence                ....  False
------------------------------------------------------------------------------
                        ORCA OPTIMIZATION COORDINATE SETUP
------------------------------------------------------------------------------

The optimization will be done in new redundant internal coordinates
Making redundant internal coordinates   ...  (new redundants) done
Evaluating the initial hessian          ...  (Almloef) done
Evaluating the coordinates              ...  done
Calculating the B-matrix                .... done
Calculating the G-matrix                .... done
Diagonalizing the G-matrix              .... done
Small eigenvalue found = 5.825e-03
Small eigenvalue found = 8.684e-03
Small eigenvalue found = 1.606e-02
Small eigenvalue found = 1.870e-02
The first mode is                       ....   52
The number of degrees of freedom        ....   81

    -----------------------------------------------------------------
                    Redundant Internal Coordinates


    -----------------------------------------------------------------
         Definition                    Initial Value    Approx d2E/dq
    -----------------------------------------------------------------
      1. B(H   1,C   0)                  1.0902         0.359823   
      2. B(H   2,C   0)                  1.0940         0.354835   
      3. B(H   3,C   0)                  1.0901         0.359978   
      4. B(C   4,C   0)                  1.5318         0.371158   
      5. B(O   5,C   4)                  1.2186         1.050312   
      6. B(N   6,C   4)                  1.3812         0.578027   
      7. B(C   7,N   6)                  1.4584         0.435336   
      8. B(H   8,C   7)                  1.0959         0.352407   
      9. B(H   9,C   7)                  1.0913         0.358445   
     10. B(C  10,N   6)                  1.4576         0.436484   
     11. B(H  11,C  10)                  1.0913         0.358342   
     12. B(H  12,C  10)                  1.0975         0.350326   
     13. B(C  13,C  10)                  1.5212         0.385913   
     14. B(H  14,C  13)                  1.1013         0.345500   
     15. B(H  15,C  13)                  1.0943         0.354477   
     16. B(C  16,C   7)                  1.5242         0.381574   
     17. B(N  17,C  16)                  1.3648         0.613777   
     18. B(O  18,C  16)                  1.2413         0.966390   
     19. B(C  19,N  17)                  1.4545         0.441520   
     20. B(H  20,C  19)                  1.0935         0.355540   
     21. B(H  21,C  19)                  1.0982         0.349434   
     22. B(H  22,C  19)                  1.0889         0.361532   
     23. B(C  23,N  17)                  1.4573         0.436969   
     24. B(H  24,C  23)                  1.0939         0.354915   
     25. B(H  25,C  23)                  1.0875         0.363382   
     26. B(H  26,C  23)                  1.0962         0.351933   
     27. B(O  27,C  13)                  1.4297         0.483686   
     28. B(H  28,O  27)                  0.9717         0.498115   
     29. A(H   1,C   0,C   4)          111.6759         0.323932   
     30. A(H   2,C   0,H   3)          108.6436         0.290152   
     31. A(H   1,C   0,H   2)          108.7251         0.290133   
     32. A(H   1,C   0,H   3)          110.2734         0.290789   
     33. A(H   3,C   0,C   4)          106.3420         0.323955   
     34. A(H   2,C   0,C   4)          111.1285         0.323191   
     35. A(C   0,C   4,O   5)          121.1001         0.432315   
     36. A(O   5,C   4,N   6)          122.6787         0.465400   
     37. A(C   0,C   4,N   6)          116.2205         0.388908   
     38. A(C   4,N   6,C  10)          125.1306         0.397557   
     39. A(C   7,N   6,C  10)          116.6383         0.378380   
     40. A(C   4,N   6,C   7)          117.7946         0.397374   
     41. A(H   8,C   7,H   9)          109.0144         0.289646   
     42. A(N   6,C   7,H   9)          107.5226         0.330354   
     43. A(H   9,C   7,C  16)          112.9089         0.325204   
     44. A(H   8,C   7,C  16)          105.4336         0.324297   
     45. A(N   6,C   7,C  16)          111.9662         0.372036   
     46. A(N   6,C   7,H   8)          109.9601         0.329428   
     47. A(H  12,C  10,C  13)          108.3109         0.324584   
     48. A(H  11,C  10,C  13)          108.9397         0.325793   
     49. A(N   6,C  10,C  13)          114.3161         0.372930   
     50. A(H  11,C  10,H  12)          107.4788         0.289364   
     51. A(N   6,C  10,H  12)          108.1086         0.329249   
     52. A(N   6,C  10,H  11)          109.4663         0.330482   
     53. A(H  14,C  13,H  15)          107.9525         0.288246   
     54. A(H  15,C  13,O  27)          111.5062         0.335555   
     55. A(C  10,C  13,H  15)          110.4873         0.325213   
     56. A(C  10,C  13,H  14)          107.8446         0.323846   
     57. A(H  14,C  13,O  27)          111.1965         0.334127   
     58. A(C  10,C  13,O  27)          107.8031         0.379606   
     59. A(N  17,C  16,O  18)          122.8273         0.463423   
     60. A(C   7,C  16,O  18)          119.4166         0.428022   
     61. A(C   7,C  16,N  17)          117.7394         0.394920   
     62. A(C  16,N  17,C  19)          117.9451         0.402590   
     63. A(C  19,N  17,C  23)          115.6843         0.379378   
     64. A(C  16,N  17,C  23)          124.4382         0.401856   
     65. A(H  21,C  19,H  22)          109.2582         0.289651   
     66. A(H  20,C  19,H  22)          110.1757         0.290439   
     67. A(N  17,C  19,H  22)          108.5786         0.331596   
     68. A(H  20,C  19,H  21)          108.5793         0.288893   
     69. A(N  17,C  19,H  21)          110.9279         0.329735   
     70. A(N  17,C  19,H  20)          109.3174         0.330680   
     71. A(H  25,C  23,H  26)          108.4654         0.290207   
     72. A(H  24,C  23,H  26)          109.2871         0.289136   
     73. A(N  17,C  23,H  26)          110.6617         0.329558   
     74. A(H  24,C  23,H  25)          108.5701         0.290591   
     75. A(N  17,C  23,H  25)          111.5687         0.331308   
     76. A(N  17,C  23,H  24)          108.2430         0.330018   
     77. A(C  13,O  27,H  28)          107.7085         0.352185   
     78. D(O   5,C   4,C   0,H   2)    111.7775         0.010311   
     79. D(O   5,C   4,C   0,H   1)   -126.6251         0.010311   
     80. D(N   6,C   4,C   0,H   1)     53.0869         0.010311   
     81. D(N   6,C   4,C   0,H   2)    -68.5106         0.010311   
     82. D(O   5,C   4,C   0,H   3)     -6.2867         0.010311   
     83. D(N   6,C   4,C   0,H   3)    173.4253         0.010311   
     84. D(C   7,N   6,C   4,C   0)    174.7091         0.026786   
     85. D(C  10,N   6,C   4,C   0)      2.5686         0.026786   
     86. D(C   7,N   6,C   4,O   5)     -5.5839         0.026786   
     87. D(C  10,N   6,C   4,O   5)   -177.7244         0.026786   
     88. D(C  16,C   7,N   6,C   4)    126.3812         0.016159   
     89. D(H   9,C   7,N   6,C   4)      1.8045         0.016159   
     90. D(H   8,C   7,N   6,C  10)     56.0516         0.016159   
     91. D(H   9,C   7,N   6,C  10)    174.6171         0.016159   
     92. D(H   8,C   7,N   6,C   4)   -116.7610         0.016159   
     93. D(C  16,C   7,N   6,C  10)    -60.8062         0.016159   
     94. D(C  13,C  10,N   6,C   7)     87.9458         0.016244   
     95. D(C  13,C  10,N   6,C   4)    -99.8320         0.016244   
     96. D(H  12,C  10,N   6,C   7)    -32.7506         0.016244   
     97. D(H  12,C  10,N   6,C   4)    139.4716         0.016244   
     98. D(H  11,C  10,N   6,C   7)   -149.5424         0.016244   
     99. D(H  11,C  10,N   6,C   4)     22.6798         0.016244   
    100. D(O  27,C  13,C  10,H  11)    -63.9465         0.011851   
    101. D(O  27,C  13,C  10,N   6)     58.8516         0.011851   
    102. D(H  15,C  13,C  10,H  12)     57.3611         0.011851   
    103. D(H  15,C  13,C  10,H  11)    173.9791         0.011851   
    104. D(H  15,C  13,C  10,N   6)    -63.2229         0.011851   
    105. D(H  14,C  13,C  10,H  12)    -60.4106         0.011851   
    106. D(H  14,C  13,C  10,H  11)     56.2073         0.011851   
    107. D(O  27,C  13,C  10,H  12)    179.4356         0.011851   
    108. D(H  14,C  13,C  10,N   6)    179.0053         0.011851   
    109. D(O  18,C  16,C   7,H   9)   -131.8148         0.010859   
    110. D(O  18,C  16,C   7,H   8)    -12.8936         0.010859   
    111. D(O  18,C  16,C   7,N   6)    106.6581         0.010859   
    112. D(N  17,C  16,C   7,H   9)     49.6301         0.010859   
    113. D(N  17,C  16,C   7,H   8)    168.5513         0.010859   
    114. D(N  17,C  16,C   7,N   6)    -71.8969         0.010859   
    115. D(C  23,N  17,C  16,O  18)   -168.8595         0.030458   
    116. D(C  23,N  17,C  16,C   7)      9.6426         0.030458   
    117. D(C  19,N  17,C  16,O  18)     -5.3985         0.030458   
    118. D(C  19,N  17,C  16,C   7)    173.1037         0.030458   
    119. D(H  22,C  19,N  17,C  16)     20.4438         0.016623   
    120. D(H  21,C  19,N  17,C  23)     65.2720         0.016623   
    121. D(H  21,C  19,N  17,C  16)    -99.6273         0.016623   
    122. D(H  20,C  19,N  17,C  23)    -54.4322         0.016623   
    123. D(H  22,C  19,N  17,C  23)   -174.6569         0.016623   
    124. D(H  20,C  19,N  17,C  16)    140.6685         0.016623   
    125. D(H  26,C  23,N  17,C  19)    -72.8395         0.016280   
    126. D(H  26,C  23,N  17,C  16)     90.9573         0.016280   
    127. D(H  25,C  23,N  17,C  19)    166.2927         0.016280   
    128. D(H  25,C  23,N  17,C  16)    -29.9106         0.016280   
    129. D(H  24,C  23,N  17,C  19)     46.8954         0.016280   
    130. D(H  24,C  23,N  17,C  16)   -149.3078         0.016280   
    131. D(H  28,O  27,C  13,H  15)    -58.2601         0.018462   
    132. D(H  28,O  27,C  13,H  14)     62.2801         0.018462   
    133. D(H  28,O  27,C  13,C  10)   -179.7028         0.018462   
    -----------------------------------------------------------------

Number of atoms                         .... 29
Number of degrees of freedom            .... 133

         *************************************************************
         *                GEOMETRY OPTIMIZATION CYCLE   1            *
         *************************************************************
---------------------------------
CARTESIAN COORDINATES (ANGSTROEM)
---------------------------------
  C     -2.627000    1.776000   -0.500000
  H     -1.755000    2.429000   -0.542000
  H     -3.223000    2.042000    0.378000
  H     -3.241000    1.908000   -1.391000
  C     -2.226000    0.298000   -0.468000
  O     -2.684000   -0.496000   -1.271000
  N     -1.322000   -0.068000    0.510000
  C     -1.006000   -1.485000    0.648000
  H     -1.324000   -1.845000    1.633000
  H     -1.561000   -2.022000   -0.123000
  C     -0.777000    0.825000    1.525000
  H     -1.451000    1.672000    1.664000
  H     -0.736000    0.277000    2.475000
  C      0.617000    1.349000    1.215000
  H      0.915000    2.021000    2.035000
  H      1.336000    0.525000    1.176000
  C      0.495000   -1.743000    0.587000
  N      1.114000   -1.609000   -0.622000
  O      1.106000   -2.036000    1.627000
  C      2.565000   -1.703000   -0.659000
  H      2.869000   -2.256000   -1.552000
  H      3.022000   -0.705000   -0.693000
  H      2.902000   -2.222000    0.237000
  C      0.487000   -1.046000   -1.811000
  H      0.926000   -1.527000   -2.690000
  H     -0.586000   -1.223000   -1.819000
  H      0.661000    0.035000   -1.865000
  O      0.554000    2.049000   -0.030000
  H      1.446000    2.379000   -0.229000

----------------------------
CARTESIAN COORDINATES (A.U.)
----------------------------
  NO LB      ZA    FRAG     MASS         X           Y           Z
   0 C     6.0000    0    12.011   -4.964311    3.356154   -0.944863
   1 H     1.0000    0     1.008   -3.316469    4.590145   -1.024232
   2 H     1.0000    0     1.008   -6.090587    3.858821    0.714316
   3 H     1.0000    0     1.008   -6.124602    3.605597   -2.628609
   4 C     6.0000    0    12.011   -4.206530    0.563138   -0.884392
   5 O     8.0000    0    15.999   -5.072025   -0.937304   -2.401842
   6 N     7.0000    0    14.007   -2.498218   -0.128501    0.963760
   7 C     6.0000    0    12.011   -1.901064   -2.806243    1.224543
   8 H     1.0000    0     1.008   -2.501997   -3.486545    3.085923
   9 H     1.0000    0     1.008   -2.949862   -3.821026   -0.232436
  10 C     6.0000    0    12.011   -1.468317    1.559024    2.881832
  11 H     1.0000    0     1.008   -2.741993    3.159622    3.144504
  12 H     1.0000    0     1.008   -1.390838    0.523454    4.677072
  13 C     6.0000    0    12.011    1.165961    2.549241    2.296017
  14 H     1.0000    0     1.008    1.729099    3.819137    3.845593
  15 H     1.0000    0     1.008    2.524674    0.992106    2.222318
  16 C     6.0000    0    12.011    0.935414   -3.293793    1.109269
  17 N     7.0000    0    14.007    2.105155   -3.040569   -1.175410
  18 O     8.0000    0    15.999    2.090037   -3.847482    3.074584
  19 C     6.0000    0    12.011    4.847148   -3.218204   -1.245330
  20 H     1.0000    0     1.008    5.421624   -4.263222   -2.932855
  21 H     1.0000    0     1.008    5.710752   -1.332257   -1.309580
  22 H     1.0000    0     1.008    5.483985   -4.198971    0.447865
  23 C     6.0000    0    12.011    0.920297   -1.976654   -3.422294
  24 H     1.0000    0     1.008    1.749886   -2.885612   -5.083363
  25 H     1.0000    0     1.008   -1.107380   -2.311135   -3.437412
  26 H     1.0000    0     1.008    1.249109    0.066140   -3.524339
  27 O     8.0000    0    15.999    1.046908    3.872049   -0.056692
  28 H     1.0000    0     1.008    2.732544    4.495658   -0.432747

--------------------------------
INTERNAL COORDINATES (ANGSTROEM)
--------------------------------
 C      0   0   0     0.000000000000     0.00000000     0.00000000
 H      1   0   0     1.090209612873     0.00000000     0.00000000
 H      1   2   0     1.094009140730   108.72511220     0.00000000
 H      1   2   3     1.090092197936   110.27335506   119.01567465
 C      1   2   3     1.531766627134   111.67594868   237.02346708
 O      5   1   2     1.218609453435   121.10013708   233.37494446
 N      5   1   2     1.381179206331   116.22048692    53.08688263
 C      7   5   1     1.458351466554   117.79463547   174.70913823
 H      8   7   5     1.095878186661   109.96008958   243.23901906
 H      8   7   5     1.091253865973   107.52258583     1.80446666
 C      7   5   1     1.457634727907   125.13061404     2.56859919
 H     11   7   5     1.091332213398   109.46630869    22.67983302
 H     11   7   5     1.097490318864   108.10864737   139.47163010
 C     11   7   5     1.521154824467   114.31605160   260.16798893
 H     14  11   7     1.101266543576   107.84455491   179.00534127
 H     14  11   7     1.094284240954   110.48725951   296.77710697
 C      8   7   5     1.524232921833   111.96617841   126.38122932
 N     17   8   7     1.364843580781   117.73941049   288.10308111
 O     17   8   7     1.241277567670   119.41658166   106.65813705
 C     18  17   8     1.454512289395   117.94508571   173.10367286
 H     20  18  17     1.093468792422   109.31739958   140.66848039
 H     20  18  17     1.098184410743   110.92792768   260.37270810
 H     20  18  17     1.088919648092   108.57856015    20.44381074
 C     18  17   8     1.457332837755   124.43816366     9.64264357
 H     24  18  17     1.093948353443   108.24298357   210.69222344
 H     24  18  17     1.087530229465   111.56865642   330.08944254
 H     24  18  17     1.096244954378   110.66173472    90.95728296
 O     14  11   7     1.429683181687   107.80307651    58.85157525
 H     28  14  11     0.971681532190   107.70854030   180.29722642

---------------------------
INTERNAL COORDINATES (A.U.)
---------------------------
 C      0   0   0     0.000000000000     0.00000000     0.00000000
 H      1   0   0     2.060197596898     0.00000000     0.00000000
 H      1   2   0     2.067377663986   108.72511220     0.00000000
 H      1   2   3     2.059975714823   110.27335506   119.01567465
 C      1   2   3     2.894619426363   111.67594868   237.02346708
 O      5   1   2     2.302838131199   121.10013708   233.37494446
 N      5   1   2     2.610050441832   116.22048692    53.08688263
 C      7   5   1     2.755884878789   117.79463547   174.70913823
 H      8   7   5     2.070909648928   109.96008958   243.23901906
 H      8   7   5     2.062170949271   107.52258583     1.80446666
 C      7   5   1     2.754530439037   125.13061404     2.56859919
 H     11   7   5     2.062319004448   109.46630869    22.67983302
 H     11   7   5     2.073956137283   108.10864737   139.47163010
 C     11   7   5     2.874566025536   114.31605160   260.16798893
 H     14  11   7     2.081092167809   107.84455491   179.00534127
 H     14  11   7     2.067897528069   110.48725951   296.77710697
 C      8   7   5     2.880382786571   111.96617841   126.38122932
 N     17   8   7     2.579180583317   117.73941049   288.10308111
 O     17   8   7     2.345674659076   119.41658166   106.65813705
 C     18  17   8     2.748629885379   117.94508571   173.10367286
 H     20  18  17     2.066356553666   109.31739958   140.66848039
 H     20  18  17     2.075267780847   110.92792768   260.37270810
 H     20  18  17     2.057759916739   108.57856015    20.44381074
 C     18  17   8     2.753959949328   124.43816366     9.64264357
 H     24  18  17     2.067262792661   108.24298357   210.69222344
 H     24  18  17     2.055134296049   111.56865642   330.08944254
 H     24  18  17     2.071602739468   110.66173472    90.95728296
 O     14  11   7     2.701709671662   107.80307651    58.85157525
 H     28  14  11     1.836211985229   107.70854030   180.29722642

---------------------
BASIS SET INFORMATION
---------------------
There are 4 groups of distinct atoms

 Group   1 Type C   : 10s4p1d contracted to 3s2p1d pattern {631/31/1}
 Group   2 Type H   : 4s contracted to 2s pattern {31}
 Group   3 Type O   : 10s4p1d contracted to 3s2p1d pattern {631/31/1}
 Group   4 Type N   : 10s4p1d contracted to 3s2p1d pattern {631/31/1}

Atom   0C    basis set group =>   1
Atom   1H    basis set group =>   2
Atom   2H    basis set group =>   2
Atom   3H    basis set group =>   2
Atom   4C    basis set group =>   1
Atom   5O    basis set group =>   3
Atom   6N    basis set group =>   4
Atom   7C    basis set group =>   1
Atom   8H    basis set group =>   2
Atom   9H    basis set group =>   2
Atom  10C    basis set group =>   1
Atom  11H    basis set group =>   2
Atom  12H    basis set group =>   2
Atom  13C    basis set group =>   1
Atom  14H    basis set group =>   2
Atom  15H    basis set group =>   2
Atom  16C    basis set group =>   1
Atom  17N    basis set group =>   4
Atom  18O    basis set group =>   3
Atom  19C    basis set group =>   1
Atom  20H    basis set group =>   2
Atom  21H    basis set group =>   2
Atom  22H    basis set group =>   2
Atom  23C    basis set group =>   1
Atom  24H    basis set group =>   2
Atom  25H    basis set group =>   2
Atom  26H    basis set group =>   2
Atom  27O    basis set group =>   3
Atom  28H    basis set group =>   2
---------------------------------
AUXILIARY/J BASIS SET INFORMATION
---------------------------------
There are 4 groups of distinct atoms

 Group   1 Type C   : 13s11p10d2f contracted to 13s11p10d2f pattern {1111111111111/11111111111/1111111111/11}
 Group   2 Type H   : 9s2p contracted to 9s2p pattern {111111111/11}
 Group   3 Type O   : 14s11p10d2f contracted to 14s11p10d2f pattern {11111111111111/11111111111/1111111111/11}
 Group   4 Type N   : 14s11p10d2f contracted to 14s11p10d2f pattern {11111111111111/11111111111/1111111111/11}

Atom   0C    basis set group =>   1
Atom   1H    basis set group =>   2
Atom   2H    basis set group =>   2
Atom   3H    basis set group =>   2
Atom   4C    basis set group =>   1
Atom   5O    basis set group =>   3
Atom   6N    basis set group =>   4
Atom   7C    basis set group =>   1
Atom   8H    basis set group =>   2
Atom   9H    basis set group =>   2
Atom  10C    basis set group =>   1
Atom  11H    basis set group =>   2
Atom  12H    basis set group =>   2
Atom  13C    basis set group =>   1
Atom  14H    basis set group =>   2
Atom  15H    basis set group =>   2
Atom  16C    basis set group =>   1
Atom  17N    basis set group =>   4
Atom  18O    basis set group =>   3
Atom  19C    basis set group =>   1
Atom  20H    basis set group =>   2
Atom  21H    basis set group =>   2
Atom  22H    basis set group =>   2
Atom  23C    basis set group =>   1
Atom  24H    basis set group =>   2
Atom  25H    basis set group =>   2
Atom  26H    basis set group =>   2
Atom  27O    basis set group =>   3
Atom  28H    basis set group =>   2
---------------------------------
AUXILIARY/C BASIS SET INFORMATION
---------------------------------
There are 4 groups of distinct atoms

 Group   1 Type C   : 13s11p10d2f contracted to 13s11p10d2f pattern {1111111111111/11111111111/1111111111/11}
 Group   2 Type H   : 9s2p contracted to 9s2p pattern {111111111/11}
 Group   3 Type O   : 14s11p10d2f contracted to 14s11p10d2f pattern {11111111111111/11111111111/1111111111/11}
 Group   4 Type N   : 14s11p10d2f contracted to 14s11p10d2f pattern {11111111111111/11111111111/1111111111/11}

Atom   0C    basis set group =>   1
Atom   1H    basis set group =>   2
Atom   2H    basis set group =>   2
Atom   3H    basis set group =>   2
Atom   4C    basis set group =>   1
Atom   5O    basis set group =>   3
Atom   6N    basis set group =>   4
Atom   7C    basis set group =>   1
Atom   8H    basis set group =>   2
Atom   9H    basis set group =>   2
Atom  10C    basis set group =>   1
Atom  11H    basis set group =>   2
Atom  12H    basis set group =>   2
Atom  13C    basis set group =>   1
Atom  14H    basis set group =>   2
Atom  15H    basis set group =>   2
Atom  16C    basis set group =>   1
Atom  17N    basis set group =>   4
Atom  18O    basis set group =>   3
Atom  19C    basis set group =>   1
Atom  20H    basis set group =>   2
Atom  21H    basis set group =>   2
Atom  22H    basis set group =>   2
Atom  23C    basis set group =>   1
Atom  24H    basis set group =>   2
Atom  25H    basis set group =>   2
Atom  26H    basis set group =>   2
Atom  27O    basis set group =>   3
Atom  28H    basis set group =>   2
----------------------------------
AUXILIARY/JK BASIS SET INFORMATION
----------------------------------
There are 4 groups of distinct atoms

 Group   1 Type C   : 13s11p10d2f contracted to 13s11p10d2f pattern {1111111111111/11111111111/1111111111/11}
 Group   2 Type H   : 9s2p contracted to 9s2p pattern {111111111/11}
 Group   3 Type O   : 14s11p10d2f contracted to 14s11p10d2f pattern {11111111111111/11111111111/1111111111/11}
 Group   4 Type N   : 14s11p10d2f contracted to 14s11p10d2f pattern {11111111111111/11111111111/1111111111/11}

Atom   0C    basis set group =>   1
Atom   1H    basis set group =>   2
Atom   2H    basis set group =>   2
Atom   3H    basis set group =>   2
Atom   4C    basis set group =>   1
Atom   5O    basis set group =>   3
Atom   6N    basis set group =>   4
Atom   7C    basis set group =>   1
Atom   8H    basis set group =>   2
Atom   9H    basis set group =>   2
Atom  10C    basis set group =>   1
Atom  11H    basis set group =>   2
Atom  12H    basis set group =>   2
Atom  13C    basis set group =>   1
Atom  14H    basis set group =>   2
Atom  15H    basis set group =>   2
Atom  16C    basis set group =>   1
Atom  17N    basis set group =>   4
Atom  18O    basis set group =>   3
Atom  19C    basis set group =>   1
Atom  20H    basis set group =>   2
Atom  21H    basis set group =>   2
Atom  22H    basis set group =>   2
Atom  23C    basis set group =>   1
Atom  24H    basis set group =>   2
Atom  25H    basis set group =>   2
Atom  26H    basis set group =>   2
Atom  27O    basis set group =>   3
Atom  28H    basis set group =>   2


           ************************************************************
           *        Program running with 4 parallel MPI-processes     *
           *              working on a common directory               *
           ************************************************************
------------------------------------------------------------------------------
                           ORCA GTO INTEGRAL CALCULATION
                           -- RI-GTO INTEGRALS CHOSEN --
------------------------------------------------------------------------------
------------------------------------------------------------------------------
                   ___                                                        
                  /   \      - P O W E R E D   B Y -                         
                 /     \                                                     
                 |  |  |   _    _      __       _____    __    __             
                 |  |  |  | |  | |    /  \     |  _  \  |  |  /  |          
                  \  \/   | |  | |   /    \    | | | |  |  | /  /          
                 / \  \   | |__| |  /  /\  \   | |_| |  |  |/  /          
                |  |  |   |  __  | /  /__\  \  |    /   |      \           
                |  |  |   | |  | | |   __   |  |    \   |  |\   \          
                \     /   | |  | | |  |  |  |  | |\  \  |  | \   \       
                 \___/    |_|  |_| |__|  |__|  |_| \__\ |__|  \__/        
                                                                              
                      - O R C A' S   B I G   F R I E N D -                    
                                      &                                       
                       - I N T E G R A L  F E E D E R -                       
                                                                              
 v1 FN, 2020, v2 2021                                                         
------------------------------------------------------------------------------


Reading SHARK input file Nse_gas.SHARKINP.tmp ... ok
----------------------
SHARK INTEGRAL PACKAGE
----------------------

Number of atoms                             ...     29
Number of basis functions                   ...    214
Number of shells                            ...    110
Maximum angular momentum                    ...      2
Integral batch strategy                     ... SHARK/LIBINT Hybrid
RI-J (if used) integral strategy            ... SPLIT-RIJ (Revised 2003 algorithm where possible)
Printlevel                                  ...      1
Contraction scheme used                     ... SEGMENTED contraction
Coulomb Range Separation                    ... NOT USED
Exchange Range Separation                   ... NOT USED
Finite Nucleus Model                        ... NOT USED
Auxiliary Coulomb fitting basis             ... AVAILABLE
   # of basis functions in Aux-J            ...   1675
   # of shells in Aux-J                     ...    649
   Maximum angular momentum in Aux-J        ...      3
Auxiliary J/K fitting basis                 ... AVAILABLE
   # of basis functions in Aux-JK           ...   1675
   # of shells in Aux-JK                    ...    649
   Maximum angular momentum in Aux-JK       ...      3
Auxiliary Correlation fitting basis         ... AVAILABLE
   # of basis functions in Aux-C            ...   1675
   # of shells in Aux-C                     ...    649
   Maximum angular momentum in Aux-C        ...      3
Auxiliary 'external' fitting basis          ... NOT available
Integral threshold                          ...     2.500000e-11
Primitive cut-off                           ...     2.500000e-12
Primitive pair pre-selection threshold      ...     2.500000e-12

Calculating pre-screening integrals         ... done (  0.0 sec) Dimension = 110
Organizing shell pair data                  ... done (  0.4 sec)
Shell pair information
Total number of shell pairs                 ...      6105
Shell pairs after pre-screening             ...      5532
Total number of primitive shell pairs       ...     33991
Primitive shell pairs kept                  ...     18427
          la=0 lb=0:   2227 shell pairs
          la=1 lb=0:   1741 shell pairs
          la=1 lb=1:    345 shell pairs
          la=2 lb=0:    807 shell pairs
          la=2 lb=1:    327 shell pairs
          la=2 lb=2:     85 shell pairs

Calculating one electron integrals          ... done (  0.0 sec)
Calculating RI/J V-Matrix + Cholesky decomp.... done (  3.8 sec)
Calculating RI/JK V-Matrix + Cholesky decomp... done (  1.2 sec)
Calculating RI/C V-Matrix + Cholesky decomp.... done (  1.2 sec)
Calculating Nuclear repulsion               ... done (  0.0 sec) ENN=    911.200231397778 Eh

SHARK setup successfully completed in   7.4 seconds

Maximum memory used throughout the entire GTOINT-calculation: 26.1 MB


           ************************************************************
           *        Program running with 4 parallel MPI-processes     *
           *              working on a common directory               *
           ************************************************************
-------------------------------------------------------------------------------
                                 ORCA SCF
-------------------------------------------------------------------------------

------------
SCF SETTINGS
------------
Hamiltonian:
 Density Functional     Method          .... DFT(GTOs)
 Exchange Functional    Exchange        .... B88
   X-Alpha parameter    XAlpha          ....  0.666667
   Becke's b parameter  XBeta           ....  0.004200
 Correlation Functional Correlation     .... LYP
 LDA part of GGA corr.  LDAOpt          .... VWN-5
 Gradients option       PostSCFGGA      .... off
 Hybrid DFT is turned on
   Fraction HF Exchange ScalHFX         ....  0.200000
   Scaling of DF-GGA-X  ScalDFX         ....  0.720000
   Scaling of DF-GGA-C  ScalDFC         ....  0.810000
   Scaling of DF-LDA-C  ScalLDAC        ....  1.000000
   Perturbative correction              ....  0.000000
   Density functional embedding theory  .... OFF
   NL short-range parameter             ....  4.800000
 RI-approximation to the Coulomb term is turned on
   Number of AuxJ basis functions       .... 1675
   RIJ-COSX (HFX calculated with COS-X)).... on


General Settings:
 Integral files         IntName         .... Nse_gas
 Hartree-Fock type      HFTyp           .... RHF
 Total Charge           Charge          ....    0
 Multiplicity           Mult            ....    1
 Number of Electrons    NEL             ....  102
 Basis Dimension        Dim             ....  214
 Nuclear Repulsion      ENuc            ....    911.2002313978 Eh

Convergence Acceleration:
 DIIS                   CNVDIIS         .... on
   Start iteration      DIISMaxIt       ....    12
   Startup error        DIISStart       ....  0.200000
   # of expansion vecs  DIISMaxEq       ....     5
   Bias factor          DIISBfac        ....   1.050
   Max. coefficient     DIISMaxC        ....  10.000
 Trust-Rad. Augm. Hess. CNVTRAH         .... auto
   Auto Start mean grad. ratio tolernc. ....  1.125000
   Auto Start start iteration           ....    20
   Auto Start num. interpolation iter.  ....    10
   Max. Number of Micro iterations      ....    16
   Max. Number of Macro iterations      .... Maxiter - #DIIS iter
   Number of Davidson start vectors     ....     2
   Converg. threshold I  (grad. norm)   ....   1.000e-05
   Converg. threshold II (energy diff.) ....   1.000e-08
   Grad. Scal. Fac. for Micro threshold ....   0.100
   Minimum threshold for Micro iter.    ....   0.010
   NR start threshold (gradient norm)   ....   0.001
   Initial trust radius                 ....   0.400
   Minimum AH scaling param. (alpha)    ....   1.000
   Maximum AH scaling param. (alpha)    .... 1000.000
   Orbital update algorithm             .... Taylor
   White noise on init. David. guess    .... on
   Maximum white noise                  ....   0.010
   Quad. conv. algorithm                .... NR
 SOSCF                  CNVSOSCF        .... on
   Start iteration      SOSCFMaxIt      ....   150
   Startup grad/error   SOSCFStart      ....  0.003300
 Level Shifting         CNVShift        .... on
   Level shift para.    LevelShift      ....    0.2500
   Turn off err/grad.   ShiftErr        ....    0.0010
 Zerner damping         CNVZerner       .... off
 Static damping         CNVDamp         .... on
   Fraction old density DampFac         ....    0.7000
   Max. Damping (<1)    DampMax         ....    0.9800
   Min. Damping (>=0)   DampMin         ....    0.0000
   Turn off err/grad.   DampErr         ....    0.1000
 Fernandez-Rico         CNVRico         .... off

SCF Procedure:
 Maximum # iterations   MaxIter         ....   125
 SCF integral mode      SCFMode         .... Direct
   Integral package                     .... SHARK and LIBINT hybrid scheme
 Reset frequency        DirectResetFreq ....    20
 Integral Threshold     Thresh          ....  2.500e-11 Eh
 Primitive CutOff       TCut            ....  2.500e-12 Eh

Convergence Tolerance:
 Convergence Check Mode ConvCheckMode   .... Total+1el-Energy
 Convergence forced     ConvForced      .... 0
 Energy Change          TolE            ....  1.000e-08 Eh
 1-El. energy change                    ....  1.000e-05 Eh
 Orbital Gradient       TolG            ....  1.000e-05
 Orbital Rotation angle TolX            ....  1.000e-05
 DIIS Error             TolErr          ....  5.000e-07


Diagonalization of the overlap matrix:
Smallest eigenvalue                        ... 3.213e-03
Time for diagonalization                   ...    0.008 sec
Threshold for overlap eigenvalues          ... 1.000e-08
Number of eigenvalues below threshold      ... 0
Time for construction of square roots      ...    0.005 sec
Total time needed                          ...    0.013 sec

Time for model grid setup =    0.824 sec

------------------------------
INITIAL GUESS: MODEL POTENTIAL
------------------------------
Loading Hartree-Fock densities                     ... done
Calculating cut-offs                               ... done
Initializing the effective Hamiltonian             ... done
Setting up the integral package (SHARK)            ... done
Starting the Coulomb interaction                   ... done (   0.1 sec)
Reading the grid                                   ... done
Mapping shells                                     ... done
Starting the XC term evaluation                    ... done (   0.1 sec)
  promolecular density results
     # of electrons  =    101.989634569
     EX              =    -83.654284209
     EC              =     -3.465780594
     EX+EC           =    -87.120064802
Transforming the Hamiltonian                       ... done (   0.0 sec)
Diagonalizing the Hamiltonian                      ... done (   0.0 sec)
Back transforming the eigenvectors                 ... done (   0.0 sec)
Now organizing SCF variables                       ... done
                      ------------------
                      INITIAL GUESS DONE (   1.1 sec)
                      ------------------
-------------------
DFT GRID GENERATION
-------------------

General Integration Accuracy     IntAcc      ... 4.388
Radial Grid Type                 RadialGrid  ... OptM3 with GC (2021)
Angular Grid (max. ang.)         AngularGrid ... 4 (Lebedev-302)
Angular grid pruning method      GridPruning ... 4 (adaptive)
Weight generation scheme         WeightScheme... Becke
Basis function cutoff            BFCut       ... 1.0000e-11
Integration weight cutoff        WCut        ... 1.0000e-14
Angular grids for H and He will be reduced by one unit
Partially contracted basis set               ... off
Rotationally invariant grid construction     ... off

Total number of grid points                  ...   128642
Total number of batches                      ...     2022
Average number of points per batch           ...       63
Average number of grid points per atom       ...     4436
Time for grid setup =    0.985 sec

--------------------
COSX GRID GENERATION
--------------------

GRIDX 1
-------
General Integration Accuracy     IntAcc      ... 3.816
Radial Grid Type                 RadialGrid  ... OptM3 with GC (2021)
Angular Grid (max. ang.)         AngularGrid ... 1 (Lebedev-50)
Angular grid pruning method      GridPruning ... 4 (adaptive)
Weight generation scheme         WeightScheme... Becke
Basis function cutoff            BFCut       ... 1.0000e-11
Integration weight cutoff        WCut        ... 1.0000e-14
Angular grids for H and He will be reduced by one unit
Partially contracted basis set               ... on
Rotationally invariant grid construction     ... off

Total number of grid points                  ...    16410
Total number of batches                      ...      274
Average number of points per batch           ...       59
Average number of grid points per atom       ...      566
UseSFitting                                  ... on

GRIDX 2
-------
General Integration Accuracy     IntAcc      ... 4.020
Radial Grid Type                 RadialGrid  ... OptM3 with GC (2021)
Angular Grid (max. ang.)         AngularGrid ... 2 (Lebedev-110)
Angular grid pruning method      GridPruning ... 4 (adaptive)
Weight generation scheme         WeightScheme... Becke
Basis function cutoff            BFCut       ... 1.0000e-11
Integration weight cutoff        WCut        ... 1.0000e-14
Angular grids for H and He will be reduced by one unit
Partially contracted basis set               ... on
Rotationally invariant grid construction     ... off

Total number of grid points                  ...    34731
Total number of batches                      ...      558
Average number of points per batch           ...       62
Average number of grid points per atom       ...     1198
UseSFitting                                  ... on

GRIDX 3
-------
General Integration Accuracy     IntAcc      ... 4.338
Radial Grid Type                 RadialGrid  ... OptM3 with GC (2021)
Angular Grid (max. ang.)         AngularGrid ... 3 (Lebedev-194)
Angular grid pruning method      GridPruning ... 4 (adaptive)
Weight generation scheme         WeightScheme... Becke
Basis function cutoff            BFCut       ... 1.0000e-11
Integration weight cutoff        WCut        ... 1.0000e-14
Angular grids for H and He will be reduced by one unit
Partially contracted basis set               ... on
Rotationally invariant grid construction     ... off

Total number of grid points                  ...    75708
Total number of batches                      ...     1198
Average number of points per batch           ...       63
Average number of grid points per atom       ...     2611
UseSFitting                                  ... on

Time for X-Grid setup             =    3.924 sec

--------------
SCF ITERATIONS
--------------
ITER       Energy         Delta-E        Max-DP      RMS-DP      [F,P]     Damp
               ***  Starting incremental Fock matrix formation  ***
  0   -648.8558581230   0.000000000000 0.10381524  0.00250112  0.2791597 0.7000
  1   -649.0548283965  -0.198970273497 0.06057870  0.00162943  0.1100373 0.7000
                               ***Turning on DIIS***
  2   -649.1279168011  -0.073088404640 0.06625849  0.00241196  0.0392985 0.0000
  3   -649.2505651846  -0.122648383468 0.03929915  0.00113797  0.0547371 0.0000
  4   -649.2738166316  -0.023251447051 0.00913400  0.00036252  0.0122997 0.0000
  5   -649.2756121898  -0.001795558188 0.00332859  0.00010327  0.0043728 0.0000
                      *** Initiating the SOSCF procedure ***
                           *** Shutting down DIIS ***
                      *** Re-Reading the Fockian *** 
                      *** Removing any level shift *** 
ITER      Energy       Delta-E        Grad      Rot      Max-DP    RMS-DP
  6   -649.27570677  -0.0000945780  0.000220  0.000220  0.001056  0.000032
               *** Restarting incremental Fock matrix formation ***
  7   -649.27574351  -0.0000367446  0.000117  0.000286  0.000696  0.000020
  8   -649.27574329   0.0000002224  0.000171  0.000239  0.000448  0.000009
  9   -649.27574492  -0.0000016253  0.000038  0.000121  0.000192  0.000004
 10   -649.27574484   0.0000000776  0.000069  0.000086  0.000154  0.000002
 11   -649.27574496  -0.0000001191  0.000008  0.000015  0.000036  0.000001
 12   -649.27574495   0.0000000076  0.000007  0.000007  0.000017  0.000001
                  ***Gradient check signals convergence***
              ***Rediagonalizing the Fockian in SOSCF/NRSCF***

               *****************************************************
               *                     SUCCESS                       *
               *           SCF CONVERGED AFTER  13 CYCLES          *
               *****************************************************

Old exchange energy                            =    -17.035723702 Eh
New exchange energy                            =    -17.035694732 Eh
Exchange energy change after final integration =      0.000028971 Eh
Total energy after final integration           =   -649.275715997 Eh
Final COS-X integration done in                =     7.490 sec

----------------
TOTAL SCF ENERGY
----------------

Total Energy       :         -649.27571600 Eh          -17667.69044 eV

Components:
Nuclear Repulsion  :          911.20023140 Eh           24795.01885 eV
Electronic Energy  :        -1560.47594739 Eh          -42462.70929 eV
One Electron Energy:        -2693.96076680 Eh          -73306.39929 eV
Two Electron Energy:         1133.48481941 Eh           30843.69000 eV
Max COSX asymmetry :            0.00000281 Eh               0.00008 eV

Virial components:
Potential Energy   :        -1294.83708020 Eh          -35234.30823 eV
Kinetic Energy     :          645.56136420 Eh           17566.61779 eV
Virial Ratio       :            2.00575368


DFT components:
N(Alpha)           :       51.000234448289 electrons
N(Beta)            :       51.000234448289 electrons
N(Total)           :      102.000468896577 electrons
E(X)               :      -67.672529538575 Eh       
E(C)               :       -4.081417177412 Eh       
E(XC)              :      -71.753946715987 Eh       
DFET-embed. en.    :        0.000000000000 Eh       

---------------
SCF CONVERGENCE
---------------

  Last Energy change         ...   -1.7968e-08  Tolerance :   1.0000e-08
  Last MAX-Density change    ...    2.6645e-15  Tolerance :   1.0000e-07
  Last RMS-Density change    ...    3.6921e-17  Tolerance :   5.0000e-09
  Last Orbital Gradient      ...    4.9294e-07  Tolerance :   1.0000e-05
  Last Orbital Rotation      ...    1.7960e-06  Tolerance :   1.0000e-05

             **** THE GBW FILE WAS UPDATED (Nse_gas.gbw) ****
             **** DENSITY Nse_gas.scfp WAS UPDATED ****
             **** ENERGY FILE WAS UPDATED (Nse_gas.en.tmp) ****
             **** THE GBW FILE WAS UPDATED (Nse_gas.gbw) ****
             **** DENSITY Nse_gas.scfp WAS UPDATED ****
----------------
ORBITAL ENERGIES
----------------

  NO   OCC          E(Eh)            E(eV) 
   0   2.0000     -19.153451      -521.1919 
   1   2.0000     -19.105136      -519.8772 
   2   2.0000     -19.099252      -519.7171 
   3   2.0000     -14.357264      -390.6810 
   4   2.0000     -14.355412      -390.6306 
   5   2.0000     -10.278121      -279.6819 
   6   2.0000     -10.272205      -279.5209 
   7   2.0000     -10.232904      -278.4515 
   8   2.0000     -10.221295      -278.1356 
   9   2.0000     -10.208044      -277.7750 
  10   2.0000     -10.201079      -277.5855 
  11   2.0000     -10.198202      -277.5072 
  12   2.0000     -10.168920      -276.7104 
  13   2.0000      -1.034437       -28.1485 
  14   2.0000      -1.027511       -27.9600 
  15   2.0000      -1.018596       -27.7174 
  16   2.0000      -0.933365       -25.3981 
  17   2.0000      -0.924530       -25.1578 
  18   2.0000      -0.766700       -20.8630 
  19   2.0000      -0.748603       -20.3705 
  20   2.0000      -0.718123       -19.5411 
  21   2.0000      -0.703691       -19.1484 
  22   2.0000      -0.668882       -18.2012 
  23   2.0000      -0.636799       -17.3282 
  24   2.0000      -0.554265       -15.0823 
  25   2.0000      -0.541289       -14.7292 
  26   2.0000      -0.531679       -14.4677 
  27   2.0000      -0.510264       -13.8850 
  28   2.0000      -0.478585       -13.0230 
  29   2.0000      -0.472066       -12.8456 
  30   2.0000      -0.462558       -12.5868 
  31   2.0000      -0.457502       -12.4493 
  32   2.0000      -0.453501       -12.3404 
  33   2.0000      -0.438170       -11.9232 
  34   2.0000      -0.415257       -11.2997 
  35   2.0000      -0.405957       -11.0466 
  36   2.0000      -0.401500       -10.9254 
  37   2.0000      -0.397855       -10.8262 
  38   2.0000      -0.395629       -10.7656 
  39   2.0000      -0.393130       -10.6976 
  40   2.0000      -0.384865       -10.4727 
  41   2.0000      -0.378585       -10.3018 
  42   2.0000      -0.370502       -10.0819 
  43   2.0000      -0.356095        -9.6898 
  44   2.0000      -0.350633        -9.5412 
  45   2.0000      -0.340188        -9.2570 
  46   2.0000      -0.281809        -7.6684 
  47   2.0000      -0.252692        -6.8761 
  48   2.0000      -0.245763        -6.6875 
  49   2.0000      -0.233795        -6.3619 
  50   2.0000      -0.230203        -6.2641 
  51   0.0000       0.020297         0.5523 
  52   0.0000       0.034364         0.9351 
  53   0.0000       0.053111         1.4452 
  54   0.0000       0.101770         2.7693 
  55   0.0000       0.104599         2.8463 
  56   0.0000       0.119650         3.2559 
  57   0.0000       0.125648         3.4191 
  58   0.0000       0.141762         3.8575 
  59   0.0000       0.148543         4.0421 
  60   0.0000       0.160621         4.3707 
  61   0.0000       0.162619         4.4251 
  62   0.0000       0.168581         4.5873 
  63   0.0000       0.173964         4.7338 
  64   0.0000       0.178014         4.8440 
  65   0.0000       0.185177         5.0389 
  66   0.0000       0.190669         5.1884 
  67   0.0000       0.196899         5.3579 
  68   0.0000       0.199654         5.4329 
  69   0.0000       0.207416         5.6441 
  70   0.0000       0.217188         5.9100 
  71   0.0000       0.227469         6.1898 
  72   0.0000       0.229950         6.2573 
  73   0.0000       0.241730         6.5778 
  74   0.0000       0.245644         6.6843 
  75   0.0000       0.265685         7.2297 
  76   0.0000       0.285828         7.7778 
  77   0.0000       0.338983         9.2242 
  78   0.0000       0.362136         9.8542 
  79   0.0000       0.380776        10.3614 
  80   0.0000       0.422475        11.4961 
  81   0.0000       0.472794        12.8654 
  82   0.0000       0.493962        13.4414 
  83   0.0000       0.501006        13.6331 
  84   0.0000       0.520250        14.1567 
  85   0.0000       0.527738        14.3605 
  86   0.0000       0.534677        14.5493 
  87   0.0000       0.558738        15.2040 
  88   0.0000       0.563616        15.3368 
  89   0.0000       0.570704        15.5297 
  90   0.0000       0.587794        15.9947 
  91   0.0000       0.605938        16.4884 
  92   0.0000       0.611055        16.6277 
  93   0.0000       0.633161        17.2292 
  94   0.0000       0.645261        17.5585 
  95   0.0000       0.670899        18.2561 
  96   0.0000       0.679475        18.4895 
  97   0.0000       0.687130        18.6977 
  98   0.0000       0.694659        18.9026 
  99   0.0000       0.721465        19.6321 
 100   0.0000       0.737795        20.0764 
 101   0.0000       0.752764        20.4837 
 102   0.0000       0.773453        21.0467 
 103   0.0000       0.796801        21.6820 
 104   0.0000       0.798777        21.7358 
 105   0.0000       0.813162        22.1273 
 106   0.0000       0.823223        22.4010 
 107   0.0000       0.840962        22.8837 
 108   0.0000       0.847365        23.0580 
 109   0.0000       0.854552        23.2535 
 110   0.0000       0.865782        23.5591 
 111   0.0000       0.875611        23.8266 
 112   0.0000       0.880534        23.9605 
 113   0.0000       0.886618        24.1261 
 114   0.0000       0.894735        24.3470 
 115   0.0000       0.905999        24.6535 
 116   0.0000       0.925421        25.1820 
 117   0.0000       0.933279        25.3958 
 118   0.0000       0.936760        25.4905 
 119   0.0000       0.942171        25.6378 
 120   0.0000       0.957773        26.0623 
 121   0.0000       0.970524        26.4093 
 122   0.0000       0.973115        26.4798 
 123   0.0000       0.988716        26.9043 
 124   0.0000       1.010804        27.5054 
 125   0.0000       1.015051        27.6209 
 126   0.0000       1.025682        27.9102 
 127   0.0000       1.049767        28.5656 
 128   0.0000       1.050115        28.5751 
 129   0.0000       1.099554        29.9204 
 130   0.0000       1.109295        30.1855 
 131   0.0000       1.120761        30.4975 
 132   0.0000       1.143829        31.1252 
 133   0.0000       1.161393        31.6031 
 134   0.0000       1.196518        32.5589 
 135   0.0000       1.243498        33.8373 
 136   0.0000       1.259605        34.2756 
 137   0.0000       1.285271        34.9740 
 138   0.0000       1.291196        35.1352 
 139   0.0000       1.324011        36.0282 
 140   0.0000       1.357419        36.9372 
 141   0.0000       1.372009        37.3343 
 142   0.0000       1.406093        38.2617 
 143   0.0000       1.427230        38.8369 
 144   0.0000       1.438440        39.1419 
 145   0.0000       1.450410        39.4677 
 146   0.0000       1.468512        39.9602 
 147   0.0000       1.494940        40.6794 
 148   0.0000       1.551044        42.2060 
 149   0.0000       1.589946        43.2646 
 150   0.0000       1.595617        43.4189 
 151   0.0000       1.608298        43.7640 
 152   0.0000       1.654575        45.0233 
 153   0.0000       1.705313        46.4039 
 154   0.0000       1.727776        47.0152 
 155   0.0000       1.759541        47.8796 
 156   0.0000       1.767258        48.0895 
 157   0.0000       1.772566        48.2340 
 158   0.0000       1.787024        48.6274 
 159   0.0000       1.805247        49.1233 
 160   0.0000       1.832032        49.8521 
 161   0.0000       1.837984        50.0141 
 162   0.0000       1.859255        50.5929 
 163   0.0000       1.874877        51.0180 
 164   0.0000       1.895026        51.5663 
 165   0.0000       1.916233        52.1434 
 166   0.0000       1.933371        52.6097 
 167   0.0000       1.953206        53.1494 
 168   0.0000       1.957940        53.2783 
 169   0.0000       1.972071        53.6628 
 170   0.0000       1.997426        54.3527 
 171   0.0000       2.021593        55.0104 
 172   0.0000       2.036975        55.4289 
 173   0.0000       2.037811        55.4517 
 174   0.0000       2.043266        55.6001 
 175   0.0000       2.057603        55.9902 
 176   0.0000       2.088962        56.8436 
 177   0.0000       2.095547        57.0227 
 178   0.0000       2.106297        57.3153 
 179   0.0000       2.120908        57.7129 
 180   0.0000       2.158435        58.7340 
 181   0.0000       2.196891        59.7805 
 182   0.0000       2.202497        59.9330 
 183   0.0000       2.233738        60.7831 
 184   0.0000       2.264485        61.6198 
 185   0.0000       2.277674        61.9787 
 186   0.0000       2.289675        62.3052 
 187   0.0000       2.296185        62.4824 
 188   0.0000       2.314088        62.9695 
 189   0.0000       2.341589        63.7179 
 190   0.0000       2.375425        64.6386 
 191   0.0000       2.378434        64.7205 
 192   0.0000       2.396830        65.2211 
 193   0.0000       2.419892        65.8486 
 194   0.0000       2.434105        66.2354 
 195   0.0000       2.456831        66.8538 
 196   0.0000       2.504871        68.1610 
 197   0.0000       2.529070        68.8195 
 198   0.0000       2.562567        69.7310 
 199   0.0000       2.575723        70.0890 
 200   0.0000       2.614863        71.1540 
 201   0.0000       2.652942        72.1902 
 202   0.0000       2.663877        72.4878 
 203   0.0000       2.679573        72.9149 
 204   0.0000       2.718160        73.9649 
 205   0.0000       2.734602        74.4123 
 206   0.0000       2.743483        74.6540 
 207   0.0000       2.848577        77.5137 
 208   0.0000       2.941134        80.0323 
 209   0.0000       2.967589        80.7522 
 210   0.0000       3.013893        82.0122 
 211   0.0000       3.021343        82.2149 
 212   0.0000       3.167750        86.1988 
 213   0.0000       3.189137        86.7808 

                    ********************************
                    * MULLIKEN POPULATION ANALYSIS *
                    ********************************

-----------------------
MULLIKEN ATOMIC CHARGES
-----------------------
   0 C :   -0.566954
   1 H :    0.200487
   2 H :    0.163612
   3 H :    0.178343
   4 C :    0.533817
   5 O :   -0.467417
   6 N :   -0.373513
   7 C :   -0.251983
   8 H :    0.169655
   9 H :    0.204493
  10 C :   -0.169198
  11 H :    0.165135
  12 H :    0.169524
  13 C :   -0.035864
  14 H :    0.127880
  15 H :    0.164576
  16 C :    0.518885
  17 N :   -0.362502
  18 O :   -0.499547
  19 C :   -0.318051
  20 H :    0.152832
  21 H :    0.139784
  22 H :    0.200626
  23 C :   -0.344744
  24 H :    0.148639
  25 H :    0.207936
  26 H :    0.163146
  27 O :   -0.625272
  28 H :    0.405677
Sum of atomic charges:    0.0000000

--------------------------------
MULLIKEN REDUCED ORBITAL CHARGES
--------------------------------
  0 C s       :     3.323674  s :     3.323674
      pz      :     1.096009  p :     3.211516
      px      :     1.100182
      py      :     1.015325
      dz2     :     0.007086  d :     0.031764
      dxz     :     0.008896
      dyz     :     0.002553
      dx2y2   :     0.005463
      dxy     :     0.007766
  1 H s       :     0.799513  s :     0.799513
  2 H s       :     0.836388  s :     0.836388
  3 H s       :     0.821657  s :     0.821657
  4 C s       :     2.977607  s :     2.977607
      pz      :     0.771798  p :     2.377991
      px      :     0.769783
      py      :     0.836410
      dz2     :     0.028744  d :     0.110585
      dxz     :     0.020342
      dyz     :     0.020372
      dx2y2   :     0.025243
      dxy     :     0.015885
  5 O s       :     3.863128  s :     3.863128
      pz      :     1.462510  p :     4.577022
      px      :     1.537603
      py      :     1.576909
      dz2     :     0.007085  d :     0.027267
      dxz     :     0.004562
      dyz     :     0.006485
      dx2y2   :     0.003911
      dxy     :     0.005223
  6 N s       :     3.530427  s :     3.530427
      pz      :     1.278337  p :     3.807041
      px      :     1.429135
      py      :     1.099569
      dz2     :     0.007417  d :     0.036045
      dxz     :     0.005310
      dyz     :     0.008859
      dx2y2   :     0.007740
      dxy     :     0.006719
  7 C s       :     3.249096  s :     3.249096
      pz      :     1.133740  p :     2.950779
      px      :     0.982491
      py      :     0.834548
      dz2     :     0.010313  d :     0.052109
      dxz     :     0.006428
      dyz     :     0.010469
      dx2y2   :     0.013930
      dxy     :     0.010968
  8 H s       :     0.830345  s :     0.830345
  9 H s       :     0.795507  s :     0.795507
 10 C s       :     3.210081  s :     3.210081
      pz      :     0.945849  p :     2.905128
      px      :     0.971061
      py      :     0.988218
      dz2     :     0.012701  d :     0.053990
      dxz     :     0.006496
      dyz     :     0.012825
      dx2y2   :     0.006781
      dxy     :     0.015188
 11 H s       :     0.834865  s :     0.834865
 12 H s       :     0.830476  s :     0.830476
 13 C s       :     3.189200  s :     3.189200
      pz      :     0.783947  p :     2.782301
      px      :     1.023287
      py      :     0.975067
      dz2     :     0.018251  d :     0.064363
      dxz     :     0.007972
      dyz     :     0.018687
      dx2y2   :     0.006305
      dxy     :     0.013149
 14 H s       :     0.872120  s :     0.872120
 15 H s       :     0.835424  s :     0.835424
 16 C s       :     2.987098  s :     2.987098
      pz      :     0.745293  p :     2.386572
      px      :     0.831874
      py      :     0.809404
      dz2     :     0.035171  d :     0.107445
      dxz     :     0.029437
      dyz     :     0.023724
      dx2y2   :     0.011191
      dxy     :     0.007922
 17 N s       :     3.531433  s :     3.531433
      pz      :     1.126015  p :     3.793555
      px      :     1.103201
      py      :     1.564340
      dz2     :     0.009469  d :     0.037514
      dxz     :     0.010639
      dyz     :     0.006225
      dx2y2   :     0.005990
      dxy     :     0.005191
 18 O s       :     3.874820  s :     3.874820
      pz      :     1.462711  p :     4.598630
      px      :     1.682081
      py      :     1.453837
      dz2     :     0.007413  d :     0.026097
      dxz     :     0.006951
      dyz     :     0.006953
      dx2y2   :     0.002247
      dxy     :     0.002532
 19 C s       :     3.253011  s :     3.253011
      pz      :     1.124516  p :     3.016679
      px      :     0.811256
      py      :     1.080907
      dz2     :     0.009530  d :     0.048362
      dxz     :     0.006728
      dyz     :     0.007381
      dx2y2   :     0.012255
      dxy     :     0.012468
 20 H s       :     0.847168  s :     0.847168
 21 H s       :     0.860216  s :     0.860216
 22 H s       :     0.799374  s :     0.799374
 23 C s       :     3.269819  s :     3.269819
      pz      :     0.878961  p :     3.026612
      px      :     1.093641
      py      :     1.054010
      dz2     :     0.012520  d :     0.048313
      dxz     :     0.008548
      dyz     :     0.010410
      dx2y2   :     0.012941
      dxy     :     0.003895
 24 H s       :     0.851361  s :     0.851361
 25 H s       :     0.792064  s :     0.792064
 26 H s       :     0.836854  s :     0.836854
 27 O s       :     3.881910  s :     3.881910
      pz      :     1.486345  p :     4.717367
      px      :     1.491660
      py      :     1.739361
      dz2     :     0.007191  d :     0.025995
      dxz     :     0.004016
      dyz     :     0.003898
      dx2y2   :     0.006490
      dxy     :     0.004401
 28 H s       :     0.594323  s :     0.594323


                     *******************************
                     * LOEWDIN POPULATION ANALYSIS *
                     *******************************

----------------------
LOEWDIN ATOMIC CHARGES
----------------------
   0 C :   -0.401206
   1 H :    0.154720
   2 H :    0.140039
   3 H :    0.148420
   4 C :    0.114838
   5 O :   -0.273853
   6 N :   -0.080828
   7 C :   -0.179823
   8 H :    0.138651
   9 H :    0.159978
  10 C :   -0.163756
  11 H :    0.138463
  12 H :    0.140295
  13 C :   -0.117874
  14 H :    0.110585
  15 H :    0.124605
  16 C :    0.092732
  17 N :   -0.080388
  18 O :   -0.302531
  19 C :   -0.278045
  20 H :    0.126677
  21 H :    0.115409
  22 H :    0.154873
  23 C :   -0.288251
  24 H :    0.125595
  25 H :    0.154159
  26 H :    0.126668
  27 O :   -0.416320
  28 H :    0.316166

-------------------------------
LOEWDIN REDUCED ORBITAL CHARGES
-------------------------------
  0 C s       :     2.987037  s :     2.987037
      pz      :     1.138833  p :     3.352169
      px      :     1.140762
      py      :     1.072573
      dz2     :     0.013442  d :     0.062000
      dxz     :     0.016054
      dyz     :     0.005288
      dx2y2   :     0.011871
      dxy     :     0.015345
  1 H s       :     0.845280  s :     0.845280
  2 H s       :     0.859961  s :     0.859961
  3 H s       :     0.851580  s :     0.851580
  4 C s       :     2.848031  s :     2.848031
      pz      :     0.902771  p :     2.776089
      px      :     0.863449
      py      :     1.009869
      dz2     :     0.066038  d :     0.261042
      dxz     :     0.052130
      dyz     :     0.047789
      dx2y2   :     0.061219
      dxy     :     0.033866
  5 O s       :     3.553673  s :     3.553673
      pz      :     1.501223  p :     4.664605
      px      :     1.536131
      py      :     1.627251
      dz2     :     0.011340  d :     0.055575
      dxz     :     0.009460
      dyz     :     0.016742
      dx2y2   :     0.008254
      dxy     :     0.009779
  6 N s       :     3.094799  s :     3.094799
      pz      :     1.320418  p :     3.891365
      px      :     1.409661
      py      :     1.161285
      dz2     :     0.018041  d :     0.094664
      dxz     :     0.014885
      dyz     :     0.024222
      dx2y2   :     0.019569
      dxy     :     0.017947
  7 C s       :     2.930361  s :     2.930361
      pz      :     1.142135  p :     3.138962
      px      :     1.055321
      py      :     0.941506
      dz2     :     0.021054  d :     0.110501
      dxz     :     0.011788
      dyz     :     0.020847
      dx2y2   :     0.032669
      dxy     :     0.024142
  8 H s       :     0.861349  s :     0.861349
  9 H s       :     0.840022  s :     0.840022
 10 C s       :     2.921806  s :     2.921806
      pz      :     1.017621  p :     3.126502
      px      :     1.058519
      py      :     1.050361
      dz2     :     0.027392  d :     0.115448
      dxz     :     0.013564
      dyz     :     0.026577
      dx2y2   :     0.015435
      dxy     :     0.032480
 11 H s       :     0.861537  s :     0.861537
 12 H s       :     0.859705  s :     0.859705
 13 C s       :     2.937415  s :     2.937415
      pz      :     0.904672  p :     3.042965
      px      :     1.092498
      py      :     1.045794
      dz2     :     0.040318  d :     0.137494
      dxz     :     0.017118
      dyz     :     0.039218
      dx2y2   :     0.013548
      dxy     :     0.027293
 14 H s       :     0.889415  s :     0.889415
 15 H s       :     0.875395  s :     0.875395
 16 C s       :     2.854258  s :     2.854258
      pz      :     0.966660  p :     2.798277
      px      :     1.003822
      py      :     0.827796
      dz2     :     0.089462  d :     0.254732
      dxz     :     0.072294
      dyz     :     0.051462
      dx2y2   :     0.025088
      dxy     :     0.016426
 17 N s       :     3.091850  s :     3.091850
      pz      :     1.191714  p :     3.890962
      px      :     1.170070
      py      :     1.529177
      dz2     :     0.026870  d :     0.097576
      dxz     :     0.030984
      dyz     :     0.013296
      dx2y2   :     0.014902
      dxy     :     0.011523
 18 O s       :     3.570115  s :     3.570115
      pz      :     1.524533  p :     4.679475
      px      :     1.704770
      py      :     1.450172
      dz2     :     0.015747  d :     0.052941
      dxz     :     0.017240
      dyz     :     0.011523
      dx2y2   :     0.004228
      dxy     :     0.004203
 19 C s       :     2.962433  s :     2.962433
      pz      :     1.156507  p :     3.219512
      px      :     0.927450
      py      :     1.135554
      dz2     :     0.018338  d :     0.096101
      dxz     :     0.013475
      dyz     :     0.012926
      dx2y2   :     0.025055
      dxy     :     0.026307
 20 H s       :     0.873323  s :     0.873323
 21 H s       :     0.884591  s :     0.884591
 22 H s       :     0.845127  s :     0.845127
 23 C s       :     2.964310  s :     2.964310
      pz      :     0.980725  p :     3.227737
      px      :     1.131921
      py      :     1.115091
      dz2     :     0.025592  d :     0.096204
      dxz     :     0.017636
      dyz     :     0.021481
      dx2y2   :     0.024770
      dxy     :     0.006725
 24 H s       :     0.874405  s :     0.874405
 25 H s       :     0.845841  s :     0.845841
 26 H s       :     0.873332  s :     0.873332
 27 O s       :     3.570399  s :     3.570399
      pz      :     1.535059  p :     4.797661
      px      :     1.513208
      py      :     1.749394
      dz2     :     0.014041  d :     0.048260
      dxz     :     0.008179
      dyz     :     0.009052
      dx2y2   :     0.009528
      dxy     :     0.007460
 28 H s       :     0.683834  s :     0.683834


                      *****************************
                      * MAYER POPULATION ANALYSIS *
                      *****************************

  NA   - Mulliken gross atomic population
  ZA   - Total nuclear charge
  QA   - Mulliken gross atomic charge
  VA   - Mayer's total valence
  BVA  - Mayer's bonded valence
  FA   - Mayer's free valence

  ATOM       NA         ZA         QA         VA         BVA        FA
  0 C      6.5670     6.0000    -0.5670     3.7877     3.7877     0.0000
  1 H      0.7995     1.0000     0.2005     0.9390     0.9390     0.0000
  2 H      0.8364     1.0000     0.1636     0.9304     0.9304     0.0000
  3 H      0.8217     1.0000     0.1783     0.9398     0.9398     0.0000
  4 C      5.4662     6.0000     0.5338     3.9551     3.9551     0.0000
  5 O      8.4674     8.0000    -0.4674     2.0792     2.0792     0.0000
  6 N      7.3735     7.0000    -0.3735     3.1006     3.1006     0.0000
  7 C      6.2520     6.0000    -0.2520     3.7727     3.7727    -0.0000
  8 H      0.8303     1.0000     0.1697     0.9374     0.9374    -0.0000
  9 H      0.7955     1.0000     0.2045     0.9389     0.9389    -0.0000
 10 C      6.1692     6.0000    -0.1692     3.8388     3.8388     0.0000
 11 H      0.8349     1.0000     0.1651     0.9357     0.9357    -0.0000
 12 H      0.8305     1.0000     0.1695     0.9323     0.9323    -0.0000
 13 C      6.0359     6.0000    -0.0359     3.7704     3.7704     0.0000
 14 H      0.8721     1.0000     0.1279     0.9278     0.9278    -0.0000
 15 H      0.8354     1.0000     0.1646     0.9338     0.9338    -0.0000
 16 C      5.4811     6.0000     0.5189     3.9226     3.9226     0.0000
 17 N      7.3625     7.0000    -0.3625     3.1418     3.1418    -0.0000
 18 O      8.4995     8.0000    -0.4995     2.0243     2.0243    -0.0000
 19 C      6.3181     6.0000    -0.3181     3.7972     3.7972     0.0000
 20 H      0.8472     1.0000     0.1528     0.9330     0.9330     0.0000
 21 H      0.8602     1.0000     0.1398     0.9316     0.9316     0.0000
 22 H      0.7994     1.0000     0.2006     0.9461     0.9461     0.0000
 23 C      6.3447     6.0000    -0.3447     3.7567     3.7567     0.0000
 24 H      0.8514     1.0000     0.1486     0.9326     0.9326    -0.0000
 25 H      0.7921     1.0000     0.2079     0.9456     0.9456     0.0000
 26 H      0.8369     1.0000     0.1631     0.9409     0.9409     0.0000
 27 O      8.6253     8.0000    -0.6253     1.8109     1.8109    -0.0000
 28 H      0.5943     1.0000     0.4057     0.7980     0.7980    -0.0000

  Mayer bond orders larger than 0.100000
B(  0-C ,  1-H ) :   0.9097 B(  0-C ,  2-H ) :   0.9301 B(  0-C ,  3-H ) :   0.9423 
B(  0-C ,  4-C ) :   0.9788 B(  4-C ,  5-O ) :   1.8147 B(  4-C ,  6-N ) :   1.1108 
B(  6-N ,  7-C ) :   0.9551 B(  6-N , 10-C ) :   0.9654 B(  7-C ,  8-H ) :   0.9203 
B(  7-C ,  9-H ) :   0.8915 B(  7-C , 16-C ) :   0.9355 B( 10-C , 11-H ) :   0.9231 
B( 10-C , 12-H ) :   0.9225 B( 10-C , 13-C ) :   0.9945 B( 13-C , 14-H ) :   0.9245 
B( 13-C , 15-H ) :   0.9054 B( 13-C , 27-O ) :   0.9470 B( 16-C , 17-N ) :   1.1695 
B( 16-C , 18-O ) :   1.7671 B( 17-N , 19-C ) :   0.9620 B( 17-N , 23-C ) :   0.9503 
B( 19-C , 20-H ) :   0.9416 B( 19-C , 21-H ) :   0.9389 B( 19-C , 22-H ) :   0.9210 
B( 23-C , 24-H ) :   0.9394 B( 23-C , 25-H ) :   0.8999 B( 23-C , 26-H ) :   0.9226 
B( 27-O , 28-H ) :   0.7828 

-------
TIMINGS
-------

Total SCF time: 0 days 0 hours 1 min 14 sec 

[...]
      2      -0.000787  -0.000012  -0.000002
      3       0.003776   0.000343   0.001079
      4       0.003304   0.000294   0.001262
      5      -0.000150   0.000020  -0.000007
      6      -0.001456   0.000048   0.000251
      7       0.000951   0.000003   0.000045
      8       0.001992  -0.000067  -0.000058
      9       0.006378   0.000250   0.000155
     10      -0.001680  -0.000108   0.000048
     11       0.009077   0.000373  -0.000014
     12      -0.000488  -0.000059   0.000028
     13      -0.000850  -0.000087  -0.000070
     14      -0.001566  -0.000182   0.000072
     15       0.000550   0.000074  -0.000017
     16       0.000327   0.000030  -0.000003
     17       0.000538   0.000053  -0.000025
     18       0.000475   0.000078  -0.000126
     19       0.000131  -0.000014  -0.000054
     20       0.000517   0.000058  -0.000065
     21       0.005698   0.000378   0.000008
     22       0.005617   0.000347   0.000021
     23       0.012477   0.001413  -0.000025
     24       0.012905   0.002437  -0.000032
     25       0.014223   0.002726  -0.000028
     26      -0.040093  -0.007870   0.000190
     27      -0.082286  -0.007472   0.000002
     28      -0.078558  -0.006905   0.000018
     29      -0.119209  -0.010605   0.000014
     30      -0.000024   0.000021  -0.000307
     31      -0.000061  -0.000028   0.000101
     32      -0.000243   0.000032  -0.000225
     33      -0.000102  -0.000244  -0.000751
     34       0.000371   0.000189  -0.000057
     35      -0.000037   0.000018   0.000361
     36       0.000166  -0.000006   0.001011
     37      -0.001331   0.000175  -0.000409
     38       0.002414  -0.000328   0.001288
     39      -0.000109   0.000107   0.001881
     40       0.000113  -0.000128  -0.000491
     41       0.000056   0.000031   0.001443
     42       0.000146  -0.000042  -0.000630
     43      -0.000105   0.000076  -0.001911
     44      -0.000270  -0.000012   0.002774
     45       0.001109  -0.001099  -0.002942
     46      -0.001035   0.001229   0.001090
     47      -0.000010  -0.000057   0.002965
     48       0.000048   0.000788   0.000038
     49      -0.000389  -0.000190   0.000017
     50       0.000498   0.000749   0.000027
     51      -0.000416   0.000081   0.000017
     52       0.000055  -0.000134  -0.000022
     53      -0.000584   0.000315  -0.000015
     54      -0.000019  -0.000845  -0.000013
     55       0.000107   0.000065  -0.000024
     56      -0.000169   0.000207  -0.000016
     57      -0.002247   0.017624  -0.000057
     58       0.003995  -0.033515  -0.000014
     59      -0.009800   0.080682   0.000014
     60      -0.009277   0.061053   0.000070
     61       0.018398  -0.132799  -0.000082
     62       0.025296  -0.188457  -0.000161
     63      -0.005946   0.044357   0.000014
     64      -0.012586   0.101768   0.000318
     65      -0.001172   0.006225   0.000040
     66       0.034258  -0.308613   0.000001
     67      -0.049223   0.433455   0.000018
     68       0.090609  -0.791420   0.000083
     69       0.085671   0.009608  -0.000005
     70       0.018005   0.002418   0.000015
     71      -0.014012  -0.001618   0.000003
     72      -0.079261  -0.008902   0.000044
     73       0.101625   0.010171  -0.000351
     74       0.166769   0.015311  -0.000240
     75      -0.924011  -0.108567   0.000015
     76      -0.159523  -0.018784  -0.000154
     77       0.018060   0.001377  -0.000009
     78      -0.012472  -0.002071   0.000106
     79      -0.159008  -0.019511   0.000636
     80       0.001116   0.000111   0.000794
     81       0.000020  -0.000005   0.057180
     82       0.000035   0.000008   0.020040
     83       0.000007  -0.000022  -0.015468
     84      -0.000171   0.000024  -0.921573
     85      -0.000022   0.000068  -0.311012
     86      -0.000024   0.000110   0.223653


-----------
IR SPECTRUM
-----------

 Mode   freq       eps      Int      T**2         TX        TY        TZ
       cm**-1   L/(mol*cm) km/mol    a.u.
----------------------------------------------------------------------------
  6:     51.35   0.000093    0.47  0.000562  (-0.018970  0.013164  0.005389)
  7:     67.87   0.000632    3.20  0.002908  ( 0.034063  0.041515 -0.004906)
  8:     73.59   0.000528    2.67  0.002239  ( 0.000437 -0.046549  0.008487)
  9:    104.83   0.000222    1.12  0.000661  (-0.007837  0.023157  0.007973)
 10:    108.60   0.000655    3.31  0.001883  (-0.026629  0.032223  0.011654)
 11:    125.59   0.000737    3.73  0.001832  (-0.032730  0.023447  0.014519)
 12:    146.56   0.001248    6.31  0.002657  (-0.049057 -0.012741  0.009405)
 13:    166.13   0.000719    3.63  0.001351  ( 0.004995  0.036283  0.003077)
 14:    199.52   0.002873   14.52  0.004493  (-0.007265  0.059203  0.030584)
 15:    216.83   0.000691    3.49  0.000995  ( 0.001502  0.030409  0.008221)
 16:    244.57   0.006903   34.89  0.008808  ( 0.021442 -0.080713 -0.042827)
 17:    248.00   0.008273   41.81  0.010410  ( 0.023978 -0.092082 -0.036829)
 18:    273.36   0.010702   54.08  0.012217  ( 0.004788 -0.103806 -0.037660)
 19:    282.01   0.003096   15.65  0.003426  ( 0.004017  0.058081 -0.006070)
 20:    303.34   0.000668    3.38  0.000687  ( 0.009455  0.003875  0.024143)
 21:    361.14   0.001440    7.28  0.001244  (-0.023695  0.000617  0.026127)
 22:    400.12   0.000829    4.19  0.000646  ( 0.019414  0.013982 -0.008593)
 23:    432.98   0.000404    2.04  0.000291  ( 0.011230 -0.010415 -0.007523)
 24:    458.58   0.001353    6.84  0.000921  ( 0.021123  0.013045  0.017452)
 25:    488.70   0.002121   10.72  0.001354  ( 0.022262 -0.028913 -0.004788)
 26:    512.94   0.003068   15.50  0.001866  (-0.026873 -0.031357  0.012683)
 27:    583.94   0.001353    6.84  0.000723  (-0.024873  0.010215 -0.000235)
 28:    596.50   0.001302    6.58  0.000681  (-0.022726  0.006020 -0.011339)
 29:    620.13   0.003528   17.83  0.001775  (-0.013212 -0.016839  0.036293)
 30:    689.72   0.000614    3.10  0.000278  ( 0.003552 -0.001732  0.016197)
 31:    757.37   0.000653    3.30  0.000269  (-0.012077  0.006833  0.008758)
 32:    808.50   0.004104   20.74  0.001584  (-0.016786  0.009384  0.034848)
 33:    884.05   0.002228   11.26  0.000786  (-0.020596 -0.001603  0.018963)
 34:    921.29   0.000471    2.38  0.000160  (-0.010517 -0.002703  0.006463)
 35:    979.41   0.001221    6.17  0.000389  ( 0.011732  0.000184 -0.015857)
 36:   1008.25   0.002768   13.99  0.000857  (-0.015737 -0.002767  0.024521)
 37:   1018.44   0.004122   20.83  0.001263  ( 0.034158  0.007977  0.005724)
 38:   1072.13   0.002409   12.17  0.000701  (-0.022757  0.010268 -0.008819)
 39:   1077.09   0.007709   38.96  0.002234  (-0.008478  0.027007 -0.037846)
 40:   1096.37   0.000583    2.94  0.000166  ( 0.012007  0.001736  0.004320)
 41:   1104.92   0.004573   23.11  0.001291  ( 0.007288 -0.017063  0.030777)
 42:   1122.55   0.004401   22.24  0.001223  ( 0.013427 -0.002253 -0.032219)
 43:   1140.05   0.001035    5.23  0.000283  ( 0.011742 -0.012030 -0.000910)
 44:   1184.43   0.006146   31.06  0.001619  ( 0.014732 -0.001427 -0.037420)
 45:   1189.70   0.000145    0.73  0.000038  ( 0.005641 -0.002463  0.000286)
 46:   1231.30   0.005943   30.03  0.001506  (-0.006793 -0.022598  0.030811)
 47:   1242.64   0.011818   59.72  0.002968  (-0.022092  0.023329 -0.043995)
 48:   1268.73   0.011637   58.81  0.002862  ( 0.035215 -0.016732  0.036635)
 49:   1295.03   0.010773   54.44  0.002596  (-0.049756  0.010633  0.002712)
 50:   1304.69   0.010790   54.53  0.002581  (-0.031442  0.039210 -0.007401)
 51:   1341.02   0.003134   15.84  0.000729  ( 0.019854  0.015580 -0.009606)
 52:   1372.75   0.000111    0.56  0.000025  ( 0.002139 -0.000379  0.004527)
 53:   1412.17   0.002761   13.95  0.000610  ( 0.004583  0.024264  0.000529)
 54:   1425.32   0.002924   14.77  0.000640  (-0.007817 -0.013351 -0.020019)
 55:   1445.62   0.009537   48.20  0.002059  ( 0.034412 -0.000694 -0.029564)
 56:   1457.00   0.012330   62.31  0.002641  ( 0.048152 -0.010976 -0.014205)
 57:   1464.78   0.016148   81.61  0.003440  (-0.043347  0.023318 -0.031900)
 58:   1476.55   0.016043   81.08  0.003391  (-0.032528  0.014886 -0.045946)
 59:   1496.87   0.001227    6.20  0.000256  ( 0.010457  0.011523  0.003707)
 60:   1500.87   0.002028   10.25  0.000422  (-0.009457  0.004236  0.017727)
 61:   1513.52   0.003411   17.24  0.000703  (-0.014373  0.019305 -0.011139)
 62:   1520.80   0.003483   17.60  0.000715  ( 0.005674  0.018292 -0.018652)
 63:   1526.46   0.000246    1.24  0.000050  (-0.005884 -0.003955 -0.000224)
 64:   1527.76   0.000741    3.75  0.000151  ( 0.002155 -0.011607 -0.003466)
 65:   1536.93   0.001019    5.15  0.000207  ( 0.011820  0.008178 -0.000634)
 66:   1541.63   0.005980   30.22  0.001210  (-0.000317 -0.029516 -0.018416)
 67:   1557.91   0.001699    8.59  0.000340  ( 0.010301  0.007898 -0.013109)
 68:   1565.64   0.009311   47.05  0.001856  ( 0.031876 -0.005482 -0.028456)
 69:   1746.39   0.028977  146.44  0.005178  (-0.005481 -0.041481  0.058543)
 70:   1750.27   0.080179  405.19  0.014296  (-0.049492 -0.029486 -0.104769)
 71:   3001.16   0.013529   68.37  0.001407  ( 0.013734  0.018189  0.029788)
 72:   3010.73   0.010411   52.61  0.001079  ( 0.028188  0.015871 -0.005711)
 73:   3039.33   0.008984   45.40  0.000922  (-0.007783 -0.011076  0.027189)
 74:   3058.60   0.001382    6.99  0.000141  ( 0.008995 -0.006282 -0.004548)
 75:   3067.26   0.005436   27.47  0.000553  (-0.001560  0.006446  0.022563)
 76:   3078.27   0.005268   26.62  0.000534  ( 0.002897  0.013970 -0.018180)
 77:   3084.91   0.009324   47.12  0.000943  ( 0.010724 -0.023192 -0.017040)
 78:   3087.58   0.002767   13.99  0.000280  (-0.009391  0.013837 -0.000253)
 79:   3096.48   0.006284   31.76  0.000633  ( 0.006634 -0.018569 -0.015637)
 80:   3134.83   0.000959    4.85  0.000095  (-0.001117  0.000255  0.009704)
 81:   3143.15   0.004542   22.95  0.000451  (-0.012481  0.017102  0.001633)
 82:   3157.00   0.001047    5.29  0.000103  (-0.008755  0.004446  0.002656)
 83:   3177.94   0.000951    4.81  0.000093  ( 0.004879 -0.000773  0.008306)
 84:   3183.16   0.000961    4.85  0.000094  (-0.006382  0.007255  0.000904)
 85:   3188.85   0.000231    1.17  0.000023  ( 0.003857 -0.001508  0.002334)
 86:   3755.15   0.004255   21.50  0.000354  (-0.015032 -0.008722  0.007181)

* The epsilon (eps) is given for a Dirac delta lineshape.
** The dipole moment derivative (T) already includes vibrational overlap.

The first frequency considered to be a vibration is 6
The total number of vibrations considered is 81


--------------------------
THERMOCHEMISTRY AT 298.15K
--------------------------

Temperature         ... 298.15 K
Pressure            ... 1.00 atm
Total Mass          ... 188.23 AMU

Throughout the following assumptions are being made:
  (1) The electronic state is orbitally nondegenerate
  (2) There are no thermally accessible electronically excited states
  (3) Hindered rotations indicated by low frequency modes are not
      treated as such but are treated as vibrations and this may
      cause some error
  (4) All equations used are the standard statistical mechanics
      equations for an ideal gas
  (5) All vibrations are strictly harmonic

freq.      51.35  E(vib)   ...       0.52 
freq.      67.87  E(vib)   ...       0.50 
freq.      73.59  E(vib)   ...       0.49 
freq.     104.83  E(vib)   ...       0.46 
freq.     108.60  E(vib)   ...       0.45 
freq.     125.59  E(vib)   ...       0.43 
freq.     146.56  E(vib)   ...       0.41 
freq.     166.13  E(vib)   ...       0.39 
freq.     199.52  E(vib)   ...       0.35 
freq.     216.83  E(vib)   ...       0.34 
freq.     244.57  E(vib)   ...       0.31 
freq.     248.00  E(vib)   ...       0.31 
freq.     273.36  E(vib)   ...       0.29 
freq.     282.01  E(vib)   ...       0.28 
freq.     303.34  E(vib)   ...       0.26 
freq.     361.14  E(vib)   ...       0.22 
freq.     400.12  E(vib)   ...       0.19 
freq.     432.98  E(vib)   ...       0.17 
freq.     458.58  E(vib)   ...       0.16 
freq.     488.70  E(vib)   ...       0.15 
freq.     512.94  E(vib)   ...       0.13 
freq.     583.94  E(vib)   ...       0.11 
freq.     596.50  E(vib)   ...       0.10 
freq.     620.13  E(vib)   ...       0.09 
freq.     689.72  E(vib)   ...       0.07 
freq.     757.37  E(vib)   ...       0.06 
freq.     808.50  E(vib)   ...       0.05 
freq.     884.05  E(vib)   ...       0.04 
freq.     921.29  E(vib)   ...       0.03 
freq.     979.41  E(vib)   ...       0.03 
freq.    1008.25  E(vib)   ...       0.02 
freq.    1018.44  E(vib)   ...       0.02 
freq.    1072.13  E(vib)   ...       0.02 
freq.    1077.09  E(vib)   ...       0.02 
freq.    1096.37  E(vib)   ...       0.02 
freq.    1104.92  E(vib)   ...       0.02 
freq.    1122.55  E(vib)   ...       0.01 
freq.    1140.05  E(vib)   ...       0.01 
freq.    1184.43  E(vib)   ...       0.01 
freq.    1189.70  E(vib)   ...       0.01 
freq.    1231.30  E(vib)   ...       0.01 
freq.    1242.64  E(vib)   ...       0.01 
freq.    1268.73  E(vib)   ...       0.01 
freq.    1295.03  E(vib)   ...       0.01 
freq.    1304.69  E(vib)   ...       0.01 
freq.    1341.02  E(vib)   ...       0.01 
freq.    1372.75  E(vib)   ...       0.01 
freq.    1412.17  E(vib)   ...       0.00 
freq.    1425.32  E(vib)   ...       0.00 
freq.    1445.62  E(vib)   ...       0.00 
freq.    1457.00  E(vib)   ...       0.00 
freq.    1464.78  E(vib)   ...       0.00 
freq.    1476.55  E(vib)   ...       0.00 
freq.    1496.87  E(vib)   ...       0.00 
freq.    1500.87  E(vib)   ...       0.00 
freq.    1513.52  E(vib)   ...       0.00 
freq.    1520.80  E(vib)   ...       0.00 
freq.    1526.46  E(vib)   ...       0.00 
freq.    1527.76  E(vib)   ...       0.00 
freq.    1536.93  E(vib)   ...       0.00 
freq.    1541.63  E(vib)   ...       0.00 
freq.    1557.91  E(vib)   ...       0.00 
freq.    1565.64  E(vib)   ...       0.00 
freq.    1746.39  E(vib)   ...       0.00 
freq.    1750.27  E(vib)   ...       0.00 
freq.    3001.16  E(vib)   ...       0.00 
freq.    3010.73  E(vib)   ...       0.00 
freq.    3039.33  E(vib)   ...       0.00 
freq.    3058.60  E(vib)   ...       0.00 
freq.    3067.26  E(vib)   ...       0.00 
freq.    3078.27  E(vib)   ...       0.00 
freq.    3084.91  E(vib)   ...       0.00 
freq.    3087.58  E(vib)   ...       0.00 
freq.    3096.48  E(vib)   ...       0.00 
freq.    3134.83  E(vib)   ...       0.00 
freq.    3143.15  E(vib)   ...       0.00 
freq.    3157.00  E(vib)   ...       0.00 
freq.    3177.94  E(vib)   ...       0.00 
freq.    3183.16  E(vib)   ...       0.00 
freq.    3188.85  E(vib)   ...       0.00 
freq.    3755.15  E(vib)   ...       0.00 

------------
INNER ENERGY
------------

The inner energy is: U= E(el) + E(ZPE) + E(vib) + E(rot) + E(trans)
    E(el)   - is the total energy from the electronic structure calculation
              = E(kin-el) + E(nuc-el) + E(el-el) + E(nuc-nuc)
    E(ZPE)  - the the zero temperature vibrational energy from the frequency calculation
    E(vib)  - the the finite temperature correction to E(ZPE) due to population
              of excited vibrational states
    E(rot)  - is the rotational thermal energy
    E(trans)- is the translational thermal energy

Summary of contributions to the inner energy U:
Electronic energy                ...   -649.32646597 Eh
Zero point energy                ...      0.25038997 Eh     157.12 kcal/mol
Thermal vibrational correction   ...      0.01217875 Eh       7.64 kcal/mol
Thermal rotational correction    ...      0.00141627 Eh       0.89 kcal/mol
Thermal translational correction ...      0.00141627 Eh       0.89 kcal/mol
-----------------------------------------------------------------------
Total thermal energy                   -649.06106470 Eh


Summary of corrections to the electronic energy:
(perhaps to be used in another calculation)
Total thermal correction                  0.01501130 Eh       9.42 kcal/mol
Non-thermal (ZPE) correction              0.25038997 Eh     157.12 kcal/mol
-----------------------------------------------------------------------
Total correction                          0.26540127 Eh     166.54 kcal/mol


--------
ENTHALPY
--------

The enthalpy is H = U + kB*T
                kB is Boltzmann's constant
Total free energy                 ...   -649.06106470 Eh 
Thermal Enthalpy correction       ...      0.00094421 Eh       0.59 kcal/mol
-----------------------------------------------------------------------
Total Enthalpy                    ...   -649.06012049 Eh


Note: Only C1 symmetry has been detected, increase convergence thresholds 
      if your molecule has a higher symmetry. Symmetry factor of 1.0 is   
      used for the rotational entropy correction. 
 

Note: Rotational entropy computed according to Herzberg 
Infrared and Raman Spectra, Chapter V,1, Van Nostrand Reinhold, 1945 
Point Group:  C1, Symmetry Number:   1  
Rotational constants in cm-1:     0.035454     0.020913     0.018864 

Vibrational entropy computed according to the QRRHO of S. Grimme
Chem.Eur.J. 2012 18 9955


-------
ENTROPY
-------

The entropy contributions are T*S = T*(S(el)+S(vib)+S(rot)+S(trans))
     S(el)   - electronic entropy
     S(vib)  - vibrational entropy
     S(rot)  - rotational entropy
     S(trans)- translational entropy
The entropies will be listed as multiplied by the temperature to get
units of energy

Electronic entropy                ...      0.00000000 Eh      0.00 kcal/mol
Vibrational entropy               ...      0.02153233 Eh     13.51 kcal/mol
Rotational entropy                ...      0.01478755 Eh      9.28 kcal/mol
Translational entropy             ...      0.01976700 Eh     12.40 kcal/mol
-----------------------------------------------------------------------
Final entropy term                ...      0.05608688 Eh     35.19 kcal/mol

In case the symmetry of your molecule has not been determined correctly
or in case you have a reason to use a different symmetry number we print 
out the resulting rotational entropy values for sn=1,12 :
 --------------------------------------------------------
|  sn= 1 | S(rot)=       0.01478755 Eh      9.28 kcal/mol|
|  sn= 2 | S(rot)=       0.01413309 Eh      8.87 kcal/mol|
|  sn= 3 | S(rot)=       0.01375026 Eh      8.63 kcal/mol|
|  sn= 4 | S(rot)=       0.01347864 Eh      8.46 kcal/mol|
|  sn= 5 | S(rot)=       0.01326795 Eh      8.33 kcal/mol|
|  sn= 6 | S(rot)=       0.01309580 Eh      8.22 kcal/mol|
|  sn= 7 | S(rot)=       0.01295026 Eh      8.13 kcal/mol|
|  sn= 8 | S(rot)=       0.01282418 Eh      8.05 kcal/mol|
|  sn= 9 | S(rot)=       0.01271297 Eh      7.98 kcal/mol|
|  sn=10 | S(rot)=       0.01261349 Eh      7.92 kcal/mol|
|  sn=11 | S(rot)=       0.01252350 Eh      7.86 kcal/mol|
|  sn=12 | S(rot)=       0.01244135 Eh      7.81 kcal/mol|
 --------------------------------------------------------


-------------------
GIBBS FREE ENERGY
-------------------

The Gibbs free energy is G = H - T*S

Total enthalpy                    ...   -649.06012049 Eh 
Total entropy correction          ...     -0.05608688 Eh    -35.19 kcal/mol
-----------------------------------------------------------------------
Final Gibbs free energy         ...   -649.11620737 Eh

For completeness - the Gibbs free energy minus the electronic energy
G-E(el)                           ...      0.21025860 Eh    131.94 kcal/mol


Timings for individual modules:

Sum of individual times         ...     1287.458 sec (=  21.458 min)
GTO integral calculation        ...       27.488 sec (=   0.458 min)   2.1 %
SCF iterations                  ...      644.322 sec (=  10.739 min)  50.0 %
SCF Gradient evaluation         ...      166.389 sec (=   2.773 min)  12.9 %
Geometry relaxation             ...        4.467 sec (=   0.074 min)   0.3 %
Analytical frequency calculation...      444.793 sec (=   7.413 min)  34.5 %
                             ****ORCA TERMINATED NORMALLY****
TOTAL RUN TIME: 0 days 0 hours 21 minutes 43 seconds 184 msec
