
                                 *****************
                                 * O   R   C   A *
                                 *****************

                                            #,                                       
                                            ###                                      
                                            ####                                     
                                            #####                                    
                                            ######                                   
                                           ########,                                 
                                     ,,################,,,,,                         
                               ,,#################################,,                 
                          ,,##########################################,,             
                       ,#########################################, ''#####,          
                    ,#############################################,,   '####,        
                  ,##################################################,,,,####,       
                ,###########''''           ''''###############################       
              ,#####''   ,,,,##########,,,,          '''####'''          '####       
            ,##' ,,,,###########################,,,                        '##       
           ' ,,###''''                  '''############,,,                           
         ,,##''                                '''############,,,,        ,,,,,,###''
      ,#''                                            '''#######################'''  
     '                                                          ''''####''''         
             ,#######,   #######,   ,#######,      ##                                
            ,#'     '#,  ##    ##  ,#'     '#,    #''#        ######   ,####,        
            ##       ##  ##   ,#'  ##            #'  '#       #        #'  '#        
            ##       ##  #######   ##           ,######,      #####,   #    #        
            '#,     ,#'  ##    ##  '#,     ,#' ,#      #,         ##   #,  ,#        
             '#######'   ##     ##  '#######'  #'      '#     #####' # '####'        



                  #######################################################
                  #                        -***-                        #
                  #          Department of theory and spectroscopy      #
                  #    Directorship and core code : Frank Neese         #
                  #        Max Planck Institute fuer Kohlenforschung    #
                  #                Kaiser Wilhelm Platz 1               #
                  #                 D-45470 Muelheim/Ruhr               #
                  #                      Germany                        #
                  #                                                     #
                  #                  All rights reserved                #
                  #                        -***-                        #
                  #######################################################


                         Program Version 5.0.4 -  RELEASE  -


 With contributions from (in alphabetic order):
   Daniel Aravena         : Magnetic Suceptibility
   Michael Atanasov       : Ab Initio Ligand Field Theory (pilot matlab implementation)
   Alexander A. Auer      : GIAO ZORA, VPT2 properties, NMR spectrum
   Ute Becker             : Parallelization
   Giovanni Bistoni       : ED, misc. LED, open-shell LED, HFLD
   Martin Brehm           : Molecular dynamics
   Dmytro Bykov           : SCF Hessian
   Vijay G. Chilkuri      : MRCI spin determinant printing, contributions to CSF-ICE
   Dipayan Datta          : RHF DLPNO-CCSD density
   Achintya Kumar Dutta   : EOM-CC, STEOM-CC
   Dmitry Ganyushin       : Spin-Orbit,Spin-Spin,Magnetic field MRCI
   Miquel Garcia          : C-PCM and meta-GGA Hessian, CC/C-PCM, Gaussian charge scheme
   Yang Guo               : DLPNO-NEVPT2, F12-NEVPT2, CIM, IAO-localization
   Andreas Hansen         : Spin unrestricted coupled pair/coupled cluster methods
   Benjamin Helmich-Paris : MC-RPA, TRAH-SCF, COSX integrals
   Lee Huntington         : MR-EOM, pCC
   Robert Izsak           : Overlap fitted RIJCOSX, COSX-SCS-MP3, EOM
   Marcus Kettner         : VPT2
   Christian Kollmar      : KDIIS, OOCD, Brueckner-CCSD(T), CCSD density, CASPT2, CASPT2-K
   Simone Kossmann        : Meta GGA functionals, TD-DFT gradient, OOMP2, MP2 Hessian
   Martin Krupicka        : Initial AUTO-CI
   Lucas Lang             : DCDCAS
   Marvin Lechner         : AUTO-CI (C++ implementation), FIC-MRCC
   Dagmar Lenk            : GEPOL surface, SMD
   Dimitrios Liakos       : Extrapolation schemes; Compound Job, initial MDCI parallelization
   Dimitrios Manganas     : Further ROCIS development; embedding schemes
   Dimitrios Pantazis     : SARC Basis sets
   Anastasios Papadopoulos: AUTO-CI, single reference methods and gradients
   Taras Petrenko         : DFT Hessian,TD-DFT gradient, ASA, ECA, R-Raman, ABS, FL, XAS/XES, NRVS
   Peter Pinski           : DLPNO-MP2, DLPNO-MP2 Gradient
   Christoph Reimann      : Effective Core Potentials
   Marius Retegan         : Local ZFS, SOC
   Christoph Riplinger    : Optimizer, TS searches, QM/MM, DLPNO-CCSD(T), (RO)-DLPNO pert. Triples
   Tobias Risthaus        : Range-separated hybrids, TD-DFT gradient, RPA, STAB
   Michael Roemelt        : Original ROCIS implementation
   Masaaki Saitow         : Open-shell DLPNO-CCSD energy and density
   Barbara Sandhoefer     : DKH picture change effects
   Avijit Sen             : IP-ROCIS
   Kantharuban Sivalingam : CASSCF convergence, NEVPT2, FIC-MRCI
   Bernardo de Souza      : ESD, SOC TD-DFT
   Georgi Stoychev        : AutoAux, RI-MP2 NMR, DLPNO-MP2 response
   Willem Van den Heuvel  : Paramagnetic NMR
   Boris Wezisla          : Elementary symmetry handling
   Frank Wennmohs         : Technical directorship


 We gratefully acknowledge several colleagues who have allowed us to
 interface, adapt or use parts of their codes:
   Stefan Grimme, W. Hujo, H. Kruse, P. Pracht,  : VdW corrections, initial TS optimization,
                  C. Bannwarth, S. Ehlert          DFT functionals, gCP, sTDA/sTD-DF
   Ed Valeev, F. Pavosevic, A. Kumar             : LibInt (2-el integral package), F12 methods
   Garnet Chan, S. Sharma, J. Yang, R. Olivares  : DMRG
   Ulf Ekstrom                                   : XCFun DFT Library
   Mihaly Kallay                                 : mrcc  (arbitrary order and MRCC methods)
   Jiri Pittner, Ondrej Demel                    : Mk-CCSD
   Frank Weinhold                                : gennbo (NPA and NBO analysis)
   Christopher J. Cramer and Donald G. Truhlar   : smd solvation model
   Lars Goerigk                                  : TD-DFT with DH, B97 family of functionals
   V. Asgeirsson, H. Jonsson                     : NEB implementation
   FAccTs GmbH                                   : IRC, NEB, NEB-TS, DLPNO-Multilevel, CI-OPT
                                                   MM, QMMM, 2- and 3-layer-ONIOM, Crystal-QMMM,
                                                   LR-CPCM, SF, NACMEs, symmetry and pop. for TD-DFT,
                                                   nearIR, NL-DFT gradient (VV10), updates on ESD,
                                                   ML-optimized integration grids
   S Lehtola, MJT Oliveira, MAL Marques          : LibXC Library
   Liviu Ungur et al                             : ANISO software


 Your calculation uses the libint2 library for the computation of 2-el integrals
 For citations please refer to: http://libint.valeyev.net

 Your ORCA version has been built with support for libXC version: 5.1.0
 For citations please refer to: https://tddft.org/programs/libxc/

 This ORCA versions uses:
   CBLAS   interface :  Fast vector & matrix operations
   LAPACKE interface :  Fast linear algebra routines
   SCALAPACK package :  Parallel linear algebra routines
   Shared memory     :  Shared parallel matrices
   BLAS/LAPACK       :  OpenBLAS 0.3.15  USE64BITINT DYNAMIC_ARCH NO_AFFINITY SkylakeX SINGLE_THREADED
        Core in use  :  SkylakeX
   Copyright (c) 2011-2014, The OpenBLAS Project




***************************************
The coordinates will be read from file: /users/fjb15167/WWenergy/structures/Nk.xyz
***************************************


Your calculation utilizes the atom-pairwise dispersion correction
based on tight binding partial charges (D4)
Cite in your paper:
E.Caldeweyher, C.Bannwarth, S.Grimme, J.Chem.Phys., (2017), 147, 034112.
E.Caldeweyher, S.Ehlert, A.Hansen, H.Neugebauer, S.Grimme, J.Chem.Phys., (2018), in progress.
   

================================================================================

----- Orbital basis set information -----
Your calculation utilizes the basis: 6-31+G(d)
   H-He, Li-Ne : W. J. Hehre, R. Ditchfield and J.A. Pople, J. Chem. Phys. 56, 2257 (1972).
                 Note: He and Ne are unpublished basis sets taken from the Gaussian program.
                 Note: Li and B from J. D. Dill and J. A. Pople, J. Chem. Phys. 62, 2921 (1975).
   Na - Ar     : M. M. Francl, W. J. Pietro, W. J. Hehre, J. S. Binkley, M. S. Gordon, 
                 D. J. DeFrees and J. A. Pople, J. Chem. Phys. 77, 3654 (1982).
   K - Zn      : V. A. Rassolov, J. A. Pople, M. A. Ratner, and T. L. Windus, J. Chem. Phys. 109, 1223 (1998).
   Additional Pol./Diff. from the 6-311G equivalent.

----- AuxJ basis set information -----
Your calculation utilizes the AutoAux generation procedure.
  G. L. Stoychev, A. A. Auer, F. Neese, J. Chem. Theory Comput. 13, 554 (2017)

----- AuxC basis set information -----
Your calculation utilizes the AutoAux generation procedure.
  G. L. Stoychev, A. A. Auer, F. Neese, J. Chem. Theory Comput. 13, 554 (2017)

----- AuxJK basis set information -----
Your calculation utilizes the AutoAux generation procedure.
  G. L. Stoychev, A. A. Auer, F. Neese, J. Chem. Theory Comput. 13, 554 (2017)

================================================================================
                                        WARNINGS
                       Please study these warnings very carefully!
================================================================================


WARNING: Geometry Optimization
  ===> : Switching off AutoStart
         For restart on a previous wavefunction, please use MOREAD

INFO   : the flag for use of the SHARK integral package has been found!

================================================================================
                                       INPUT FILE
================================================================================
NAME = Nk_water.inp
|  1> ! OPT FREQ B3LYP 6-31+G(d) D4 AUTOAUX CPCM(water)
|  2> 
|  3> %PAL NPROCS 4 END
|  4> 
|  5> %maxcore 3375
|  6> 
|  7> *xyzfile 1 1 /users/fjb15167/WWenergy/structures/Nk.xyz
|  8> 
|  9>                          ****END OF INPUT****
================================================================================

                       *****************************
                       * Geometry Optimization Run *
                       *****************************

Geometry optimization settings:
Update method            Update   .... BFGS
Choice of coordinates    CoordSys .... Z-matrix Internals
Initial Hessian          InHess   .... Almoef's Model

Convergence Tolerances:
Energy Change            TolE     ....  5.0000e-06 Eh
Max. Gradient            TolMAXG  ....  3.0000e-04 Eh/bohr
RMS Gradient             TolRMSG  ....  1.0000e-04 Eh/bohr
Max. Displacement        TolMAXD  ....  4.0000e-03 bohr
RMS Displacement         TolRMSD  ....  2.0000e-03 bohr
Strict Convergence                ....  False
------------------------------------------------------------------------------
                        ORCA OPTIMIZATION COORDINATE SETUP
------------------------------------------------------------------------------

The optimization will be done in new redundant internal coordinates
Making redundant internal coordinates   ...  (new redundants) done
Evaluating the initial hessian          ...  (Almloef) done
Evaluating the coordinates              ...  done
Calculating the B-matrix                .... done
Calculating the G-matrix                .... done
Diagonalizing the G-matrix              .... done
Small eigenvalue found = 5.409e-03
Small eigenvalue found = 1.017e-02
Small eigenvalue found = 1.127e-02
Small eigenvalue found = 1.498e-02
Small eigenvalue found = 2.373e-02
Small eigenvalue found = 2.442e-02
The first mode is                       ....   78
The number of degrees of freedom        ....  105

    -----------------------------------------------------------------
                    Redundant Internal Coordinates


    -----------------------------------------------------------------
         Definition                    Initial Value    Approx d2E/dq
    -----------------------------------------------------------------
      1. B(H   1,C   0)                  1.0910         0.358762   
      2. B(H   2,C   0)                  1.0944         0.354372   
      3. B(H   3,C   0)                  1.0895         0.360787   
      4. B(C   4,C   0)                  1.5295         0.374321   
      5. B(O   5,C   4)                  1.2157         1.061642   
      6. B(N   6,C   4)                  1.3853         0.569365   
      7. B(C   7,N   6)                  1.4648         0.425193   
      8. B(H   8,C   7)                  1.0938         0.355044   
      9. B(H   9,C   7)                  1.0923         0.357042   
     10. B(C  10,N   6)                  1.4702         0.416844   
     11. B(H  11,C  10)                  1.0949         0.353724   
     12. B(H  12,C  10)                  1.0930         0.356203   
     13. B(C  13,C  10)                  1.5344         0.367609   
     14. B(H  14,C  13)                  1.0961         0.352084   
     15. B(H  15,C  13)                  1.0947         0.353961   
     16. B(C  16,C   7)                  1.5244         0.381341   
     17. B(N  17,C  16)                  1.3382         0.676922   
     18. B(O  18,C  16)                  1.2568         0.912683   
     19. B(C  19,N  17)                  1.4695         0.417807   
     20. B(H  20,C  19)                  1.0896         0.360626   
     21. B(H  21,C  19)                  1.0926         0.356622   
     22. B(H  22,C  19)                  1.0899         0.360167   
     23. B(C  23,N  17)                  1.4637         0.426814   
     24. B(H  24,C  23)                  1.0939         0.354932   
     25. B(H  25,C  23)                  1.0868         0.364312   
     26. B(H  26,C  23)                  1.0905         0.359456   
     27. B(C  27,C  13)                  1.5357         0.365834   
     28. B(H  28,C  27)                  1.0959         0.352436   
     29. B(H  29,C  27)                  1.0947         0.353999   
     30. B(C  30,C  27)                  1.5217         0.385162   
     31. B(H  31,C  30)                  1.0885         0.362128   
     32. B(H  32,C  30)                  1.0932         0.355904   
     33. B(N  33,C  30)                  1.5034         0.368897   
     34. B(H  34,N  33)                  1.0262         0.407675   
     35. B(H  35,N  33)                  1.0256         0.408656   
     36. B(H  36,H  25)                  3.3690         0.000016   
     37. B(H  36,N  33)                  1.0212         0.415218   
     38. A(H   2,C   0,C   4)          110.0536         0.323572   
     39. A(H   2,C   0,H   3)          108.3254         0.290195   
     40. A(H   1,C   0,H   2)          107.9762         0.289939   
     41. A(H   3,C   0,C   4)          107.0574         0.324527   
     42. A(H   1,C   0,C   4)          113.5881         0.324227   
     43. A(H   1,C   0,H   3)          109.7316         0.290756   
     44. A(C   0,C   4,O   5)          121.9721         0.433812   
     45. A(O   5,C   4,N   6)          120.9595         0.465028   
     46. A(C   0,C   4,N   6)          117.0682         0.388459   
     47. A(C   4,N   6,C  10)          123.8447         0.393317   
     48. A(C   7,N   6,C  10)          118.8814         0.373856   
     49. A(C   4,N   6,C   7)          112.3669         0.394686   
     50. A(H   8,C   7,C  16)          106.1297         0.324662   
     51. A(N   6,C   7,C  16)          112.1689         0.370490   
     52. A(N   6,C   7,H   9)          110.1142         0.328857   
     53. A(H   8,C   7,H   9)          108.0302         0.289806   
     54. A(N   6,C   7,H   8)          108.1995         0.328552   
     55. A(H   9,C   7,C  16)          111.9669         0.324961   
     56. A(H  12,C  10,C  13)          108.5649         0.322886   
     57. A(H  11,C  10,C  13)          109.7736         0.322517   
     58. A(N   6,C  10,C  13)          114.8660         0.366913   
     59. A(H  11,C  10,H  12)          106.2442         0.289530   
     60. A(N   6,C  10,H  12)          106.7246         0.327655   
     61. A(N   6,C  10,H  11)          110.2587         0.327278   
     62. A(H  14,C  13,H  15)          105.6622         0.289034   
     63. A(H  15,C  13,C  27)          110.1853         0.322296   
     64. A(C  10,C  13,H  15)          107.4788         0.322552   
     65. A(C  10,C  13,H  14)          110.6155         0.322271   
     66. A(H  14,C  13,C  27)          109.7002         0.322016   
     67. A(C  10,C  13,C  27)          112.9258         0.361061   
     68. A(N  17,C  16,O  18)          121.7567         0.466892   
     69. A(C   7,C  16,O  18)          119.1529         0.423616   
     70. A(C   7,C  16,N  17)          118.7937         0.401732   
     71. A(C  16,N  17,C  19)          123.4329         0.405637   
     72. A(C  19,N  17,C  23)          116.7534         0.374250   
     73. A(C  16,N  17,C  23)          118.7458         0.407169   
     74. A(H  21,C  19,H  22)          110.8279         0.290405   
     75. A(H  20,C  19,H  22)          108.8461         0.290915   
     76. A(N  17,C  19,H  22)          109.9590         0.328379   
     77. A(H  20,C  19,H  21)          108.0741         0.290463   
     78. A(N  17,C  19,H  21)          111.4319         0.327844   
     79. A(N  17,C  19,H  20)          107.5932         0.328448   
     80. A(H  25,C  23,H  26)          109.8469         0.291289   
     81. A(H  24,C  23,H  26)          109.4583         0.290099   
     82. A(N  17,C  23,H  26)          108.7536         0.329430   
     83. A(H  24,C  23,H  25)          109.5273         0.290710   
     84. A(N  17,C  23,H  25)          108.9593         0.330161   
     85. A(N  17,C  23,H  24)          110.2805         0.328742   
     86. A(H  29,C  27,C  30)          108.8050         0.325037   
     87. A(H  28,C  27,C  30)          109.3178         0.324800   
     88. A(C  13,C  27,C  30)          110.6637         0.363949   
     89. A(H  28,C  27,H  29)          107.5688         0.289084   
     90. A(C  13,C  27,H  29)          109.8592         0.322302   
     91. A(C  13,C  27,H  28)          110.5547         0.322069   
     92. A(H  32,C  30,N  33)          108.5025         0.321101   
     93. A(H  31,C  30,N  33)          105.0700         0.322014   
     94. A(C  27,C  30,N  33)          109.6853         0.362201   
     95. A(H  31,C  30,H  32)          109.9091         0.290561   
     96. A(C  27,C  30,H  32)          112.0975         0.325324   
     97. A(C  27,C  30,H  31)          111.3029         0.326253   
     98. A(H  34,N  33,H  35)          108.1188         0.297668   
     99. A(C  30,N  33,H  35)          112.1603         0.325686   
    100. A(C  30,N  33,H  34)          112.4063         0.325557   
    101. A(H  35,N  33,H  36)          109.3738         0.298536   
    102. A(H  34,N  33,H  36)          108.1327         0.298422   
    103. A(C  30,N  33,H  36)          106.5444         0.326541   
    104. D(O   5,C   4,C   0,H   1)   -135.7401         0.010476   
    105. D(N   6,C   4,C   0,H   2)    -77.0622         0.010476   
    106. D(N   6,C   4,C   0,H   1)     44.1281         0.010476   
    107. D(O   5,C   4,C   0,H   2)    103.0696         0.010476   
    108. D(O   5,C   4,C   0,H   3)    -14.4536         0.010476   
    109. D(N   6,C   4,C   0,H   3)    165.4147         0.010476   
    110. D(C   7,N   6,C   4,C   0)    168.3290         0.025940   
    111. D(C  10,N   6,C   4,C   0)     13.5345         0.025940   
    112. D(C   7,N   6,C   4,O   5)    -11.8013         0.025940   
    113. D(C  10,N   6,C   4,O   5)   -166.5959         0.025940   
    114. D(H   9,C   7,N   6,C  10)     96.1080         0.015414   
    115. D(H   9,C   7,N   6,C   4)    -60.0670         0.015414   
    116. D(H   8,C   7,N   6,C  10)    -21.7568         0.015414   
    117. D(C  16,C   7,N   6,C   4)     65.3407         0.015414   
    118. D(H   8,C   7,N   6,C   4)   -177.9318         0.015414   
    119. D(C  16,C   7,N   6,C  10)   -138.4843         0.015414   
    120. D(C  13,C  10,N   6,C   7)    114.4401         0.014818   
    121. D(C  13,C  10,N   6,C   4)    -92.2886         0.014818   
    122. D(H  12,C  10,N   6,C   7)     -5.9358         0.014818   
    123. D(H  12,C  10,N   6,C   4)    147.3355         0.014818   
    124. D(H  11,C  10,N   6,C   7)   -120.9128         0.014818   
    125. D(H  11,C  10,N   6,C   4)     32.3585         0.014818   
    126. D(H  15,C  13,C  10,H  12)    -47.0040         0.010812   
    127. D(C  27,C  13,C  10,H  11)   -169.5285         0.010812   
    128. D(H  15,C  13,C  10,H  11)     68.7379         0.010812   
    129. D(H  15,C  13,C  10,N   6)   -166.3605         0.010812   
    130. D(H  14,C  13,C  10,H  12)   -161.8926         0.010812   
    131. D(C  27,C  13,C  10,N   6)    -44.6269         0.010812   
    132. D(H  14,C  13,C  10,H  11)    -46.1507         0.010812   
    133. D(C  27,C  13,C  10,H  12)     74.7296         0.010812   
    134. D(H  14,C  13,C  10,N   6)     78.7509         0.010812   
    135. D(O  18,C  16,C   7,H   9)    176.5226         0.010847   
    136. D(O  18,C  16,C   7,H   8)    -65.8271         0.010847   
    137. D(O  18,C  16,C   7,N   6)     52.1367         0.010847   
    138. D(N  17,C  16,C   7,H   9)     -9.6216         0.010847   
    139. D(N  17,C  16,C   7,H   8)    108.0287         0.010847   
    140. D(N  17,C  16,C   7,N   6)   -134.0075         0.010847   
    141. D(C  23,N  17,C  16,O  18)     -1.5630         0.037672   
    142. D(C  23,N  17,C  16,C   7)   -175.2517         0.037672   
    143. D(C  19,N  17,C  16,O  18)   -169.3483         0.037672   
    144. D(C  19,N  17,C  16,C   7)     16.9630         0.037672   
    145. D(H  22,C  19,N  17,C  16)     49.4068         0.014886   
    146. D(H  21,C  19,N  17,C  23)    118.1026         0.014886   
    147. D(H  21,C  19,N  17,C  16)    -73.8873         0.014886   
    148. D(H  20,C  19,N  17,C  23)     -0.1992         0.014886   
    149. D(H  22,C  19,N  17,C  23)   -118.6033         0.014886   
    150. D(H  20,C  19,N  17,C  16)    167.8109         0.014886   
    151. D(H  26,C  23,N  17,C  19)    -47.6414         0.015532   
    152. D(H  26,C  23,N  17,C  16)    143.7630         0.015532   
    153. D(H  25,C  23,N  17,C  19)   -167.3605         0.015532   
    154. D(H  25,C  23,N  17,C  16)     24.0439         0.015532   
    155. D(H  24,C  23,N  17,C  19)     72.3924         0.015532   
    156. D(H  24,C  23,N  17,C  16)    -96.2032         0.015532   
    157. D(C  30,C  27,C  13,H  15)   -144.2747         0.010714   
    158. D(C  30,C  27,C  13,H  14)    -28.3527         0.010714   
    159. D(C  30,C  27,C  13,C  10)     95.5303         0.010714   
    160. D(H  29,C  27,C  13,H  15)     95.5588         0.010714   
    161. D(H  29,C  27,C  13,H  14)   -148.5192         0.010714   
    162. D(H  29,C  27,C  13,C  10)    -24.6362         0.010714   
    163. D(H  28,C  27,C  13,H  15)    -23.0088         0.010714   
    164. D(H  28,C  27,C  13,H  14)     92.9132         0.010714   
    165. D(H  28,C  27,C  13,C  10)   -143.2038         0.010714   
    166. D(H  31,C  30,C  27,C  13)    -46.8040         0.011808   
    167. D(N  33,C  30,C  27,H  28)     75.3594         0.011808   
    168. D(N  33,C  30,C  27,C  13)   -162.6463         0.011808   
    169. D(H  32,C  30,C  27,H  29)   -162.4499         0.011808   
    170. D(H  32,C  30,C  27,H  28)    -45.2391         0.011808   
    171. D(H  32,C  30,C  27,C  13)     76.7552         0.011808   
    172. D(H  31,C  30,C  27,H  29)     73.9909         0.011808   
    173. D(N  33,C  30,C  27,H  29)    -41.8514         0.011808   
    174. D(H  31,C  30,C  27,H  28)   -168.7984         0.011808   
    175. D(H  36,N  33,C  30,H  32)   -169.5846         0.012486   
    176. D(H  36,N  33,C  30,C  27)     67.6613         0.012486   
    177. D(H  35,N  33,C  30,H  32)     70.7691         0.012486   
    178. D(H  35,N  33,C  30,H  31)   -171.7156         0.012486   
    179. D(H  35,N  33,C  30,C  27)    -51.9850         0.012486   
    180. D(H  34,N  33,C  30,H  32)    -51.3132         0.012486   
    181. D(H  36,N  33,C  30,H  31)    -52.0692         0.012486   
    182. D(H  34,N  33,C  30,H  31)     66.2022         0.012486   
    183. D(H  34,N  33,C  30,C  27)   -174.0673         0.012486   
    -----------------------------------------------------------------

Number of atoms                         .... 37
Number of degrees of freedom            .... 183

         *************************************************************
         *                GEOMETRY OPTIMIZATION CYCLE   1            *
         *************************************************************
---------------------------------
CARTESIAN COORDINATES (ANGSTROEM)
---------------------------------
  C      0.537000   -2.326000    2.185000
  H      1.592000   -2.213000    1.931000
  H      0.290000   -3.391000    2.136000
  H      0.365000   -1.981000    3.204000
  C     -0.400000   -1.528000    1.277000
  O     -1.329000   -0.881000    1.720000
  N     -0.145000   -1.569000   -0.084000
  C     -1.243000   -1.007000   -0.874000
  H     -0.988000   -1.107000   -1.933000
  H     -2.162000   -1.569000   -0.693000
  C      0.764000   -2.535000   -0.718000
  H      0.747000   -3.485000   -0.174000
  H      0.358000   -2.744000   -1.711000
  C      2.212000   -2.052000   -0.874000
  H      2.752000   -2.138000    0.076000
  H      2.715000   -2.738000   -1.563000
  C     -1.428000    0.485000   -0.622000
  N     -2.664000    0.956000   -0.419000
  O     -0.437000    1.251000   -0.726000
  C     -3.808000    0.103000   -0.068000
  H     -4.621000    0.756000    0.248000
  H     -4.153000   -0.476000   -0.928000
  H     -3.542000   -0.554000    0.760000
  C     -2.853000    2.401000   -0.282000
  H     -2.875000    2.682000    0.775000
  H     -2.032000    2.913000   -0.777000
  H     -3.798000    2.677000   -0.751000
  C      2.309000   -0.611000   -1.396000
  H      3.161000   -0.505000   -2.077000
  H      1.404000   -0.357000   -1.957000
  C      2.462000    0.369000   -0.242000
  H      1.746000    0.161000    0.551000
  H      3.477000    0.371000    0.164000
  N      2.133000    1.759000   -0.711000
  H      2.316000    2.468000    0.008000
  H      2.657000    2.017000   -1.554000
  H      1.133000    1.767000   -0.918000

----------------------------
CARTESIAN COORDINATES (A.U.)
----------------------------
  NO LB      ZA    FRAG     MASS         X           Y           Z
   0 C     6.0000    0    12.011    1.014783   -4.395503    4.129052
   1 H     1.0000    0     1.008    3.008444   -4.181964    3.649061
   2 H     1.0000    0     1.008    0.548021   -6.408061    4.036455
   3 H     1.0000    0     1.008    0.689750   -3.743547    6.054683
   4 C     6.0000    0    12.011   -0.755890   -2.887502    2.413180
   5 O     8.0000    0    15.999   -2.511446   -1.664849    3.250329
   6 N     7.0000    0    14.007   -0.274010   -2.964980   -0.158737
   7 C     6.0000    0    12.011   -2.348930   -1.902954   -1.651621
   8 H     1.0000    0     1.008   -1.867049   -2.091927   -3.652841
   9 H     1.0000    0     1.008   -4.085588   -2.964980   -1.309580
  10 C     6.0000    0    12.011    1.443751   -4.790456   -1.356823
  11 H     1.0000    0     1.008    1.411625   -6.585696   -0.328812
  12 H     1.0000    0     1.008    0.676522   -5.185409   -3.233321
  13 C     6.0000    0    12.011    4.180074   -3.877718   -1.651621
  14 H     1.0000    0     1.008    5.200526   -4.040234    0.143619
  15 H     1.0000    0     1.008    5.130606   -5.174070   -2.953642
  16 C     6.0000    0    12.011   -2.698529    0.916517   -1.175410
  17 N     7.0000    0    14.007   -5.034230    1.806578   -0.791795
  18 O     8.0000    0    15.999   -0.825810    2.364047   -1.371941
  19 C     6.0000    0    12.011   -7.196077    0.194642   -0.128501
  20 H     1.0000    0     1.008   -8.732424    1.428633    0.468652
  21 H     1.0000    0     1.008   -7.848033   -0.899510   -1.753666
  22 H     1.0000    0     1.008   -6.693410   -1.046908    1.436192
  23 C     6.0000    0    12.011   -5.391389    4.537232   -0.532903
  24 H     1.0000    0     1.008   -5.432963    5.068245    1.464538
  25 H     1.0000    0     1.008   -3.839924    5.504772   -1.468317
  26 H     1.0000    0     1.008   -7.177180    5.058797   -1.419184
  27 C     6.0000    0    12.011    4.363378   -1.154623   -2.638058
  28 H     1.0000    0     1.008    5.973424   -0.954312   -3.924961
  29 H     1.0000    0     1.008    2.653175   -0.674632   -3.698194
  30 C     6.0000    0    12.011    4.652506    0.697309   -0.457314
  31 H     1.0000    0     1.008    3.299462    0.304246    1.041239
  32 H     1.0000    0     1.008    6.570578    0.701088    0.309915
  33 N     7.0000    0    14.007    4.030786    3.324028   -1.343595
  34 H     1.0000    0     1.008    4.376606    4.663844    0.015118
  35 H     1.0000    0     1.008    5.021002    3.811578   -2.936634
  36 H     1.0000    0     1.008    2.141060    3.339146   -1.734769

--------------------------------
INTERNAL COORDINATES (ANGSTROEM)
--------------------------------
 C      0   0   0     0.000000000000     0.00000000     0.00000000
 H      1   0   0     1.091013290478     0.00000000     0.00000000
 H      1   2   0     1.094365112748   107.97618286     0.00000000
 H      1   2   3     1.089481528067   109.73156699   117.87494490
 C      1   2   3     1.529456439393   113.58814728   237.65355204
 O      5   1   2     1.215688693704   121.97214790   224.25986563
 N      5   1   2     1.385289500429   117.06822386    44.12812406
 C      7   5   1     1.464768923756   112.36692929   168.32904474
 H      8   7   5     1.093849166933   108.19946043   182.06819462
 H      8   7   5     1.092321381279   110.11422531   299.93301232
 C      7   5   1     1.470167677512   123.84466581    13.53445241
 H     11   7   5     1.094863005129   110.25872050    32.35852290
 H     11   7   5     1.092962030448   106.72458505   147.33550226
 C     11   7   5     1.534382286133   114.86600236   267.71144879
 H     14  11   7     1.096127729783   110.61553829    78.75090962
 H     14  11   7     1.094680775386   107.47878644   193.63950386
 C      8   7   5     1.524399225925   112.16885525    65.34067213
 N     17   8   7     1.338187580274   118.79369275   225.99251770
 O     17   8   7     1.256842472230   119.15287784    52.13666255
 C     18  17   8     1.469539383617   123.43291532    16.96296205
 H     20  18  17     1.089602679879   107.59324603   167.81090057
 H     20  18  17     1.092641752817   111.43187546   286.11270426
 H     20  18  17     1.089949081379   109.95902367    49.40682287
 C     18  17   8     1.463733240724   118.74577687   184.74829010
 H     24  18  17     1.093935098623   110.28048706   263.79679571
 H     24  18  17     1.086834854060   108.95926091    24.04391069
 H     24  18  17     1.090487047149   108.75364166   143.76299622
 C     14  11   7     1.535699840464   112.92583170   315.37307407
 H     28  14  11     1.095856286198   110.55474131   216.79623231
 H     28  14  11     1.094651542729   109.85918489   335.36380942
 C     28  14  11     1.521684921395   110.66369913    95.53031924
 H     31  28  14     1.088470945869   111.30287444   313.19598654
 H     31  28  14     1.093190285357   112.09751897    76.75522782
 N     31  28  14     1.503430078188   109.68532654   197.35369857
 H     34  31  28     1.026221710938   112.40628965   185.93270089
 H     34  31  28     1.025567647696   112.16026821   308.01497662
 H     34  31  28     1.021231119777   106.54438066    67.66130505

---------------------------
INTERNAL COORDINATES (A.U.)
---------------------------
 C      0   0   0     0.000000000000     0.00000000     0.00000000
 H      1   0   0     2.061716327472     0.00000000     0.00000000
 H      1   2   0     2.068050353612   107.97618286     0.00000000
 H      1   2   3     2.058821716013   109.73156699   117.87494490
 C      1   2   3     2.890253804215   113.58814728   237.65355204
 O      5   1   2     2.297318695205   121.97214790   224.25986563
 N      5   1   2     2.617817772008   117.06822386    44.12812406
 C      7   5   1     2.768012115377   112.36692929   168.32904474
 H      8   7   5     2.067075357321   108.19946043   182.06819462
 H      8   7   5     2.064188260845   110.11422531   299.93301232
 C      7   5   1     2.778214281440   123.84466581    13.53445241
 H     11   7   5     2.068991233856   110.25872050    32.35852290
 H     11   7   5     2.065398912320   106.72458505   147.33550226
 C     11   7   5     2.899562305532   114.86600236   267.71144879
 H     14  11   7     2.071381217087   110.61553829    78.75090962
 H     14  11   7     2.068646869548   107.47878644   193.63950386
 C      8   7   5     2.880697055759   112.16885525    65.34067213
 N     17   8   7     2.528808042533   118.79369275   225.99251770
 O     17   8   7     2.375088065994   119.15287784    52.13666255
 C     18  17   8     2.777026978047   123.43291532    16.96296205
 H     20  18  17     2.059050659758   107.59324603   167.81090057
 H     20  18  17     2.064793675313   111.43187546   286.11270426
 H     20  18  17     2.059705263726   109.95902367    49.40682287
 C     18  17   8     2.766054958085   118.74577687   184.74829010
 H     24  18  17     2.067237744682   110.28048706   263.79679571
 H     24  18  17     2.053820226974   108.95926091    24.04391069
 H     24  18  17     2.060721871700   108.75364166   143.76299622
 C     14  11   7     2.902052122383   112.92583170   315.37307407
 H     28  14  11     2.070868263051   110.55474131   216.79623231
 H     28  14  11     2.068591627833   109.85918489   335.36380942
 C     28  14  11     2.875567763553   110.66369913    95.53031924
 H     31  28  14     2.056911992422   111.30287444   313.19598654
 H     31  28  14     2.065830251589   112.09751897    76.75522782
 N     31  28  14     2.841071109275   109.68532654   197.35369857
 H     34  31  28     1.939277986356   112.40628965   185.93270089
 H     34  31  28     1.938041985955   112.16026821   308.01497662
 H     34  31  28     1.929847135815   106.54438066    67.66130505

---------------------
BASIS SET INFORMATION
---------------------
There are 4 groups of distinct atoms

 Group   1 Type C   : 11s5p1d contracted to 4s3p1d pattern {6311/311/1}
 Group   2 Type H   : 4s contracted to 2s pattern {31}
 Group   3 Type O   : 11s5p1d contracted to 4s3p1d pattern {6311/311/1}
 Group   4 Type N   : 11s5p1d contracted to 4s3p1d pattern {6311/311/1}

Atom   0C    basis set group =>   1
Atom   1H    basis set group =>   2
Atom   2H    basis set group =>   2
Atom   3H    basis set group =>   2
Atom   4C    basis set group =>   1
Atom   5O    basis set group =>   3
Atom   6N    basis set group =>   4
Atom   7C    basis set group =>   1
Atom   8H    basis set group =>   2
Atom   9H    basis set group =>   2
Atom  10C    basis set group =>   1
Atom  11H    basis set group =>   2
Atom  12H    basis set group =>   2
Atom  13C    basis set group =>   1
Atom  14H    basis set group =>   2
Atom  15H    basis set group =>   2
Atom  16C    basis set group =>   1
Atom  17N    basis set group =>   4
Atom  18O    basis set group =>   3
Atom  19C    basis set group =>   1
Atom  20H    basis set group =>   2
Atom  21H    basis set group =>   2
Atom  22H    basis set group =>   2
Atom  23C    basis set group =>   1
Atom  24H    basis set group =>   2
Atom  25H    basis set group =>   2
Atom  26H    basis set group =>   2
Atom  27C    basis set group =>   1
Atom  28H    basis set group =>   2
Atom  29H    basis set group =>   2
Atom  30C    basis set group =>   1
Atom  31H    basis set group =>   2
Atom  32H    basis set group =>   2
Atom  33N    basis set group =>   4
Atom  34H    basis set group =>   2
Atom  35H    basis set group =>   2
Atom  36H    basis set group =>   2
---------------------------------
AUXILIARY/J BASIS SET INFORMATION
---------------------------------
There are 4 groups of distinct atoms

 Group   1 Type C   : 16s13p12d2f contracted to 16s13p12d2f pattern {1111111111111111/1111111111111/111111111111/11}
 Group   2 Type H   : 9s2p contracted to 9s2p pattern {111111111/11}
 Group   3 Type O   : 16s13p12d3f contracted to 16s13p12d3f pattern {1111111111111111/1111111111111/111111111111/111}
 Group   4 Type N   : 16s13p12d3f contracted to 16s13p12d3f pattern {1111111111111111/1111111111111/111111111111/111}

Atom   0C    basis set group =>   1
Atom   1H    basis set group =>   2
Atom   2H    basis set group =>   2
Atom   3H    basis set group =>   2
Atom   4C    basis set group =>   1
Atom   5O    basis set group =>   3
Atom   6N    basis set group =>   4
Atom   7C    basis set group =>   1
Atom   8H    basis set group =>   2
Atom   9H    basis set group =>   2
Atom  10C    basis set group =>   1
Atom  11H    basis set group =>   2
Atom  12H    basis set group =>   2
Atom  13C    basis set group =>   1
Atom  14H    basis set group =>   2
Atom  15H    basis set group =>   2
Atom  16C    basis set group =>   1
Atom  17N    basis set group =>   4
Atom  18O    basis set group =>   3
Atom  19C    basis set group =>   1
Atom  20H    basis set group =>   2
Atom  21H    basis set group =>   2
Atom  22H    basis set group =>   2
Atom  23C    basis set group =>   1
Atom  24H    basis set group =>   2
Atom  25H    basis set group =>   2
Atom  26H    basis set group =>   2
Atom  27C    basis set group =>   1
Atom  28H    basis set group =>   2
Atom  29H    basis set group =>   2
Atom  30C    basis set group =>   1
Atom  31H    basis set group =>   2
Atom  32H    basis set group =>   2
Atom  33N    basis set group =>   4
Atom  34H    basis set group =>   2
Atom  35H    basis set group =>   2
Atom  36H    basis set group =>   2
---------------------------------
AUXILIARY/C BASIS SET INFORMATION
---------------------------------
There are 4 groups of distinct atoms

 Group   1 Type C   : 16s13p12d2f contracted to 16s13p12d2f pattern {1111111111111111/1111111111111/111111111111/11}
 Group   2 Type H   : 9s2p contracted to 9s2p pattern {111111111/11}
 Group   3 Type O   : 16s13p12d3f contracted to 16s13p12d3f pattern {1111111111111111/1111111111111/111111111111/111}
 Group   4 Type N   : 16s13p12d3f contracted to 16s13p12d3f pattern {1111111111111111/1111111111111/111111111111/111}

Atom   0C    basis set group =>   1
Atom   1H    basis set group =>   2
Atom   2H    basis set group =>   2
Atom   3H    basis set group =>   2
Atom   4C    basis set group =>   1
Atom   5O    basis set group =>   3
Atom   6N    basis set group =>   4
Atom   7C    basis set group =>   1
Atom   8H    basis set group =>   2
Atom   9H    basis set group =>   2
Atom  10C    basis set group =>   1
Atom  11H    basis set group =>   2
Atom  12H    basis set group =>   2
Atom  13C    basis set group =>   1
Atom  14H    basis set group =>   2
Atom  15H    basis set group =>   2
Atom  16C    basis set group =>   1
Atom  17N    basis set group =>   4
Atom  18O    basis set group =>   3
Atom  19C    basis set group =>   1
Atom  20H    basis set group =>   2
Atom  21H    basis set group =>   2
Atom  22H    basis set group =>   2
Atom  23C    basis set group =>   1
Atom  24H    basis set group =>   2
Atom  25H    basis set group =>   2
Atom  26H    basis set group =>   2
Atom  27C    basis set group =>   1
Atom  28H    basis set group =>   2
Atom  29H    basis set group =>   2
Atom  30C    basis set group =>   1
Atom  31H    basis set group =>   2
Atom  32H    basis set group =>   2
Atom  33N    basis set group =>   4
Atom  34H    basis set group =>   2
Atom  35H    basis set group =>   2
Atom  36H    basis set group =>   2
----------------------------------
AUXILIARY/JK BASIS SET INFORMATION
----------------------------------
There are 4 groups of distinct atoms

 Group   1 Type C   : 16s13p12d2f contracted to 16s13p12d2f pattern {1111111111111111/1111111111111/111111111111/11}
 Group   2 Type H   : 9s2p contracted to 9s2p pattern {111111111/11}
 Group   3 Type O   : 16s13p12d3f contracted to 16s13p12d3f pattern {1111111111111111/1111111111111/111111111111/111}
 Group   4 Type N   : 16s13p12d3f contracted to 16s13p12d3f pattern {1111111111111111/1111111111111/111111111111/111}

Atom   0C    basis set group =>   1
Atom   1H    basis set group =>   2
Atom   2H    basis set group =>   2
Atom   3H    basis set group =>   2
Atom   4C    basis set group =>   1
Atom   5O    basis set group =>   3
Atom   6N    basis set group =>   4
Atom   7C    basis set group =>   1
Atom   8H    basis set group =>   2
Atom   9H    basis set group =>   2
Atom  10C    basis set group =>   1
Atom  11H    basis set group =>   2
Atom  12H    basis set group =>   2
Atom  13C    basis set group =>   1
Atom  14H    basis set group =>   2
Atom  15H    basis set group =>   2
Atom  16C    basis set group =>   1
Atom  17N    basis set group =>   4
Atom  18O    basis set group =>   3
Atom  19C    basis set group =>   1
Atom  20H    basis set group =>   2
Atom  21H    basis set group =>   2
Atom  22H    basis set group =>   2
Atom  23C    basis set group =>   1
Atom  24H    basis set group =>   2
Atom  25H    basis set group =>   2
Atom  26H    basis set group =>   2
Atom  27C    basis set group =>   1
Atom  28H    basis set group =>   2
Atom  29H    basis set group =>   2
Atom  30C    basis set group =>   1
Atom  31H    basis set group =>   2
Atom  32H    basis set group =>   2
Atom  33N    basis set group =>   4
Atom  34H    basis set group =>   2
Atom  35H    basis set group =>   2
Atom  36H    basis set group =>   2


           ************************************************************
           *        Program running with 4 parallel MPI-processes     *
           *              working on a common directory               *
           ************************************************************
------------------------------------------------------------------------------
                           ORCA GTO INTEGRAL CALCULATION
                           -- RI-GTO INTEGRALS CHOSEN --
------------------------------------------------------------------------------
------------------------------------------------------------------------------
                   ___                                                        
                  /   \      - P O W E R E D   B Y -                         
                 /     \                                                     
                 |  |  |   _    _      __       _____    __    __             
                 |  |  |  | |  | |    /  \     |  _  \  |  |  /  |          
                  \  \/   | |  | |   /    \    | | | |  |  | /  /          
                 / \  \   | |__| |  /  /\  \   | |_| |  |  |/  /          
                |  |  |   |  __  | /  /__\  \  |    /   |      \           
                |  |  |   | |  | | |   __   |  |    \   |  |\   \          
                \     /   | |  | | |  |  |  |  | |\  \  |  | \   \       
                 \___/    |_|  |_| |__|  |__|  |_| \__\ |__|  \__/        
                                                                              
                      - O R C A' S   B I G   F R I E N D -                    
                                      &                                       
                       - I N T E G R A L  F E E D E R -                       
                                                                              
 v1 FN, 2020, v2 2021                                                         
------------------------------------------------------------------------------


Reading SHARK input file Nk_water.SHARKINP.tmp ... ok
----------------------
SHARK INTEGRAL PACKAGE
----------------------

Number of atoms                             ...     37
Number of basis functions                   ...    314
Number of shells                            ...    164
Maximum angular momentum                    ...      2
Integral batch strategy                     ... SHARK/LIBINT Hybrid
RI-J (if used) integral strategy            ... SPLIT-RIJ (Revised 2003 algorithm where possible)
Printlevel                                  ...      1
Contraction scheme used                     ... SEGMENTED contraction
Coulomb Range Separation                    ... NOT USED
Exchange Range Separation                   ... NOT USED
Finite Nucleus Model                        ... NOT USED
Auxiliary Coulomb fitting basis             ... AVAILABLE
   # of basis functions in Aux-J            ...   2300
   # of shells in Aux-J                     ...    892
   Maximum angular momentum in Aux-J        ...      3
Auxiliary J/K fitting basis                 ... AVAILABLE
   # of basis functions in Aux-JK           ...   2300
   # of shells in Aux-JK                    ...    892
   Maximum angular momentum in Aux-JK       ...      3
Auxiliary Correlation fitting basis         ... AVAILABLE
   # of basis functions in Aux-C            ...   2300
   # of shells in Aux-C                     ...    892
   Maximum angular momentum in Aux-C        ...      3
Auxiliary 'external' fitting basis          ... NOT available
Integral threshold                          ...     2.500000e-11
Primitive cut-off                           ...     2.500000e-12
Primitive pair pre-selection threshold      ...     2.500000e-12

Calculating pre-screening integrals         ... done (  0.0 sec) Dimension = 164
Organizing shell pair data                  ... done (  1.0 sec)
Shell pair information
Total number of shell pairs                 ...     13530
Shell pairs after pre-screening             ...     12255
Total number of primitive shell pairs       ...     59377
Primitive shell pairs kept                  ...     34650
          la=0 lb=0:   4770 shell pairs
          la=1 lb=0:   4445 shell pairs
          la=1 lb=1:   1019 shell pairs
          la=2 lb=0:   1289 shell pairs
          la=2 lb=1:    633 shell pairs
          la=2 lb=2:     99 shell pairs

Calculating one electron integrals          ... done (  0.0 sec)
Calculating RI/J V-Matrix + Cholesky decomp.... done (  0.3 sec)
Calculating RI/JK V-Matrix + Cholesky decomp... done (  0.5 sec)
Calculating RI/C V-Matrix + Cholesky decomp.... done (  0.4 sec)
Calculating Nuclear repulsion               ... done (  0.0 sec) ENN=   1155.740169695379 Eh

SHARK setup successfully completed in   2.8 seconds

Maximum memory used throughout the entire GTOINT-calculation: 47.7 MB


           ************************************************************
           *        Program running with 4 parallel MPI-processes     *
           *              working on a common directory               *
           ************************************************************
-------------------------------------------------------------------------------
                                 ORCA SCF
-------------------------------------------------------------------------------

------------
SCF SETTINGS
------------
Hamiltonian:
 Density Functional     Method          .... DFT(GTOs)
 Exchange Functional    Exchange        .... B88
   X-Alpha parameter    XAlpha          ....  0.666667
   Becke's b parameter  XBeta           ....  0.004200
 Correlation Functional Correlation     .... LYP
 LDA part of GGA corr.  LDAOpt          .... VWN-5
 Gradients option       PostSCFGGA      .... off
 Hybrid DFT is turned on
   Fraction HF Exchange ScalHFX         ....  0.200000
   Scaling of DF-GGA-X  ScalDFX         ....  0.720000
   Scaling of DF-GGA-C  ScalDFC         ....  0.810000
   Scaling of DF-LDA-C  ScalLDAC        ....  1.000000
   Perturbative correction              ....  0.000000
   Density functional embedding theory  .... OFF
   NL short-range parameter             ....  4.800000
 RI-approximation to the Coulomb term is turned on
   Number of AuxJ basis functions       .... 2300
   RIJ-COSX (HFX calculated with COS-X)).... on


General Settings:
 Integral files         IntName         .... Nk_water
 Hartree-Fock type      HFTyp           .... RHF
 Total Charge           Charge          ....    1
 Multiplicity           Mult            ....    1
 Number of Electrons    NEL             ....  118
 Basis Dimension        Dim             ....  314
 Nuclear Repulsion      ENuc            ....   1155.7401696954 Eh

Convergence Acceleration:
 DIIS                   CNVDIIS         .... on
   Start iteration      DIISMaxIt       ....    12
   Startup error        DIISStart       ....  0.200000
   # of expansion vecs  DIISMaxEq       ....     5
   Bias factor          DIISBfac        ....   1.050
   Max. coefficient     DIISMaxC        ....  10.000
 Trust-Rad. Augm. Hess. CNVTRAH         .... auto
   Auto Start mean grad. ratio tolernc. ....  1.125000
   Auto Start start iteration           ....    20
   Auto Start num. interpolation iter.  ....    10
   Max. Number of Micro iterations      ....    16
   Max. Number of Macro iterations      .... Maxiter - #DIIS iter
   Number of Davidson start vectors     ....     2
   Converg. threshold I  (grad. norm)   ....   1.000e-05
   Converg. threshold II (energy diff.) ....   1.000e-08
   Grad. Scal. Fac. for Micro threshold ....   0.100
   Minimum threshold for Micro iter.    ....   0.010
   NR start threshold (gradient norm)   ....   0.001
   Initial trust radius                 ....   0.400
   Minimum AH scaling param. (alpha)    ....   1.000
   Maximum AH scaling param. (alpha)    .... 1000.000
   Orbital update algorithm             .... Taylor
   White noise on init. David. guess    .... on
   Maximum white noise                  ....   0.010
   Quad. conv. algorithm                .... NR
 SOSCF                  CNVSOSCF        .... on
   Start iteration      SOSCFMaxIt      ....   150
   Startup grad/error   SOSCFStart      ....  0.003300
 Level Shifting         CNVShift        .... on
   Level shift para.    LevelShift      ....    0.2500
   Turn off err/grad.   ShiftErr        ....    0.0010
 Zerner damping         CNVZerner       .... off
 Static damping         CNVDamp         .... on
   Fraction old density DampFac         ....    0.7000
   Max. Damping (<1)    DampMax         ....    0.9800
   Min. Damping (>=0)   DampMin         ....    0.0000
   Turn off err/grad.   DampErr         ....    0.1000
 Fernandez-Rico         CNVRico         .... off

SCF Procedure:
 Maximum # iterations   MaxIter         ....   125
 SCF integral mode      SCFMode         .... Direct
   Integral package                     .... SHARK and LIBINT hybrid scheme
 Reset frequency        DirectResetFreq ....    20
 Integral Threshold     Thresh          ....  2.500e-11 Eh
 Primitive CutOff       TCut            ....  2.500e-12 Eh

Convergence Tolerance:
 Convergence Check Mode ConvCheckMode   .... Total+1el-Energy
 Convergence forced     ConvForced      .... 0
 Energy Change          TolE            ....  1.000e-08 Eh
 1-El. energy change                    ....  1.000e-05 Eh
 Orbital Gradient       TolG            ....  1.000e-05
 Orbital Rotation angle TolX            ....  1.000e-05
 DIIS Error             TolErr          ....  5.000e-07


Diagonalization of the overlap matrix:
Smallest eigenvalue                        ... 1.130e-05
Time for diagonalization                   ...    0.016 sec
Threshold for overlap eigenvalues          ... 1.000e-08
Number of eigenvalues below threshold      ... 0
Time for construction of square roots      ...    0.008 sec
Total time needed                          ...    0.026 sec

Time for model grid setup =    0.381 sec

------------------------------
INITIAL GUESS: MODEL POTENTIAL
------------------------------
Loading Hartree-Fock densities                     ... done
Calculating cut-offs                               ... done
Initializing the effective Hamiltonian             ... done
Setting up the integral package (SHARK)            ... done
Starting the Coulomb interaction                   ... done (   0.3 sec)
Reading the grid                                   ... done
Mapping shells                                     ... done
Starting the XC term evaluation                    ... done (   0.4 sec)
  promolecular density results
     # of electrons  =    118.987531756
     EX              =    -94.166701210
     EC              =     -3.993614993
     EX+EC           =    -98.160316202
Transforming the Hamiltonian                       ... done (   0.0 sec)
Diagonalizing the Hamiltonian                      ... done (   0.0 sec)
Back transforming the eigenvectors                 ... done (   0.0 sec)
Now organizing SCF variables                       ... done
                      ------------------
                      INITIAL GUESS DONE (   3.2 sec)
                      ------------------
-------------------
DFT GRID GENERATION
-------------------

General Integration Accuracy     IntAcc      ... 4.388
Radial Grid Type                 RadialGrid  ... OptM3 with GC (2021)
Angular Grid (max. ang.)         AngularGrid ... 4 (Lebedev-302)
Angular grid pruning method      GridPruning ... 4 (adaptive)
Weight generation scheme         WeightScheme... Becke
Basis function cutoff            BFCut       ... 1.0000e-11
Integration weight cutoff        WCut        ... 1.0000e-14
Angular grids for H and He will be reduced by one unit
Partially contracted basis set               ... off
Rotationally invariant grid construction     ... off

Total number of grid points                  ...   162663
Total number of batches                      ...     2560
Average number of points per batch           ...       63
Average number of grid points per atom       ...     4396
Time for grid setup =    1.640 sec

--------------------
COSX GRID GENERATION
--------------------

GRIDX 1
-------
General Integration Accuracy     IntAcc      ... 3.816
Radial Grid Type                 RadialGrid  ... OptM3 with GC (2021)
Angular Grid (max. ang.)         AngularGrid ... 1 (Lebedev-50)
Angular grid pruning method      GridPruning ... 4 (adaptive)
Weight generation scheme         WeightScheme... Becke
Basis function cutoff            BFCut       ... 1.0000e-11
Integration weight cutoff        WCut        ... 1.0000e-14
Angular grids for H and He will be reduced by one unit
Partially contracted basis set               ... on
Rotationally invariant grid construction     ... off

Total number of grid points                  ...    20784
Total number of batches                      ...      343
Average number of points per batch           ...       60
Average number of grid points per atom       ...      562
UseSFitting                                  ... on

GRIDX 2
-------
General Integration Accuracy     IntAcc      ... 4.020
Radial Grid Type                 RadialGrid  ... OptM3 with GC (2021)
Angular Grid (max. ang.)         AngularGrid ... 2 (Lebedev-110)
Angular grid pruning method      GridPruning ... 4 (adaptive)
Weight generation scheme         WeightScheme... Becke
Basis function cutoff            BFCut       ... 1.0000e-11
Integration weight cutoff        WCut        ... 1.0000e-14
Angular grids for H and He will be reduced by one unit
Partially contracted basis set               ... on
Rotationally invariant grid construction     ... off

Total number of grid points                  ...    45980
Total number of batches                      ...      734
Average number of points per batch           ...       62
Average number of grid points per atom       ...     1243
UseSFitting                                  ... on

GRIDX 3
-------
General Integration Accuracy     IntAcc      ... 4.338
Radial Grid Type                 RadialGrid  ... OptM3 with GC (2021)
Angular Grid (max. ang.)         AngularGrid ... 3 (Lebedev-194)
Angular grid pruning method      GridPruning ... 4 (adaptive)
Weight generation scheme         WeightScheme... Becke
Basis function cutoff            BFCut       ... 1.0000e-11
Integration weight cutoff        WCut        ... 1.0000e-14
Angular grids for H and He will be reduced by one unit
Partially contracted basis set               ... on
Rotationally invariant grid construction     ... off

Total number of grid points                  ...    98916
Total number of batches                      ...     1564
Average number of points per batch           ...       63
Average number of grid points per atom       ...     2673
UseSFitting                                  ... on

Time for X-Grid setup             =    2.408 sec


--------------------
CPCM SOLVATION MODEL
--------------------
CPCM parameters:
  Epsilon                                         ...      80.4000
  Refrac                                          ...       1.3300
  Rsolv                                           ...       1.3000
  Surface type                                    ... GAUSSIAN VDW
  Epsilon function type                           ...         CPCM
Radii:
 Radius for C  used is    3.8550 Bohr (=   2.0400 Ang.)
 Radius for H  used is    2.4944 Bohr (=   1.3200 Ang.)
 Radius for O  used is    3.4469 Bohr (=   1.8240 Ang.)
 Radius for N  used is    3.5149 Bohr (=   1.8600 Ang.)
Calculating surface                               ...        done! (  0.0s)
GEPOL surface points                              ...         1909
GEPOL Volume                                      ...    1853.4598
GEPOL Surface-area                                ...     953.5907
Calculating surface distance matrix               ...        done! (  0.0s)
Performing Cholesky decomposition & store         ...        done! (  0.1s)
Overall time for CPCM initialization              ...                 0.2s
--------------
SCF ITERATIONS
--------------
ITER       Energy         Delta-E        Max-DP      RMS-DP      [F,P]     Damp
               ***  Starting incremental Fock matrix formation  ***
  0   -708.0777468326   0.000000000000 0.11556620  0.00237752  0.2676162 0.7000
  1   -708.2726421232  -0.194895290569 0.07738745  0.00177942  0.1083972 0.7000
                               ***Turning on DIIS***
  2   -708.3470179769  -0.074375853726 0.15481637  0.00314526  0.0349404 0.0000
  3   -708.4649109428  -0.117892965890 0.11067926  0.00137383  0.0538776 0.0000
  4   -708.4909976527  -0.026086709875 0.04663149  0.00053664  0.0101409 0.0000
  5   -708.4924567247  -0.001459072028 0.01666528  0.00021845  0.0057853 0.0000
                      *** Initiating the SOSCF procedure ***
                           *** Shutting down DIIS ***
                      *** Re-Reading the Fockian *** 
                      *** Removing any level shift *** 
ITER      Energy       Delta-E        Grad      Rot      Max-DP    RMS-DP
  6   -708.49257569  -0.0001189702  0.000269  0.000269  0.013139  0.000159
               *** Restarting incremental Fock matrix formation ***
  7   -708.49259625  -0.0000205563  0.000258  0.001015  0.002003  0.000057
  8   -708.49258888   0.0000073693  0.000493  0.000704  0.002289  0.000029
  9   -708.49260025  -0.0000113715  0.000050  0.000145  0.000873  0.000012
 10   -708.49259992   0.0000003302  0.000093  0.000094  0.000718  0.000007
 11   -708.49260041  -0.0000004829  0.000005  0.000007  0.001046  0.000010
 12   -708.49260043  -0.0000000249  0.000005  0.000003  0.000252  0.000003
                  ***Gradient check signals convergence***
              ***Rediagonalizing the Fockian in SOSCF/NRSCF***

               *****************************************************
               *                     SUCCESS                       *
               *           SCF CONVERGED AFTER  13 CYCLES          *
               *****************************************************

Old exchange energy                            =    -19.155830039 Eh
New exchange energy                            =    -19.155807278 Eh
Exchange energy change after final integration =      0.000022761 Eh
Total energy after final integration           =   -708.492577642 Eh
Final COS-X integration done in                =    19.297 sec

----------------
TOTAL SCF ENERGY
----------------

Total Energy       :         -708.49257764 Eh          -19279.06317 eV

Components:
Nuclear Repulsion  :         1155.74016970 Eh           31449.28887 eV
Electronic Energy  :        -1864.23274734 Eh          -50728.35203 eV
One Electron Energy:        -3241.23478777 Eh          -88198.48250 eV
Two Electron Energy:         1377.00204044 Eh           37470.13046 eV
Max COSX asymmetry :            0.00001088 Eh               0.00030 eV
CPCM Dielectric    :           -0.09708717 Eh              -2.64188 eV

Virial components:
Potential Energy   :        -1412.79192489 Eh          -38444.02273 eV
Kinetic Energy     :          704.29934725 Eh           19164.95957 eV
Virial Ratio       :            2.00595376


DFT components:
N(Alpha)           :       58.999906778735 electrons
N(Beta)            :       58.999906778735 electrons
N(Total)           :      117.999813557470 electrons
E(X)               :      -76.048038898482 Eh       
E(C)               :       -4.668308184363 Eh       
E(XC)              :      -80.716347082846 Eh       
DFET-embed. en.    :        0.000000000000 Eh       
CPCM Solvation Model Properties:
Surface-charge          :           -1.02978470
Charge-correction       :            0.00325582 Eh               0.08860 eV
Free-energy (cav+disp)  :  This term is not implemented in the current solvation scheme

---------------
SCF CONVERGENCE
---------------

  Last Energy change         ...    2.8083e-08  Tolerance :   1.0000e-08
  Last MAX-Density change    ...    2.6645e-15  Tolerance :   1.0000e-07
  Last RMS-Density change    ...    3.4849e-17  Tolerance :   5.0000e-09
  Last Orbital Gradient      ...    4.8538e-07  Tolerance :   1.0000e-05
  Last Orbital Rotation      ...    8.9859e-07  Tolerance :   1.0000e-05

             **** THE GBW FILE WAS UPDATED (Nk_water.gbw) ****
             **** DENSITY Nk_water.scfp WAS UPDATED ****
             **** ENERGY FILE WAS UPDATED (Nk_water.en.tmp) ****
             **** THE GBW FILE WAS UPDATED (Nk_water.gbw) ****
             **** DENSITY Nk_water.scfp WAS UPDATED ****
----------------
ORBITAL ENERGIES
----------------

  NO   OCC          E(Eh)            E(eV) 
   0   2.0000     -19.134655      -520.6804 
   1   2.0000     -19.128930      -520.5247 
   2   2.0000     -14.419317      -392.3696 
   3   2.0000     -14.375602      -391.1800 
   4   2.0000     -14.368082      -390.9754 
   5   2.0000     -10.298302      -280.2310 
   6   2.0000     -10.295873      -280.1650 
   7   2.0000     -10.230975      -278.3990 
   8   2.0000     -10.224405      -278.2202 
   9   2.0000     -10.217954      -278.0447 
  10   2.0000     -10.206709      -277.7387 
  11   2.0000     -10.203982      -277.6645 
  12   2.0000     -10.185420      -277.1594 
  13   2.0000     -10.181859      -277.0625 
  14   2.0000     -10.179291      -276.9926 
  15   2.0000      -1.063065       -28.9275 
  16   2.0000      -1.044415       -28.4200 
  17   2.0000      -0.983640       -26.7662 
  18   2.0000      -0.942887       -25.6573 
  19   2.0000      -0.941328       -25.6148 
  20   2.0000      -0.805179       -21.9100 
  21   2.0000      -0.767837       -20.8939 
  22   2.0000      -0.740025       -20.1371 
  23   2.0000      -0.726381       -19.7658 
  24   2.0000      -0.715950       -19.4820 
  25   2.0000      -0.681837       -18.5537 
  26   2.0000      -0.658936       -17.9306 
  27   2.0000      -0.612048       -16.6547 
  28   2.0000      -0.584016       -15.8919 
  29   2.0000      -0.562150       -15.2969 
  30   2.0000      -0.548541       -14.9266 
  31   2.0000      -0.529730       -14.4147 
  32   2.0000      -0.519815       -14.1449 
  33   2.0000      -0.508703       -13.8425 
  34   2.0000      -0.501090       -13.6354 
  35   2.0000      -0.478227       -13.0132 
  36   2.0000      -0.473189       -12.8761 
  37   2.0000      -0.470587       -12.8053 
  38   2.0000      -0.463126       -12.6023 
  39   2.0000      -0.448458       -12.2032 
  40   2.0000      -0.436646       -11.8818 
  41   2.0000      -0.424858       -11.5610 
  42   2.0000      -0.416891       -11.3442 
  43   2.0000      -0.413445       -11.2504 
  44   2.0000      -0.408201       -11.1077 
  45   2.0000      -0.404295       -11.0014 
  46   2.0000      -0.395567       -10.7639 
  47   2.0000      -0.393437       -10.7060 
  48   2.0000      -0.385140       -10.4802 
  49   2.0000      -0.380061       -10.3420 
  50   2.0000      -0.379302       -10.3213 
  51   2.0000      -0.357954        -9.7404 
  52   2.0000      -0.354332        -9.6419 
  53   2.0000      -0.346458        -9.4276 
  54   2.0000      -0.339547        -9.2396 
  55   2.0000      -0.278356        -7.5745 
  56   2.0000      -0.275061        -7.4848 
  57   2.0000      -0.255200        -6.9443 
  58   2.0000      -0.251791        -6.8516 
  59   0.0000      -0.004117        -0.1120 
  60   0.0000       0.002330         0.0634 
  61   0.0000       0.004170         0.1135 
  62   0.0000       0.014423         0.3925 
  63   0.0000       0.015913         0.4330 
  64   0.0000       0.020163         0.5487 
  65   0.0000       0.030320         0.8250 
  66   0.0000       0.036024         0.9803 
  67   0.0000       0.040875         1.1123 
  68   0.0000       0.043903         1.1947 
  69   0.0000       0.048221         1.3122 
  70   0.0000       0.056692         1.5427 
  71   0.0000       0.059887         1.6296 
  72   0.0000       0.062951         1.7130 
  73   0.0000       0.069964         1.9038 
  74   0.0000       0.073367         1.9964 
  75   0.0000       0.080175         2.1817 
  76   0.0000       0.087009         2.3676 
  77   0.0000       0.089622         2.4387 
  78   0.0000       0.091121         2.4795 
  79   0.0000       0.093824         2.5531 
  80   0.0000       0.098545         2.6815 
  81   0.0000       0.103632         2.8200 
  82   0.0000       0.108234         2.9452 
  83   0.0000       0.114249         3.1089 
  84   0.0000       0.118008         3.2111 
  85   0.0000       0.125362         3.4113 
  86   0.0000       0.126895         3.4530 
  87   0.0000       0.134795         3.6680 
  88   0.0000       0.137170         3.7326 
  89   0.0000       0.138107         3.7581 
  90   0.0000       0.145549         3.9606 
  91   0.0000       0.146376         3.9831 
  92   0.0000       0.152982         4.1628 
  93   0.0000       0.161310         4.3895 
  94   0.0000       0.165569         4.5054 
  95   0.0000       0.169791         4.6202 
  96   0.0000       0.175380         4.7723 
  97   0.0000       0.177144         4.8203 
  98   0.0000       0.177870         4.8401 
  99   0.0000       0.182455         4.9648 
 100   0.0000       0.187527         5.1029 
 101   0.0000       0.192275         5.2321 
 102   0.0000       0.197283         5.3684 
 103   0.0000       0.198974         5.4144 
 104   0.0000       0.200801         5.4641 
 105   0.0000       0.203215         5.5297 
 106   0.0000       0.210989         5.7413 
 107   0.0000       0.215547         5.8653 
 108   0.0000       0.217667         5.9230 
 109   0.0000       0.221214         6.0195 
 110   0.0000       0.226195         6.1551 
 111   0.0000       0.228767         6.2251 
 112   0.0000       0.234126         6.3709 
 113   0.0000       0.236013         6.4222 
 114   0.0000       0.242298         6.5933 
 115   0.0000       0.243310         6.6208 
 116   0.0000       0.246405         6.7050 
 117   0.0000       0.250715         6.8223 
 118   0.0000       0.255122         6.9422 
 119   0.0000       0.262165         7.1339 
 120   0.0000       0.266889         7.2624 
 121   0.0000       0.274769         7.4768 
 122   0.0000       0.276245         7.5170 
 123   0.0000       0.280758         7.6398 
 124   0.0000       0.284877         7.7519 
 125   0.0000       0.291582         7.9344 
 126   0.0000       0.294332         8.0092 
 127   0.0000       0.300716         8.1829 
 128   0.0000       0.306530         8.3411 
 129   0.0000       0.315034         8.5725 
 130   0.0000       0.318807         8.6752 
 131   0.0000       0.325775         8.8648 
 132   0.0000       0.329111         8.9556 
 133   0.0000       0.340124         9.2553 
 134   0.0000       0.343116         9.3367 
 135   0.0000       0.345846         9.4109 
 136   0.0000       0.350077         9.5261 
 137   0.0000       0.354333         9.6419 
 138   0.0000       0.371021        10.0960 
 139   0.0000       0.374194        10.1823 
 140   0.0000       0.375105        10.2071 
 141   0.0000       0.386184        10.5086 
 142   0.0000       0.390259        10.6195 
 143   0.0000       0.402822        10.9613 
 144   0.0000       0.414128        11.2690 
 145   0.0000       0.416806        11.3419 
 146   0.0000       0.425633        11.5821 
 147   0.0000       0.428194        11.6518 
 148   0.0000       0.435089        11.8394 
 149   0.0000       0.456079        12.4105 
 150   0.0000       0.461374        12.5546 
 151   0.0000       0.470971        12.8158 
 152   0.0000       0.483815        13.1653 
 153   0.0000       0.495961        13.4958 
 154   0.0000       0.507483        13.8093 
 155   0.0000       0.530373        14.4322 
 156   0.0000       0.548228        14.9180 
 157   0.0000       0.626878        17.0582 
 158   0.0000       0.639746        17.4084 
 159   0.0000       0.655476        17.8364 
 160   0.0000       0.663434        18.0530 
 161   0.0000       0.671046        18.2601 
 162   0.0000       0.684220        18.6186 
 163   0.0000       0.689817        18.7709 
 164   0.0000       0.705697        19.2030 
 165   0.0000       0.708176        19.2705 
 166   0.0000       0.711980        19.3740 
 167   0.0000       0.730350        19.8738 
 168   0.0000       0.738005        20.0821 
 169   0.0000       0.746286        20.3075 
 170   0.0000       0.757303        20.6073 
 171   0.0000       0.768911        20.9231 
 172   0.0000       0.778076        21.1725 
 173   0.0000       0.783393        21.3172 
 174   0.0000       0.795770        21.6540 
 175   0.0000       0.812979        22.1223 
 176   0.0000       0.829546        22.5731 
 177   0.0000       0.837301        22.7841 
 178   0.0000       0.844867        22.9900 
 179   0.0000       0.868187        23.6246 
 180   0.0000       0.874042        23.7839 
 181   0.0000       0.881798        23.9949 
 182   0.0000       0.890609        24.2347 
 183   0.0000       0.898545        24.4507 
 184   0.0000       0.914298        24.8793 
 185   0.0000       0.916746        24.9459 
 186   0.0000       0.941400        25.6168 
 187   0.0000       0.954957        25.9857 
 188   0.0000       0.962107        26.1803 
 189   0.0000       0.973903        26.5013 
 190   0.0000       0.984824        26.7984 
 191   0.0000       0.992377        27.0039 
 192   0.0000       1.000625        27.2284 
 193   0.0000       1.010420        27.4949 
 194   0.0000       1.012891        27.5622 
 195   0.0000       1.024972        27.8909 
 196   0.0000       1.030226        28.0339 
 197   0.0000       1.032426        28.0937 
 198   0.0000       1.041744        28.3473 
 199   0.0000       1.044750        28.4291 
 200   0.0000       1.055483        28.7211 
 201   0.0000       1.067645        29.0521 
 202   0.0000       1.074675        29.2434 
 203   0.0000       1.096952        29.8496 
 204   0.0000       1.112477        30.2720 
 205   0.0000       1.121733        30.5239 
 206   0.0000       1.134628        30.8748 
 207   0.0000       1.141823        31.0706 
 208   0.0000       1.155060        31.4308 
 209   0.0000       1.161309        31.6008 
 210   0.0000       1.183661        32.2091 
 211   0.0000       1.194610        32.5070 
 212   0.0000       1.203746        32.7556 
 213   0.0000       1.229611        33.4594 
 214   0.0000       1.237503        33.6742 
 215   0.0000       1.246684        33.9240 
 216   0.0000       1.256871        34.2012 
 217   0.0000       1.269347        34.5407 
 218   0.0000       1.282178        34.8898 
 219   0.0000       1.297257        35.3002 
 220   0.0000       1.310800        35.6687 
 221   0.0000       1.335729        36.3470 
 222   0.0000       1.353317        36.8256 
 223   0.0000       1.362638        37.0793 
 224   0.0000       1.365611        37.1602 
 225   0.0000       1.382929        37.6314 
 226   0.0000       1.395608        37.9764 
 227   0.0000       1.420697        38.6591 
 228   0.0000       1.425727        38.7960 
 229   0.0000       1.441972        39.2380 
 230   0.0000       1.461630        39.7730 
 231   0.0000       1.470594        40.0169 
 232   0.0000       1.481083        40.3023 
 233   0.0000       1.490014        40.5453 
 234   0.0000       1.500879        40.8410 
 235   0.0000       1.540557        41.9207 
 236   0.0000       1.562085        42.5065 
 237   0.0000       1.622152        44.1410 
 238   0.0000       1.624731        44.2112 
 239   0.0000       1.647231        44.8234 
 240   0.0000       1.675076        45.5811 
 241   0.0000       1.702563        46.3291 
 242   0.0000       1.711554        46.5738 
 243   0.0000       1.717824        46.7444 
 244   0.0000       1.762814        47.9686 
 245   0.0000       1.778516        48.3959 
 246   0.0000       1.799466        48.9659 
 247   0.0000       1.807447        49.1831 
 248   0.0000       1.821350        49.5614 
 249   0.0000       1.833940        49.9040 
 250   0.0000       1.847090        50.2619 
 251   0.0000       1.866748        50.7968 
 252   0.0000       1.881719        51.2042 
 253   0.0000       1.887597        51.3641 
 254   0.0000       1.900182        51.7066 
 255   0.0000       1.914793        52.1042 
 256   0.0000       1.924236        52.3611 
 257   0.0000       1.926770        52.4301 
 258   0.0000       1.942059        52.8461 
 259   0.0000       1.963196        53.4213 
 260   0.0000       1.977813        53.8190 
 261   0.0000       1.980379        53.8889 
 262   0.0000       2.000213        54.4286 
 263   0.0000       2.027982        55.1842 
 264   0.0000       2.040053        55.5127 
 265   0.0000       2.045878        55.6712 
 266   0.0000       2.062928        56.1351 
 267   0.0000       2.078535        56.5598 
 268   0.0000       2.094527        56.9950 
 269   0.0000       2.096504        57.0488 
 270   0.0000       2.123263        57.7769 
 271   0.0000       2.130543        57.9750 
 272   0.0000       2.142050        58.2881 
 273   0.0000       2.155874        58.6643 
 274   0.0000       2.183072        59.4044 
 275   0.0000       2.210675        60.1555 
 276   0.0000       2.227132        60.6033 
 277   0.0000       2.247397        61.1548 
 278   0.0000       2.261102        61.5277 
 279   0.0000       2.288076        62.2617 
 280   0.0000       2.294472        62.4358 
 281   0.0000       2.312562        62.9280 
 282   0.0000       2.330727        63.4223 
 283   0.0000       2.346465        63.8506 
 284   0.0000       2.353421        64.0399 
 285   0.0000       2.375520        64.6412 
 286   0.0000       2.391592        65.0785 
 287   0.0000       2.406481        65.4837 
 288   0.0000       2.415675        65.7338 
 289   0.0000       2.434208        66.2382 
 290   0.0000       2.451887        66.7192 
 291   0.0000       2.466930        67.1286 
 292   0.0000       2.490175        67.7611 
 293   0.0000       2.493265        67.8452 
 294   0.0000       2.506554        68.2068 
 295   0.0000       2.516660        68.4818 
 296   0.0000       2.589139        70.4540 
 297   0.0000       2.606887        70.9370 
 298   0.0000       2.623210        71.3812 
 299   0.0000       2.650484        72.1233 
 300   0.0000       2.664409        72.5022 
 301   0.0000       2.708780        73.7096 
 302   0.0000       2.715035        73.8799 
 303   0.0000       2.726403        74.1892 
 304   0.0000       2.748363        74.7868 
 305   0.0000       2.804966        76.3270 
 306   0.0000       2.809140        76.4406 
 307   0.0000       2.855955        77.7145 
 308   0.0000       2.948872        80.2429 
 309   0.0000       2.993445        81.4558 
 310   0.0000       3.129963        85.1706 
 311   0.0000       3.160606        86.0045 
 312   0.0000       3.203094        87.1606 
 313   0.0000       3.258596        88.6709 

                    ********************************
                    * MULLIKEN POPULATION ANALYSIS *
                    ********************************

-----------------------
MULLIKEN ATOMIC CHARGES
-----------------------
   0 C :   -1.041731
   1 H :    0.250107
   2 H :    0.261811
   3 H :    0.241393
   4 C :    0.888785
   5 O :   -0.566463
   6 N :   -0.152544
   7 C :   -0.784097
   8 H :    0.260717
   9 H :    0.248111
  10 C :   -0.382678
  11 H :    0.232557
  12 H :    0.233725
  13 C :   -0.422315
  14 H :    0.221371
  15 H :    0.224515
  16 C :    0.520759
  17 N :    0.040812
  18 O :   -0.733475
  19 C :   -0.540139
  20 H :    0.229146
  21 H :    0.239182
  22 H :    0.258724
  23 C :   -0.520641
  24 H :    0.235297
  25 H :    0.241867
  26 H :    0.232072
  27 C :   -0.345840
  28 H :    0.226771
  29 H :    0.237893
  30 C :   -0.149001
  31 H :    0.272925
  32 H :    0.253638
  33 N :   -1.046231
  34 H :    0.516411
  35 H :    0.508631
  36 H :    0.607934
Sum of atomic charges:    1.0000000

--------------------------------
MULLIKEN REDUCED ORBITAL CHARGES
--------------------------------
  0 C s       :     3.811956  s :     3.811956
      pz      :     1.042084  p :     3.198503
      px      :     1.056045
      py      :     1.100374
      dz2     :     0.008611  d :     0.031272
      dxz     :     0.005071
      dyz     :     0.004390
      dx2y2   :     0.009516
      dxy     :     0.003684
  1 H s       :     0.749893  s :     0.749893
  2 H s       :     0.738189  s :     0.738189
  3 H s       :     0.758607  s :     0.758607
  4 C s       :     2.866332  s :     2.866332
      pz      :     0.684777  p :     2.132386
      px      :     0.703575
      py      :     0.744034
      dz2     :     0.028941  d :     0.112497
      dxz     :     0.028963
      dyz     :     0.021263
      dx2y2   :     0.017397
      dxy     :     0.015933
  5 O s       :     3.923315  s :     3.923315
      pz      :     1.772207  p :     4.618322
      px      :     1.387966
      py      :     1.458149
      dz2     :     0.003161  d :     0.024826
      dxz     :     0.004881
      dyz     :     0.003270
      dx2y2   :     0.007969
      dxy     :     0.005545
  6 N s       :     3.265029  s :     3.265029
      pz      :     1.100440  p :     3.851368
      px      :     1.339325
      py      :     1.411603
[...]
     87       0.001255   0.000023   0.001841
     88      -0.002338  -0.000064   0.000119
     89       0.000757  -0.000308   0.001506
     90       0.005315  -0.001498   0.000735
     91      -0.002323  -0.000206   0.000601
     92       0.003917   0.000998  -0.000880
     93       0.010717   0.009372  -0.009179
     94       0.006651   0.006399  -0.006208
     95      -0.015845  -0.013665   0.013266
     96      -0.071888   0.008887   0.000763
     97       0.009206   0.000054   0.000055
     98      -0.024443   0.003238   0.000587
     99       0.063606  -0.046502   0.007703
    100      -0.011381  -0.044310  -0.024803
    101       0.009694   0.009251  -0.076944
    102       0.038109   0.199108   0.206940
    103       0.088547   0.490329   0.490004
    104       0.084749   0.465749   0.450684
    105       0.051422   0.290154  -0.308343
    106       0.027548   0.132201  -0.148168
    107      -0.120263  -0.611036   0.624367
    108      -0.968964   0.150808  -0.004675
    109       0.064823  -0.016128  -0.003334
    110      -0.107207   0.018608  -0.012259


-----------
IR SPECTRUM
-----------

 Mode   freq       eps      Int      T**2         TX        TY        TZ
       cm**-1   L/(mol*cm) km/mol    a.u.
----------------------------------------------------------------------------
  7:     31.15   0.002295   11.60  0.022994  (-0.026671 -0.112044 -0.098637)
  8:     49.20   0.004223   21.34  0.026783  ( 0.040578  0.125407 -0.097004)
  9:     68.33   0.001352    6.83  0.006175  (-0.035905 -0.005285 -0.069701)
 10:     74.26   0.000074    0.37  0.000310  ( 0.007774  0.004587  0.015117)
 11:     85.58   0.000838    4.24  0.003056  ( 0.026006 -0.008476  0.048038)
 12:    102.92   0.002360   11.93  0.007155  ( 0.060717  0.052911  0.025864)
 13:    118.66   0.000707    3.57  0.001858  (-0.017144 -0.002982 -0.039442)
 14:    127.93   0.000246    1.24  0.000601  ( 0.013670  0.018696  0.008024)
 15:    149.15   0.002246   11.35  0.004698  ( 0.067976 -0.000766 -0.008774)
 16:    155.93   0.000375    1.89  0.000750  ( 0.019521  0.015078 -0.011884)
 17:    185.89   0.013054   65.97  0.021914  ( 0.129200  0.034467 -0.063510)
 18:    207.97   0.002060   10.41  0.003091  (-0.051923 -0.001256 -0.019832)
 19:    256.59   0.000547    2.77  0.000666  (-0.020953 -0.014281  0.004768)
 20:    267.20   0.003294   16.65  0.003848  (-0.046155  0.013326 -0.039239)
 21:    284.57   0.000838    4.23  0.000919  ( 0.014447  0.026643 -0.000075)
 22:    300.38   0.003267   16.51  0.003394  (-0.040754 -0.009881  0.040440)
 23:    320.94   0.001868    9.44  0.001816  ( 0.007950 -0.011609  0.040225)
 24:    340.80   0.000319    1.61  0.000292  (-0.015575 -0.006171  0.003419)
 25:    366.52   0.000961    4.86  0.000818  (-0.024668  0.008798 -0.011511)
 26:    404.49   0.002107   10.65  0.001625  (-0.024012  0.008494 -0.031249)
 27:    409.99   0.006979   35.27  0.005312  ( 0.041275 -0.057763 -0.016488)
 28:    457.76   0.001653    8.36  0.001127  ( 0.024058  0.022865 -0.005052)
 29:    483.05   0.003012   15.22  0.001946  ( 0.039192  0.016864 -0.011205)
 30:    505.89   0.007393   37.36  0.004560  (-0.037822  0.014787 -0.053956)
 31:    593.51   0.005667   28.64  0.002980  ( 0.046480 -0.011093 -0.026384)
 32:    603.99   0.000123    0.62  0.000064  (-0.007369 -0.002655 -0.001481)
 33:    622.16   0.001823    9.21  0.000914  ( 0.010120  0.028123  0.004574)
 34:    656.91   0.002708   13.68  0.001286  (-0.030025  0.009735 -0.017030)
 35:    732.40   0.003497   17.67  0.001490  (-0.026796 -0.011868  0.025121)
 36:    771.90   0.006611   33.41  0.002673  ( 0.050460  0.003888 -0.010552)
 37:    829.48   0.007426   37.53  0.002794  (-0.033459 -0.026645  0.031051)
 38:    863.12   0.003143   15.89  0.001137  (-0.031041 -0.004105 -0.012495)
 39:    880.96   0.001773    8.96  0.000628  (-0.017154 -0.001455 -0.018216)
 40:    923.13   0.001764    8.92  0.000596  (-0.011482 -0.015571 -0.014903)
 41:    954.00   0.009899   50.02  0.003238  (-0.048733 -0.027938  0.009088)
 42:    970.84   0.005034   25.44  0.001618  (-0.037847 -0.000307  0.013625)
 43:   1002.10   0.003195   16.14  0.000995  ( 0.008945 -0.023466 -0.019085)
 44:   1010.82   0.007797   39.40  0.002407  (-0.020376  0.018337  0.040689)
 45:   1023.66   0.003352   16.94  0.001022  ( 0.001306 -0.022605  0.022563)
 46:   1037.84   0.002754   13.92  0.000828  ( 0.014936  0.024201 -0.004387)
 47:   1062.46   0.002284   11.54  0.000671  (-0.013406 -0.021123  0.006704)
 48:   1083.55   0.008770   44.32  0.002526  (-0.039661 -0.030602 -0.004022)
 49:   1084.11   0.000792    4.00  0.000228  ( 0.005648  0.006002  0.012647)
 50:   1104.43   0.003312   16.74  0.000936  ( 0.023926  0.010882  0.015651)
 51:   1123.50   0.003110   15.72  0.000864  ( 0.026816 -0.011179  0.004454)
 52:   1142.92   0.011004   55.61  0.003005  ( 0.051361 -0.018782 -0.003722)
 53:   1164.31   0.005089   25.72  0.001364  ( 0.031770 -0.014859  0.011566)
 54:   1173.16   0.018691   94.45  0.004972  ( 0.056508 -0.031733  0.027778)
 55:   1187.33   0.010740   54.28  0.002823  ( 0.036686 -0.036728 -0.011313)
 56:   1219.55   0.000428    2.16  0.000109  (-0.006637  0.005547  0.005884)
 57:   1265.40   0.004385   22.16  0.001081  (-0.019509 -0.011841  0.023674)
 58:   1283.43   0.007624   38.53  0.001854  ( 0.029255 -0.031587  0.000301)
 59:   1296.18   0.004835   24.43  0.001164  (-0.021616  0.002132  0.026310)
 60:   1322.81   0.007830   39.57  0.001847  ( 0.006022 -0.005470  0.042203)
 61:   1333.63   0.002658   13.43  0.000622  ( 0.011272  0.011547  0.019017)
 62:   1362.85   0.004308   21.77  0.000986  ( 0.022374  0.002173  0.021934)
 63:   1370.30   0.014425   72.90  0.003285  ( 0.012281  0.003511 -0.055874)
 64:   1375.89   0.011272   56.97  0.002557  (-0.026245 -0.002799 -0.043128)
 65:   1400.09   0.015824   79.97  0.003527  ( 0.046744 -0.021731 -0.029492)
 66:   1407.55   0.003093   15.63  0.000686  ( 0.023070 -0.012370  0.000645)
 67:   1415.78   0.008099   40.93  0.001785  ( 0.004029  0.006227 -0.041596)
 68:   1441.59   0.004429   22.38  0.000959  (-0.020060  0.020894  0.010941)
 69:   1444.14   0.019955  100.84  0.004312  (-0.057320 -0.001443  0.032007)
 70:   1455.48   0.016710   84.44  0.003583  (-0.036284  0.012157  0.046025)
 71:   1473.19   0.013566   68.56  0.002874  (-0.015212  0.013863 -0.049499)
 72:   1476.70   0.007111   35.93  0.001503  (-0.032942  0.019308  0.006683)
 73:   1482.97   0.017731   89.60  0.003731  (-0.016718 -0.058700 -0.002443)
 74:   1490.57   0.002241   11.33  0.000469  ( 0.004512 -0.020935 -0.003260)
 75:   1492.50   0.017602   88.95  0.003680  (-0.000613  0.006019 -0.060364)
 76:   1499.85   0.004035   20.39  0.000839  ( 0.002323  0.028854 -0.001246)
 77:   1501.34   0.001752    8.85  0.000364  (-0.013056 -0.006828 -0.012124)
 78:   1510.35   0.005975   30.20  0.001235  ( 0.013819  0.029423 -0.013337)
 79:   1510.88   0.002911   14.71  0.000601  (-0.018631  0.011440 -0.011099)
 80:   1511.97   0.001661    8.39  0.000343  (-0.003130 -0.005982  0.017241)
 81:   1516.16   0.016178   81.76  0.003330  (-0.023424 -0.052726 -0.001061)
 82:   1522.28   0.032818  165.85  0.006728  ( 0.019876  0.067256 -0.042536)
 83:   1534.68   0.013773   69.60  0.002801  (-0.033265 -0.007307 -0.040506)
 84:   1547.79   0.018355   92.76  0.003701  (-0.050129  0.034208  0.004184)
 85:   1646.38   0.108172  546.65  0.020503  ( 0.141362  0.002959 -0.022618)
 86:   1659.07   0.122568  619.41  0.023054  ( 0.095702 -0.067791 -0.096436)
 87:   1666.14   0.081901  413.89  0.015340  (-0.112308 -0.048011 -0.020537)
 88:   1693.53   0.021463  108.47  0.003955  (-0.047877  0.002180  0.040720)
 89:   3044.06   0.012398   62.65  0.001271  ( 0.013091 -0.028125 -0.017567)
 90:   3053.32   0.007487   37.83  0.000765  (-0.014443  0.017278 -0.016064)
 91:   3056.66   0.003467   17.52  0.000354  ( 0.010013  0.003145 -0.015613)
 92:   3060.45   0.008654   43.73  0.000882  ( 0.026841  0.012726  0.000047)
 93:   3061.35   0.001055    5.33  0.000108  (-0.005687  0.008109 -0.003077)
 94:   3078.74   0.004615   23.32  0.000468  (-0.000206 -0.020897  0.005572)
 95:   3089.83   0.006466   32.68  0.000653  ( 0.011632  0.016374  0.015799)
 96:   3092.36   0.011138   56.29  0.001124  ( 0.019830 -0.019323 -0.018905)
 97:   3099.70   0.004847   24.50  0.000488  ( 0.014238  0.010948  0.012863)
 98:   3115.89   0.007728   39.05  0.000774  (-0.011128  0.008159 -0.024157)
 99:   3117.78   0.007998   40.42  0.000801  ( 0.024720 -0.001321  0.013702)
100:   3125.25   0.008623   43.58  0.000861  (-0.013817  0.008516 -0.024446)
101:   3128.29   0.003186   16.10  0.000318  (-0.001999 -0.000788  0.017697)
102:   3132.80   0.002607   13.18  0.000260  ( 0.011976  0.006172  0.008843)
103:   3146.07   0.003838   19.40  0.000381  ( 0.017020  0.009176 -0.002608)
104:   3162.19   0.002878   14.54  0.000284  ( 0.008401 -0.014602 -0.000425)
105:   3166.52   0.002251   11.37  0.000222  (-0.007772  0.002183  0.012516)
106:   3178.75   0.003685   18.62  0.000362  (-0.017462 -0.001151  0.007447)
107:   3185.10   0.001300    6.57  0.000127  ( 0.008835  0.006515 -0.002627)
108:   3239.29   0.165394  835.83  0.015934  (-0.126027 -0.004924  0.005148)
109:   3462.27   0.034411  173.90  0.003102  ( 0.044687  0.032464 -0.007121)
110:   3515.64   0.024350  123.05  0.002161  (-0.004044  0.014003  0.044147)

* The epsilon (eps) is given for a Dirac delta lineshape.
** The dipole moment derivative (T) already includes vibrational overlap.

The first frequency considered to be a vibration is 7
The total number of vibrations considered is 104


--------------------------
THERMOCHEMISTRY AT 298.15K
--------------------------

Temperature         ... 298.15 K
Pressure            ... 1.00 atm
Total Mass          ... 216.31 AMU

Throughout the following assumptions are being made:
  (1) The electronic state is orbitally nondegenerate
  (2) There are no thermally accessible electronically excited states
  (3) Hindered rotations indicated by low frequency modes are not
      treated as such but are treated as vibrations and this may
      cause some error
  (4) All equations used are the standard statistical mechanics
      equations for an ideal gas
  (5) All vibrations are strictly harmonic

freq.      31.15  E(vib)   ...       0.55 
freq.      49.20  E(vib)   ...       0.52 
freq.      68.33  E(vib)   ...       0.50 
freq.      74.26  E(vib)   ...       0.49 
freq.      85.58  E(vib)   ...       0.48 
freq.     102.92  E(vib)   ...       0.46 
freq.     118.66  E(vib)   ...       0.44 
freq.     127.93  E(vib)   ...       0.43 
freq.     149.15  E(vib)   ...       0.40 
freq.     155.93  E(vib)   ...       0.40 
freq.     185.89  E(vib)   ...       0.37 
freq.     207.97  E(vib)   ...       0.34 
freq.     256.59  E(vib)   ...       0.30 
freq.     267.20  E(vib)   ...       0.29 
freq.     284.57  E(vib)   ...       0.28 
freq.     300.38  E(vib)   ...       0.26 
freq.     320.94  E(vib)   ...       0.25 
freq.     340.80  E(vib)   ...       0.23 
freq.     366.52  E(vib)   ...       0.22 
freq.     404.49  E(vib)   ...       0.19 
freq.     409.99  E(vib)   ...       0.19 
freq.     457.76  E(vib)   ...       0.16 
freq.     483.05  E(vib)   ...       0.15 
freq.     505.89  E(vib)   ...       0.14 
freq.     593.51  E(vib)   ...       0.10 
freq.     603.99  E(vib)   ...       0.10 
freq.     622.16  E(vib)   ...       0.09 
freq.     656.91  E(vib)   ...       0.08 
freq.     732.40  E(vib)   ...       0.06 
freq.     771.90  E(vib)   ...       0.05 
freq.     829.48  E(vib)   ...       0.04 
freq.     863.12  E(vib)   ...       0.04 
freq.     880.96  E(vib)   ...       0.04 
freq.     923.13  E(vib)   ...       0.03 
freq.     954.00  E(vib)   ...       0.03 
freq.     970.84  E(vib)   ...       0.03 
freq.    1002.10  E(vib)   ...       0.02 
freq.    1010.82  E(vib)   ...       0.02 
freq.    1023.66  E(vib)   ...       0.02 
freq.    1037.84  E(vib)   ...       0.02 
freq.    1062.46  E(vib)   ...       0.02 
freq.    1083.55  E(vib)   ...       0.02 
freq.    1084.11  E(vib)   ...       0.02 
freq.    1104.43  E(vib)   ...       0.02 
freq.    1123.50  E(vib)   ...       0.01 
freq.    1142.92  E(vib)   ...       0.01 
freq.    1164.31  E(vib)   ...       0.01 
freq.    1173.16  E(vib)   ...       0.01 
freq.    1187.33  E(vib)   ...       0.01 
freq.    1219.55  E(vib)   ...       0.01 
freq.    1265.40  E(vib)   ...       0.01 
freq.    1283.43  E(vib)   ...       0.01 
freq.    1296.18  E(vib)   ...       0.01 
freq.    1322.81  E(vib)   ...       0.01 
freq.    1333.63  E(vib)   ...       0.01 
freq.    1362.85  E(vib)   ...       0.01 
freq.    1370.30  E(vib)   ...       0.01 
freq.    1375.89  E(vib)   ...       0.01 
freq.    1400.09  E(vib)   ...       0.00 
freq.    1407.55  E(vib)   ...       0.00 
freq.    1415.78  E(vib)   ...       0.00 
freq.    1441.59  E(vib)   ...       0.00 
freq.    1444.14  E(vib)   ...       0.00 
freq.    1455.48  E(vib)   ...       0.00 
freq.    1473.19  E(vib)   ...       0.00 
freq.    1476.70  E(vib)   ...       0.00 
freq.    1482.97  E(vib)   ...       0.00 
freq.    1490.57  E(vib)   ...       0.00 
freq.    1492.50  E(vib)   ...       0.00 
freq.    1499.85  E(vib)   ...       0.00 
freq.    1501.34  E(vib)   ...       0.00 
freq.    1510.35  E(vib)   ...       0.00 
freq.    1510.88  E(vib)   ...       0.00 
freq.    1511.97  E(vib)   ...       0.00 
freq.    1516.16  E(vib)   ...       0.00 
freq.    1522.28  E(vib)   ...       0.00 
freq.    1534.68  E(vib)   ...       0.00 
freq.    1547.79  E(vib)   ...       0.00 
freq.    1646.38  E(vib)   ...       0.00 
freq.    1659.07  E(vib)   ...       0.00 
freq.    1666.14  E(vib)   ...       0.00 
freq.    1693.53  E(vib)   ...       0.00 
freq.    3044.06  E(vib)   ...       0.00 
freq.    3053.32  E(vib)   ...       0.00 
freq.    3056.66  E(vib)   ...       0.00 
freq.    3060.45  E(vib)   ...       0.00 
freq.    3061.35  E(vib)   ...       0.00 
freq.    3078.74  E(vib)   ...       0.00 
freq.    3089.83  E(vib)   ...       0.00 
freq.    3092.36  E(vib)   ...       0.00 
freq.    3099.70  E(vib)   ...       0.00 
freq.    3115.89  E(vib)   ...       0.00 
freq.    3117.78  E(vib)   ...       0.00 
freq.    3125.25  E(vib)   ...       0.00 
freq.    3128.29  E(vib)   ...       0.00 
freq.    3132.80  E(vib)   ...       0.00 
freq.    3146.07  E(vib)   ...       0.00 
freq.    3162.19  E(vib)   ...       0.00 
freq.    3166.52  E(vib)   ...       0.00 
freq.    3178.75  E(vib)   ...       0.00 
freq.    3185.10  E(vib)   ...       0.00 
freq.    3239.29  E(vib)   ...       0.00 
freq.    3462.27  E(vib)   ...       0.00 
freq.    3515.64  E(vib)   ...       0.00 

------------
INNER ENERGY
------------

The inner energy is: U= E(el) + E(ZPE) + E(vib) + E(rot) + E(trans)
    E(el)   - is the total energy from the electronic structure calculation
              = E(kin-el) + E(nuc-el) + E(el-el) + E(nuc-nuc)
    E(ZPE)  - the the zero temperature vibrational energy from the frequency calculation
    E(vib)  - the the finite temperature correction to E(ZPE) due to population
              of excited vibrational states
    E(rot)  - is the rotational thermal energy
    E(trans)- is the translational thermal energy

Summary of contributions to the inner energy U:
Electronic energy                ...   -708.55767096 Eh
Zero point energy                ...      0.33443737 Eh     209.86 kcal/mol
Thermal vibrational correction   ...      0.01447600 Eh       9.08 kcal/mol
Thermal rotational correction    ...      0.00141627 Eh       0.89 kcal/mol
Thermal translational correction ...      0.00141627 Eh       0.89 kcal/mol
-----------------------------------------------------------------------
Total thermal energy                   -708.20592505 Eh


Summary of corrections to the electronic energy:
(perhaps to be used in another calculation)
Total thermal correction                  0.01730854 Eh      10.86 kcal/mol
Non-thermal (ZPE) correction              0.33443737 Eh     209.86 kcal/mol
-----------------------------------------------------------------------
Total correction                          0.35174591 Eh     220.72 kcal/mol


--------
ENTHALPY
--------

The enthalpy is H = U + kB*T
                kB is Boltzmann's constant
Total free energy                 ...   -708.20592505 Eh 
Thermal Enthalpy correction       ...      0.00094421 Eh       0.59 kcal/mol
-----------------------------------------------------------------------
Total Enthalpy                    ...   -708.20498084 Eh


Note: Only C1 symmetry has been detected, increase convergence thresholds 
      if your molecule has a higher symmetry. Symmetry factor of 1.0 is   
      used for the rotational entropy correction. 
 

Note: Rotational entropy computed according to Herzberg 
Infrared and Raman Spectra, Chapter V,1, Van Nostrand Reinhold, 1945 
Point Group:  C1, Symmetry Number:   1  
Rotational constants in cm-1:     0.024840     0.014741     0.011446 

Vibrational entropy computed according to the QRRHO of S. Grimme
Chem.Eur.J. 2012 18 9955


-------
ENTROPY
-------

The entropy contributions are T*S = T*(S(el)+S(vib)+S(rot)+S(trans))
     S(el)   - electronic entropy
     S(vib)  - vibrational entropy
     S(rot)  - rotational entropy
     S(trans)- translational entropy
The entropies will be listed as multiplied by the temperature to get
units of energy

Electronic entropy                ...      0.00000000 Eh      0.00 kcal/mol
Vibrational entropy               ...      0.02588851 Eh     16.25 kcal/mol
Rotational entropy                ...      0.01535650 Eh      9.64 kcal/mol
Translational entropy             ...      0.01996392 Eh     12.53 kcal/mol
-----------------------------------------------------------------------
Final entropy term                ...      0.06120893 Eh     38.41 kcal/mol

In case the symmetry of your molecule has not been determined correctly
or in case you have a reason to use a different symmetry number we print 
out the resulting rotational entropy values for sn=1,12 :
 --------------------------------------------------------
|  sn= 1 | S(rot)=       0.01535650 Eh      9.64 kcal/mol|
|  sn= 2 | S(rot)=       0.01470204 Eh      9.23 kcal/mol|
|  sn= 3 | S(rot)=       0.01431921 Eh      8.99 kcal/mol|
|  sn= 4 | S(rot)=       0.01404758 Eh      8.81 kcal/mol|
|  sn= 5 | S(rot)=       0.01383689 Eh      8.68 kcal/mol|
|  sn= 6 | S(rot)=       0.01366475 Eh      8.57 kcal/mol|
|  sn= 7 | S(rot)=       0.01351920 Eh      8.48 kcal/mol|
|  sn= 8 | S(rot)=       0.01339313 Eh      8.40 kcal/mol|
|  sn= 9 | S(rot)=       0.01328192 Eh      8.33 kcal/mol|
|  sn=10 | S(rot)=       0.01318244 Eh      8.27 kcal/mol|
|  sn=11 | S(rot)=       0.01309245 Eh      8.22 kcal/mol|
|  sn=12 | S(rot)=       0.01301029 Eh      8.16 kcal/mol|
 --------------------------------------------------------


-------------------
GIBBS FREE ENERGY
-------------------

The Gibbs free energy is G = H - T*S

Total enthalpy                    ...   -708.20498084 Eh 
Total entropy correction          ...     -0.06120893 Eh    -38.41 kcal/mol
-----------------------------------------------------------------------
Final Gibbs free energy         ...   -708.26618977 Eh

For completeness - the Gibbs free energy minus the electronic energy
G-E(el)                           ...      0.29148119 Eh    182.91 kcal/mol


Timings for individual modules:

Sum of individual times         ...     3762.260 sec (=  62.704 min)
GTO integral calculation        ...       27.128 sec (=   0.452 min)   0.7 %
SCF iterations                  ...     1812.813 sec (=  30.214 min)  48.2 %
SCF Gradient evaluation         ...      515.386 sec (=   8.590 min)  13.7 %
Geometry relaxation             ...        1.717 sec (=   0.029 min)   0.0 %
Analytical frequency calculation...     1405.215 sec (=  23.420 min)  37.4 %
                             ****ORCA TERMINATED NORMALLY****
TOTAL RUN TIME: 0 days 1 hours 2 minutes 49 seconds 239 msec
