
                                 *****************
                                 * O   R   C   A *
                                 *****************

                                            #,                                       
                                            ###                                      
                                            ####                                     
                                            #####                                    
                                            ######                                   
                                           ########,                                 
                                     ,,################,,,,,                         
                               ,,#################################,,                 
                          ,,##########################################,,             
                       ,#########################################, ''#####,          
                    ,#############################################,,   '####,        
                  ,##################################################,,,,####,       
                ,###########''''           ''''###############################       
              ,#####''   ,,,,##########,,,,          '''####'''          '####       
            ,##' ,,,,###########################,,,                        '##       
           ' ,,###''''                  '''############,,,                           
         ,,##''                                '''############,,,,        ,,,,,,###''
      ,#''                                            '''#######################'''  
     '                                                          ''''####''''         
             ,#######,   #######,   ,#######,      ##                                
            ,#'     '#,  ##    ##  ,#'     '#,    #''#        ######   ,####,        
            ##       ##  ##   ,#'  ##            #'  '#       #        #'  '#        
            ##       ##  #######   ##           ,######,      #####,   #    #        
            '#,     ,#'  ##    ##  '#,     ,#' ,#      #,         ##   #,  ,#        
             '#######'   ##     ##  '#######'  #'      '#     #####' # '####'        



                  #######################################################
                  #                        -***-                        #
                  #          Department of theory and spectroscopy      #
                  #    Directorship and core code : Frank Neese         #
                  #        Max Planck Institute fuer Kohlenforschung    #
                  #                Kaiser Wilhelm Platz 1               #
                  #                 D-45470 Muelheim/Ruhr               #
                  #                      Germany                        #
                  #                                                     #
                  #                  All rights reserved                #
                  #                        -***-                        #
                  #######################################################


                         Program Version 5.0.4 -  RELEASE  -


 With contributions from (in alphabetic order):
   Daniel Aravena         : Magnetic Suceptibility
   Michael Atanasov       : Ab Initio Ligand Field Theory (pilot matlab implementation)
   Alexander A. Auer      : GIAO ZORA, VPT2 properties, NMR spectrum
   Ute Becker             : Parallelization
   Giovanni Bistoni       : ED, misc. LED, open-shell LED, HFLD
   Martin Brehm           : Molecular dynamics
   Dmytro Bykov           : SCF Hessian
   Vijay G. Chilkuri      : MRCI spin determinant printing, contributions to CSF-ICE
   Dipayan Datta          : RHF DLPNO-CCSD density
   Achintya Kumar Dutta   : EOM-CC, STEOM-CC
   Dmitry Ganyushin       : Spin-Orbit,Spin-Spin,Magnetic field MRCI
   Miquel Garcia          : C-PCM and meta-GGA Hessian, CC/C-PCM, Gaussian charge scheme
   Yang Guo               : DLPNO-NEVPT2, F12-NEVPT2, CIM, IAO-localization
   Andreas Hansen         : Spin unrestricted coupled pair/coupled cluster methods
   Benjamin Helmich-Paris : MC-RPA, TRAH-SCF, COSX integrals
   Lee Huntington         : MR-EOM, pCC
   Robert Izsak           : Overlap fitted RIJCOSX, COSX-SCS-MP3, EOM
   Marcus Kettner         : VPT2
   Christian Kollmar      : KDIIS, OOCD, Brueckner-CCSD(T), CCSD density, CASPT2, CASPT2-K
   Simone Kossmann        : Meta GGA functionals, TD-DFT gradient, OOMP2, MP2 Hessian
   Martin Krupicka        : Initial AUTO-CI
   Lucas Lang             : DCDCAS
   Marvin Lechner         : AUTO-CI (C++ implementation), FIC-MRCC
   Dagmar Lenk            : GEPOL surface, SMD
   Dimitrios Liakos       : Extrapolation schemes; Compound Job, initial MDCI parallelization
   Dimitrios Manganas     : Further ROCIS development; embedding schemes
   Dimitrios Pantazis     : SARC Basis sets
   Anastasios Papadopoulos: AUTO-CI, single reference methods and gradients
   Taras Petrenko         : DFT Hessian,TD-DFT gradient, ASA, ECA, R-Raman, ABS, FL, XAS/XES, NRVS
   Peter Pinski           : DLPNO-MP2, DLPNO-MP2 Gradient
   Christoph Reimann      : Effective Core Potentials
   Marius Retegan         : Local ZFS, SOC
   Christoph Riplinger    : Optimizer, TS searches, QM/MM, DLPNO-CCSD(T), (RO)-DLPNO pert. Triples
   Tobias Risthaus        : Range-separated hybrids, TD-DFT gradient, RPA, STAB
   Michael Roemelt        : Original ROCIS implementation
   Masaaki Saitow         : Open-shell DLPNO-CCSD energy and density
   Barbara Sandhoefer     : DKH picture change effects
   Avijit Sen             : IP-ROCIS
   Kantharuban Sivalingam : CASSCF convergence, NEVPT2, FIC-MRCI
   Bernardo de Souza      : ESD, SOC TD-DFT
   Georgi Stoychev        : AutoAux, RI-MP2 NMR, DLPNO-MP2 response
   Willem Van den Heuvel  : Paramagnetic NMR
   Boris Wezisla          : Elementary symmetry handling
   Frank Wennmohs         : Technical directorship


 We gratefully acknowledge several colleagues who have allowed us to
 interface, adapt or use parts of their codes:
   Stefan Grimme, W. Hujo, H. Kruse, P. Pracht,  : VdW corrections, initial TS optimization,
                  C. Bannwarth, S. Ehlert          DFT functionals, gCP, sTDA/sTD-DF
   Ed Valeev, F. Pavosevic, A. Kumar             : LibInt (2-el integral package), F12 methods
   Garnet Chan, S. Sharma, J. Yang, R. Olivares  : DMRG
   Ulf Ekstrom                                   : XCFun DFT Library
   Mihaly Kallay                                 : mrcc  (arbitrary order and MRCC methods)
   Jiri Pittner, Ondrej Demel                    : Mk-CCSD
   Frank Weinhold                                : gennbo (NPA and NBO analysis)
   Christopher J. Cramer and Donald G. Truhlar   : smd solvation model
   Lars Goerigk                                  : TD-DFT with DH, B97 family of functionals
   V. Asgeirsson, H. Jonsson                     : NEB implementation
   FAccTs GmbH                                   : IRC, NEB, NEB-TS, DLPNO-Multilevel, CI-OPT
                                                   MM, QMMM, 2- and 3-layer-ONIOM, Crystal-QMMM,
                                                   LR-CPCM, SF, NACMEs, symmetry and pop. for TD-DFT,
                                                   nearIR, NL-DFT gradient (VV10), updates on ESD,
                                                   ML-optimized integration grids
   S Lehtola, MJT Oliveira, MAL Marques          : LibXC Library
   Liviu Ungur et al                             : ANISO software


 Your calculation uses the libint2 library for the computation of 2-el integrals
 For citations please refer to: http://libint.valeyev.net

 Your ORCA version has been built with support for libXC version: 5.1.0
 For citations please refer to: https://tddft.org/programs/libxc/

 This ORCA versions uses:
   CBLAS   interface :  Fast vector & matrix operations
   LAPACKE interface :  Fast linear algebra routines
   SCALAPACK package :  Parallel linear algebra routines
   Shared memory     :  Shared parallel matrices
   BLAS/LAPACK       :  OpenBLAS 0.3.15  USE64BITINT DYNAMIC_ARCH NO_AFFINITY SkylakeX SINGLE_THREADED
        Core in use  :  SkylakeX
   Copyright (c) 2011-2014, The OpenBLAS Project




***************************************
The coordinates will be read from file: /users/fjb15167/WWenergy/structures/Nwe.xyz
***************************************


Your calculation utilizes the atom-pairwise dispersion correction
based on tight binding partial charges (D4)
Cite in your paper:
E.Caldeweyher, C.Bannwarth, S.Grimme, J.Chem.Phys., (2017), 147, 034112.
E.Caldeweyher, S.Ehlert, A.Hansen, H.Neugebauer, S.Grimme, J.Chem.Phys., (2018), in progress.
   

================================================================================

----- Orbital basis set information -----
Your calculation utilizes the basis: 6-31G(d)
   H-He, Li-Ne : W. J. Hehre, R. Ditchfield and J.A. Pople, J. Chem. Phys. 56, 2257 (1972).
                 Note: He and Ne are unpublished basis sets taken from the Gaussian program.
                 Note: Li and B from J. D. Dill and J. A. Pople, J. Chem. Phys. 62, 2921 (1975).
   Na - Ar     : M. M. Francl, W. J. Pietro, W. J. Hehre, J. S. Binkley, M. S. Gordon, 
                 D. J. DeFrees and J. A. Pople, J. Chem. Phys. 77, 3654 (1982).
   K - Zn      : V. A. Rassolov, J. A. Pople, M. A. Ratner, and T. L. Windus, J. Chem. Phys. 109, 1223 (1998).

----- AuxJ basis set information -----
Your calculation utilizes the AutoAux generation procedure.
  G. L. Stoychev, A. A. Auer, F. Neese, J. Chem. Theory Comput. 13, 554 (2017)

----- AuxC basis set information -----
Your calculation utilizes the AutoAux generation procedure.
  G. L. Stoychev, A. A. Auer, F. Neese, J. Chem. Theory Comput. 13, 554 (2017)

----- AuxJK basis set information -----
Your calculation utilizes the AutoAux generation procedure.
  G. L. Stoychev, A. A. Auer, F. Neese, J. Chem. Theory Comput. 13, 554 (2017)

================================================================================
                                        WARNINGS
                       Please study these warnings very carefully!
================================================================================


WARNING: Geometry Optimization
  ===> : Switching off AutoStart
         For restart on a previous wavefunction, please use MOREAD

INFO   : the flag for use of the SHARK integral package has been found!

================================================================================
                                       INPUT FILE
================================================================================
NAME = Nwe_water.inp
|  1> ! OPT FREQ B3LYP 6-31G(d) D4 AUTOAUX CPCM(water)
|  2> 
|  3> %PAL NPROCS 4 END
|  4> 
|  5> %maxcore 3375
|  6> 
|  7> *xyzfile 0 1 /users/fjb15167/WWenergy/structures/Nwe.xyz
|  8> 
|  9>                          ****END OF INPUT****
================================================================================

                       *****************************
                       * Geometry Optimization Run *
                       *****************************

Geometry optimization settings:
Update method            Update   .... BFGS
Choice of coordinates    CoordSys .... Z-matrix Internals
Initial Hessian          InHess   .... Almoef's Model

Convergence Tolerances:
Energy Change            TolE     ....  5.0000e-06 Eh
Max. Gradient            TolMAXG  ....  3.0000e-04 Eh/bohr
RMS Gradient             TolRMSG  ....  1.0000e-04 Eh/bohr
Max. Displacement        TolMAXD  ....  4.0000e-03 bohr
RMS Displacement         TolRMSD  ....  2.0000e-03 bohr
Strict Convergence                ....  False
------------------------------------------------------------------------------
                        ORCA OPTIMIZATION COORDINATE SETUP
------------------------------------------------------------------------------

The optimization will be done in new redundant internal coordinates
Making redundant internal coordinates   ...  (new redundants) done
Evaluating the initial hessian          ...  (Almloef) done
Evaluating the coordinates              ...  done
Calculating the B-matrix                .... done
Calculating the G-matrix                .... done
Diagonalizing the G-matrix              .... done
Small eigenvalue found = 2.351e-03
Small eigenvalue found = 4.564e-03
Small eigenvalue found = 4.876e-03
Small eigenvalue found = 9.912e-03
Small eigenvalue found = 1.490e-02
Small eigenvalue found = 1.864e-02
Small eigenvalue found = 2.179e-02
The first mode is                       ....   97
The number of degrees of freedom        ....  120

    -----------------------------------------------------------------
                    Redundant Internal Coordinates


    -----------------------------------------------------------------
         Definition                    Initial Value    Approx d2E/dq
    -----------------------------------------------------------------
      1. B(C   1,C   0)                  1.3800         0.648105   
      2. B(C   2,C   0)                  1.4324         0.534616   
      3. B(H   3,C   1)                  1.0848         0.367035   
      4. B(N   4,C   1)                  1.3780         0.584818   
      5. B(C   5,N   4)                  1.3767         0.587529   
      6. B(C   5,C   2)                  1.4236         0.552162   
      7. B(C   6,C   2)                  1.4078         0.585346   
      8. B(H   7,N   4)                  1.0112         0.430883   
      9. B(C   8,C   5)                  1.4011         0.599809   
     10. B(C   9,C   6)                  1.3879         0.629600   
     11. B(H  10,C   6)                  1.0893         0.361026   
     12. B(H  11,C   8)                  1.0884         0.362260   
     13. B(C  12,C   9)                  1.4130         0.574251   
     14. B(C  12,C   8)                  1.3895         0.626050   
     15. B(H  13,C   9)                  1.0873         0.363669   
     16. B(H  14,C  12)                  1.0869         0.364211   
     17. B(C  15,C   0)                  1.4947         0.425255   
     18. B(H  16,C  15)                  1.0964         0.351678   
     19. B(H  17,C  15)                  1.0934         0.355625   
     20. B(C  18,C  15)                  1.5383         0.362391   
     21. B(H  19,C  18)                  1.0935         0.355509   
     22. B(H  20,C  18)                  1.0939         0.354920   
     23. B(N  21,C  18)                  1.4622         0.429237   
     24. B(C  22,N  21)                  1.4604         0.432080   
     25. B(H  23,C  22)                  1.0957         0.352585   
     26. B(H  24,C  22)                  1.0902         0.359796   
     27. B(C  25,N  21)                  1.3725         0.596827   
     28. B(C  26,C  22)                  1.5247         0.380878   
     29. B(N  27,C  26)                  1.3642         0.615170   
     30. B(C  28,C  25)                  1.5150         0.394760   
     31. B(H  29,C  28)                  1.0946         0.354051   
     32. B(H  30,C  28)                  1.0928         0.356445   
     33. B(H  31,C  28)                  1.0892         0.361185   
     34. B(C  32,N  27)                  1.4553         0.440322   
     35. B(H  33,C  32)                  1.0977         0.350104   
     36. B(H  34,C  32)                  1.0879         0.362950   
     37. B(H  35,C  32)                  1.0935         0.355488   
     38. B(C  36,N  27)                  1.4559         0.439197   
     39. B(H  37,C  36)                  1.0974         0.350499   
     40. B(H  38,C  36)                  1.0947         0.353914   
     41. B(H  39,C  36)                  1.0879         0.362862   
     42. B(O  40,C  25)                  1.2399         0.971162   
     43. B(O  41,C  26)                  1.2427         0.961448   
     44. A(C   1,C   0,C   2)          106.6959         0.426051   
     45. A(C   2,C   0,C  15)          127.9901         0.395391   
     46. A(C   1,C   0,C  15)          125.0938         0.409036   
     47. A(C   0,C   1,H   3)          128.9263         0.356724   
     48. A(H   3,C   1,N   4)          121.6265         0.348417   
     49. A(C   0,C   1,N   4)          109.4414         0.430137   
     50. A(C   5,C   2,C   6)          118.8230         0.420786   
     51. A(C   0,C   2,C   5)          107.2268         0.414048   
     52. A(C   0,C   2,C   6)          133.9262         0.418370   
     53. A(C   5,N   4,H   7)          125.2949         0.355150   
     54. A(C   1,N   4,H   7)          125.0967         0.354872   
     55. A(C   1,N   4,C   5)          109.6026         0.419899   
     56. A(N   4,C   5,C   8)          130.5114         0.424561   
     57. A(C   2,C   5,C   8)          122.4696         0.422624   
     58. A(C   2,C   5,N   4)          107.0160         0.418333   
     59. A(C   9,C   6,H  10)          120.3873         0.353982   
     60. A(C   2,C   6,C   9)          118.8904         0.430790   
     61. A(C   2,C   6,H  10)          120.7171         0.349647   
     62. A(C   5,C   8,C  12)          117.2477         0.432243   
     63. A(H  11,C   8,C  12)          121.1723         0.353848   
     64. A(C   5,C   8,H  11)          121.5786         0.351293   
     65. A(C  12,C   9,H  13)          119.0305         0.348949   
     66. A(C   6,C   9,H  13)          119.6896         0.354420   
     67. A(C   6,C   9,C  12)          121.2758         0.429312   
     68. A(C   9,C  12,H  14)          119.3813         0.349037   
     69. A(C   8,C  12,H  14)          119.3337         0.354170   
     70. A(C   8,C  12,C   9)          121.2838         0.428877   
     71. A(C   0,C  15,C  18)          110.9167         0.369580   
     72. A(H  16,C  15,H  17)          106.6673         0.289194   
     73. A(C   0,C  15,H  17)          109.5782         0.330637   
     74. A(C   0,C  15,H  16)          110.5771         0.330028   
     75. A(H  17,C  15,C  18)          108.8512         0.322045   
     76. A(H  16,C  15,C  18)          110.1411         0.321457   
     77. A(H  19,C  18,N  21)          106.8421         0.329137   
     78. A(C  15,C  18,N  21)          113.5995         0.367859   
     79. A(C  15,C  18,H  20)          110.3168         0.321940   
     80. A(C  15,C  18,H  19)          108.3424         0.322028   
     81. A(H  20,C  18,N  21)          110.3050         0.329047   
     82. A(H  19,C  18,H  20)          107.1546         0.289595   
     83. A(C  22,N  21,C  25)          119.2770         0.399088   
     84. A(C  18,N  21,C  25)          124.9307         0.398625   
     85. A(C  18,N  21,C  22)          115.7503         0.376796   
     86. A(H  24,C  22,C  26)          113.7359         0.325307   
     87. A(H  23,C  22,C  26)          105.4553         0.324227   
     88. A(N  21,C  22,C  26)          111.0710         0.371438   
     89. A(H  23,C  22,H  24)          109.0210         0.289840   
     90. A(N  21,C  22,H  24)          107.9351         0.330150   
     91. A(N  21,C  22,H  23)          109.5526         0.329047   
     92. A(N  21,C  25,C  28)          116.8541         0.395333   
     93. A(N  21,C  25,O  40)          122.0592         0.461473   
     94. A(C  28,C  25,O  40)          121.0818         0.431020   
     95. A(C  22,C  26,N  27)          118.0907         0.394950   
     96. A(N  27,C  26,O  41)          122.5413         0.463181   
     97. A(C  22,C  26,O  41)          119.3525         0.427489   
     98. A(C  26,N  27,C  32)          118.0288         0.402558   
     99. A(C  32,N  27,C  36)          115.4428         0.379534   
    100. A(C  26,N  27,C  36)          124.9219         0.402377   
    101. A(H  30,C  28,H  31)          109.5003         0.290511   
    102. A(H  29,C  28,H  31)          108.9827         0.290204   
    103. A(C  25,C  28,H  31)          107.2336         0.327437   
    104. A(H  29,C  28,H  30)          107.9693         0.289603   
    105. A(C  25,C  28,H  30)          112.3772         0.326726   
    106. A(C  25,C  28,H  29)          110.7333         0.326363   
    107. A(H  34,C  32,H  35)          110.1719         0.290611   
    108. A(H  33,C  32,H  35)          108.7616         0.288973   
    109. A(N  27,C  32,H  35)          109.0271         0.330524   
    110. A(H  33,C  32,H  34)          109.2058         0.289916   
    111. A(N  27,C  32,H  34)          108.6848         0.331662   
    112. A(N  27,C  32,H  33)          110.9848         0.329691   
    113. A(H  38,C  36,H  39)          108.8193         0.290397   
    114. A(H  37,C  36,H  39)          108.4868         0.289956   
    115. A(N  27,C  36,H  39)          111.9353         0.331508   
    116. A(H  37,C  36,H  38)          108.2715         0.288823   
    117. A(N  27,C  36,H  38)          108.9380         0.330142   
    118. A(N  27,C  36,H  37)          110.3097         0.329613   
    119. D(N   4,C   1,C   0,C   2)     -1.0273         0.029234   
    120. D(H   3,C   1,C   0,C  15)      3.1266         0.029234   
    121. D(N   4,C   1,C   0,C  15)   -175.9924         0.029234   
    122. D(H   3,C   1,C   0,C   2)    178.0917         0.029234   
    123. D(C   6,C   2,C   0,C   1)    179.4678         0.019518   
    124. D(C   5,C   2,C   0,C  15)    176.1160         0.019518   
    125. D(C   6,C   2,C   0,C  15)     -5.7600         0.019518   
    126. D(C   5,C   2,C   0,C   1)      1.3438         0.019518   
    127. D(H   7,N   4,C   1,H   3)      1.9506         0.027461   
    128. D(C   5,N   4,C   1,C   0)      0.3074         0.027461   
    129. D(C   5,N   4,C   1,H   3)   -178.8877         0.027461   
    130. D(H   7,N   4,C   1,C   0)   -178.8543         0.027461   
    131. D(C   8,C   5,C   2,C   0)    179.4131         0.020862   
    132. D(N   4,C   5,C   2,C   0)     -1.1649         0.020862   
    133. D(N   4,C   5,C   2,C   6)   -179.6228         0.020862   
    134. D(C   8,C   5,N   4,H   7)     -0.9309         0.027734   
    135. D(C   2,C   5,N   4,H   7)    179.7104         0.027734   
    136. D(C   8,C   5,N   4,C   1)    179.9094         0.027734   
    137. D(C   2,C   5,N   4,C   1)      0.5507         0.027734   
    138. D(C   8,C   5,C   2,C   6)      0.9552         0.020862   
    139. D(H  10,C   6,C   2,C   0)      1.8013         0.023560   
    140. D(H  10,C   6,C   2,C   5)    179.7560         0.023560   
    141. D(C   9,C   6,C   2,C   5)     -1.0712         0.023560   
    142. D(C   9,C   6,C   2,C   0)   -179.0259         0.023560   
    143. D(C  12,C   8,C   5,N   4)   -179.8702         0.024801   
    144. D(H  11,C   8,C   5,N   4)      0.5549         0.024801   
    145. D(H  11,C   8,C   5,C   2)    179.8280         0.024801   
    146. D(C  12,C   8,C   5,C   2)     -0.5971         0.024801   
    147. D(H  13,C   9,C   6,C   2)   -179.8599         0.027482   
    148. D(C  12,C   9,C   6,H  10)   -179.9325         0.027482   
    149. D(C  12,C   9,C   6,C   2)      0.8918         0.027482   
    150. D(H  13,C   9,C   6,H  10)     -0.6843         0.027482   
    151. D(H  14,C  12,C   9,H  13)      0.5831         0.022636   
    152. D(C   8,C  12,C   9,H  13)   -179.8034         0.022636   
    153. D(C   8,C  12,C   9,C   6)     -0.5503         0.022636   
    154. D(H  14,C  12,C   8,H  11)     -0.4287         0.027154   
    155. D(H  14,C  12,C   8,C   5)    179.9946         0.027154   
    156. D(H  14,C  12,C   9,C   6)    179.8362         0.022636   
    157. D(C   9,C  12,C   8,H  11)    179.9577         0.027154   
    158. D(C   9,C  12,C   8,C   5)      0.3809         0.027154   
    159. D(C  18,C  15,C   0,C   2)    -89.2322         0.013363   
    160. D(C  18,C  15,C   0,C   1)     84.6448         0.013363   
    161. D(H  17,C  15,C   0,C   2)    150.5651         0.013363   
    162. D(H  17,C  15,C   0,C   1)    -35.5579         0.013363   
    163. D(H  16,C  15,C   0,C   2)     33.2632         0.013363   
    164. D(H  16,C  15,C   0,C   1)   -152.8598         0.013363   
    165. D(N  21,C  18,C  15,H  16)     74.0839         0.010527   
    166. D(N  21,C  18,C  15,C   0)   -163.1679         0.010527   
    167. D(H  20,C  18,C  15,H  17)   -166.9750         0.010527   
    168. D(H  20,C  18,C  15,H  16)    -50.3575         0.010527   
    169. D(H  20,C  18,C  15,C   0)     72.3907         0.010527   
    170. D(H  19,C  18,C  15,H  17)     76.0177         0.010527   
    171. D(H  19,C  18,C  15,H  16)   -167.3648         0.010527   
    172. D(N  21,C  18,C  15,H  17)    -42.5336         0.010527   
    173. D(H  19,C  18,C  15,C   0)    -44.6167         0.010527   
    174. D(C  25,N  21,C  18,H  20)     36.0640         0.015708   
    175. D(C  25,N  21,C  18,H  19)    152.2060         0.015708   
    176. D(C  25,N  21,C  18,C  15)    -88.3838         0.015708   
    177. D(C  22,N  21,C  18,H  20)   -141.5501         0.015708   
    178. D(C  22,N  21,C  18,H  19)    -25.4080         0.015708   
    179. D(C  22,N  21,C  18,C  15)     94.0021         0.015708   
    180. D(H  23,C  22,N  21,C  25)   -117.6610         0.015917   
    181. D(H  23,C  22,N  21,C  18)     60.0965         0.015917   
    182. D(C  26,C  22,N  21,C  25)    126.2420         0.015917   
    183. D(C  26,C  22,N  21,C  18)    -56.0005         0.015917   
    184. D(H  24,C  22,N  21,C  25)      0.9249         0.015917   
    185. D(H  24,C  22,N  21,C  18)    178.6824         0.015917   
    186. D(O  40,C  25,N  21,C  22)     -4.7139         0.028680   
    187. D(O  40,C  25,N  21,C  18)    177.7498         0.028680   
    188. D(C  28,C  25,N  21,C  22)    174.4862         0.028680   
    189. D(C  28,C  25,N  21,C  18)     -3.0501         0.028680   
    190. D(O  41,C  26,C  22,H  24)   -138.9736         0.010822   
    191. D(O  41,C  26,C  22,H  23)    -19.5697         0.010822   
    192. D(O  41,C  26,C  22,N  21)     99.0265         0.010822   
    193. D(N  27,C  26,C  22,H  24)     42.4187         0.010822   
    194. D(N  27,C  26,C  22,H  23)    161.8226         0.010822   
    195. D(N  27,C  26,C  22,N  21)    -79.5812         0.010822   
    196. D(C  36,N  27,C  26,O  41)   -168.1451         0.030607   
    197. D(C  36,N  27,C  26,C  22)     10.4153         0.030607   
    198. D(C  32,N  27,C  26,O  41)     -3.2926         0.030607   
    199. D(C  32,N  27,C  26,C  22)    175.2678         0.030607   
    200. D(H  31,C  28,C  25,O  40)     -7.3768         0.011579   
    201. D(H  31,C  28,C  25,N  21)    173.4147         0.011579   
    202. D(H  30,C  28,C  25,O  40)   -127.7529         0.011579   
    203. D(H  30,C  28,C  25,N  21)     53.0387         0.011579   
    204. D(H  29,C  28,C  25,O  40)    111.4115         0.011579   
    205. D(H  29,C  28,C  25,N  21)    -67.7969         0.011579   
    206. D(H  35,C  32,N  27,C  36)    -50.1209         0.016533   
    207. D(H  35,C  32,N  27,C  26)    143.6042         0.016533   
    208. D(H  34,C  32,N  27,C  36)   -170.2326         0.016533   
    209. D(H  34,C  32,N  27,C  26)     23.4925         0.016533   
    210. D(H  33,C  32,N  27,C  36)     69.6583         0.016533   
    211. D(H  33,C  32,N  27,C  26)    -96.6165         0.016533   
    212. D(H  39,C  36,N  27,C  32)    176.8305         0.016448   
    213. D(H  39,C  36,N  27,C  26)    -17.9686         0.016448   
    214. D(H  38,C  36,N  27,C  32)     56.4434         0.016448   
    215. D(H  38,C  36,N  27,C  26)   -138.3557         0.016448   
    216. D(H  37,C  36,N  27,C  32)    -62.2697         0.016448   
    217. D(H  37,C  36,N  27,C  26)    102.9313         0.016448   
    -----------------------------------------------------------------

Number of atoms                         .... 42
Number of degrees of freedom            .... 217

         *************************************************************
         *                GEOMETRY OPTIMIZATION CYCLE   1            *
         *************************************************************
---------------------------------
CARTESIAN COORDINATES (ANGSTROEM)
---------------------------------
  C     -1.391000   -0.487000    0.168000
  C     -1.574000   -1.759000   -0.335000
  C     -2.689000    0.113000    0.252000
  H     -0.830000   -2.513000   -0.569000
  N     -2.918000   -1.981000   -0.543000
  C     -3.632000   -0.859000   -0.187000
  C     -3.159000    1.367000    0.686000
  H     -3.318000   -2.842000   -0.891000
  C     -5.010000   -0.608000   -0.222000
  C     -4.523000    1.621000    0.650000
  H     -2.465000    2.132000    1.032000
  H     -5.718000   -1.361000   -0.563000
  C     -5.440000    0.642000    0.206000
  H     -4.900000    2.586000    0.980000
  H     -6.502000    0.873000    0.193000
  C     -0.065000    0.147000    0.440000
  H     -0.152000    0.896000    1.236000
  H      0.637000   -0.611000    0.798000
  C      0.507000    0.792000   -0.834000
  H      0.372000    0.093000   -1.664000
  H     -0.050000    1.700000   -1.083000
  N      1.938000    1.081000   -0.752000
  C      2.825000    0.050000   -1.284000
  H      2.607000   -0.109000   -2.346000
  H      3.851000    0.404000   -1.181000
  C      2.478000    2.245000   -0.265000
  C      2.569000   -1.294000   -0.611000
  N      3.108000   -1.507000    0.624000
  C      1.505000    3.328000    0.154000
  H      0.980000    3.735000   -0.716000
  H      0.755000    2.963000    0.860000
  H      2.087000    4.122000    0.620000
  C      2.777000   -2.747000    1.310000
  H      1.950000   -2.597000    2.016000
  H      2.485000   -3.488000    0.569000
  H      3.654000   -3.093000    1.864000
  C      3.730000   -0.482000    1.450000
  H      3.047000   -0.172000    2.251000
  H      4.633000   -0.896000    1.910000
  H      4.003000    0.397000    0.870000
  O      3.703000    2.418000   -0.182000
  O      1.863000   -2.139000   -1.187000

----------------------------
CARTESIAN COORDINATES (A.U.)
----------------------------
  NO LB      ZA    FRAG     MASS         X           Y           Z
   0 C     6.0000    0    12.011   -2.628609   -0.920297    0.317474
   1 C     6.0000    0    12.011   -2.974429   -3.324028   -0.633058
   2 C     6.0000    0    12.011   -5.081474    0.213539    0.476211
   3 H     1.0000    0     1.008   -1.568473   -4.748882   -1.075254
   4 N     7.0000    0    14.007   -5.514221   -3.743547   -1.026121
   5 C     6.0000    0    12.011   -6.863485   -1.623275   -0.353379
   6 C     6.0000    0    12.011   -5.969645    2.583256    1.296352
   7 H     1.0000    0     1.008   -6.270111   -5.370602   -1.683746
   8 C     6.0000    0    12.011   -9.467528   -1.148953   -0.419519
   9 C     6.0000    0    12.011   -8.547231    3.063246    1.228322
  10 H     1.0000    0     1.008   -4.658175    4.028896    1.950197
  11 H     1.0000    0     1.008  -10.805454   -2.571917   -1.063916
  12 C     6.0000    0    12.011  -10.280110    1.213204    0.389284
  13 H     1.0000    0     1.008   -9.259658    4.886832    1.851932
  14 H     1.0000    0     1.008  -12.286999    1.649731    0.364717
  15 C     6.0000    0    12.011   -0.122832    0.277790    0.831479
  16 H     1.0000    0     1.008   -0.287238    1.693195    2.335702
  17 H     1.0000    0     1.008    1.203756   -1.154623    1.508001
  18 C     6.0000    0    12.011    0.958091    1.496663   -1.576032
  19 H     1.0000    0     1.008    0.702978    0.175745   -3.144504
  20 H     1.0000    0     1.008   -0.094486    3.212534   -2.046573
  21 N     7.0000    0    14.007    3.662289    2.042794   -1.421074
  22 C     6.0000    0    12.011    5.338476    0.094486   -2.426408
  23 H     1.0000    0     1.008    4.926516   -0.205980   -4.433298
  24 H     1.0000    0     1.008    7.277335    0.763449   -2.231767
  25 C     6.0000    0    12.011    4.682741    4.242435   -0.500777
  26 C     6.0000    0    12.011    4.854706   -2.445306   -1.154623
  27 N     7.0000    0    14.007    5.873269   -2.847817    1.179189
  28 C     6.0000    0    12.011    2.844038    6.289009    0.291018
  29 H     1.0000    0     1.008    1.851932    7.058127   -1.353044
  30 H     1.0000    0     1.008    1.426743    5.599259    1.625164
  31 H     1.0000    0     1.008    3.943858    7.789451    1.171630
  32 C     6.0000    0    12.011    5.247769   -5.191078    2.475541
  33 H     1.0000    0     1.008    3.684966   -4.907619    3.809688
  34 H     1.0000    0     1.008    4.695969   -6.591365    1.075254
  35 H     1.0000    0     1.008    6.905059   -5.844923    3.522450
  36 C     6.0000    0    12.011    7.048678   -0.910848    2.740103
  37 H     1.0000    0     1.008    5.757996   -0.325033    4.253774
  38 H     1.0000    0     1.008    8.755101   -1.693195    3.609377
  39 H     1.0000    0     1.008    7.564574    0.750221    1.644062
  40 O     8.0000    0    15.999    6.997656    4.569358   -0.343930
  41 O     8.0000    0    15.999    3.520560   -4.042124   -2.243105

--------------------------------
INTERNAL COORDINATES (ANGSTROEM)
--------------------------------
 C      0   0   0     0.000000000000     0.00000000     0.00000000
 C      1   0   0     1.380029709825     0.00000000     0.00000000
 C      1   2   0     1.432431499235   106.69589345     0.00000000
 H      2   1   3     1.084807817081   128.92632557   178.09168946
 N      2   1   3     1.378000000000   109.44138716   358.97269835
 C      5   2   1     1.376741079506   109.60263909     0.30742616
 C      3   1   2     1.407754239915   133.92615865   179.46776291
 H      5   2   1     1.011150335015   125.09666852   181.14565464
 C      6   5   2     1.401110274033   130.51135818   179.90936318
 C      7   3   1     1.387914982987   118.89042058   180.97410611
 H      7   3   1     1.089301152115   120.71706183     1.80126918
 H      9   6   5     1.088372178990   121.57858376     0.55488301
 C      9   6   5     1.389454569247   117.24770399   180.12980705
 H     10   7   3     1.087315041743   119.68955014   180.14010660
 H     13   9   6     1.086910299887   119.33370030   179.99458379
 C      1   2   3     1.494729406950   125.09381616   185.03493042
 H     16   1   2     1.096442428949   110.57714796   207.14018700
 H     16   1   2     1.093403859514   109.57816109   324.44205188
 C     16   1   2     1.538273382725   110.91668378    84.64481852
 H     19  16   1     1.093492569705   108.34238519   315.38333789
 H     19  16   1     1.093944239895   110.31683764    72.39068729
 N     19  16   1     1.462192189830   113.59953876   196.83207737
 C     22  19  16     1.460395152005   115.75026774    94.00212718
 H     23  22  19     1.095741301585   109.55258418    60.09654824
 H     23  22  19     1.090229792292   107.93514077   178.68236924
 C     22  19  16     1.372466757339   124.93070388   271.61616886
 C     23  22  19     1.524729812131   111.07099435   303.99948733
 N     27  23  22     1.364226887288   118.09068978   280.41883111
 C     26  22  19     1.514984818406   116.85405478   356.94992398
 H     29  26  22     1.094611346552   110.73330962   292.20306502
 H     29  26  22     1.092776738405   112.37723082    53.03866123
 H     29  26  22     1.089181343946   107.23359461   173.41474394
 C     28  27  23     1.455251524651   118.02884188   175.26780171
 H     33  28  27     1.097663427468   110.98480557   263.38345847
 H     33  28  27     1.087853850478   108.68484165    23.49247966
 H     33  28  27     1.093508573355   109.02706243   143.60421382
 C     28  27  23     1.455948144681   124.92187693    10.41531812
 H     37  28  27     1.097355913093   110.30968300   102.93128067
 H     37  28  27     1.094716858370   108.93799733   221.64432573
 H     37  28  27     1.087920033826   111.93528976   342.03144125
 O     26  22  19     1.239936691932   122.05922482   177.74983510
 O     27  23  22     1.242673327951   119.35254575    99.02653855

---------------------------
INTERNAL COORDINATES (A.U.)
---------------------------
 C      0   0   0     0.000000000000     0.00000000     0.00000000
 C      1   0   0     2.607878208244     0.00000000     0.00000000
 C      1   2   0     2.706903239156   106.69589345     0.00000000
 H      2   1   3     2.049989682220   128.92632557   178.09168946
 N      2   1   3     2.604042612543   109.44138716   358.97269835
 C      5   2   1     2.601663597586   109.60263909     0.30742616
 C      3   1   2     2.660269977307   133.92615865   179.46776291
 H      5   2   1     1.910797213400   125.09666852   181.14565464
 C      6   5   2     2.647714701345   130.51135818   179.90936318
 C      7   3   1     2.622779215012   118.89042058   180.97410611
 H      7   3   1     2.058480854863   120.71706183     1.80126918
 H      9   6   5     2.056725350071   121.57858376     0.55488301
 C      9   6   5     2.625688611401   117.24770399   180.12980705
 H     10   7   3     2.054727650187   119.68955014   180.14010660
 H     13   9   6     2.053962798924   119.33370030   179.99458379
 C      1   2   3     2.824629223453   125.09381616   185.03493042
 H     16   1   2     2.071975912325   110.57714796   207.14018700
 H     16   1   2     2.066233848254   109.57816109   324.44205188
 C     16   1   2     2.906915412451   110.91668378    84.64481852
 H     19  16   1     2.066401486220   108.34238519   315.38333789
 H     19  16   1     2.067255019183   110.31683764    72.39068729
 N     19  16   1     2.763142793937   113.59953876   196.83207737
 C     22  19  16     2.759746884596   115.75026774    94.00212718
 H     23  22  19     2.070650973623   109.55258418    60.09654824
 H     23  22  19     2.060235730473   107.93514077   178.68236924
 C     22  19  16     2.593586299281   124.93070388   271.61616886
 C     23  22  19     2.881321773152   111.07099435   303.99948733
 N     27  23  22     2.578015201507   118.09068978   280.41883111
 C     26  22  19     2.862906403835   116.85405478   356.94992398
 H     29  26  22     2.068515668066   110.73330962   292.20306502
 H     29  26  22     2.065048761106   112.37723082    53.03866123
 H     29  26  22     2.058254450234   107.23359461   173.41474394
 C     28  27  23     2.750026837562   118.02884188   175.26780171
 H     33  28  27     2.074283265135   110.98480557   263.38345847
 H     33  28  27     2.055745851135   108.68484165    23.49247966
 H     33  28  27     2.066431728735   109.02706243   143.60421382
 C     28  27  23     2.751343258638   124.92187693    10.41531812
 H     37  28  27     2.073702147185   110.30968300   102.93128067
 H     37  28  27     2.068715056506   108.93799733   221.64432573
 H     37  28  27     2.055870919538   111.93528976   342.03144125
 O     26  22  19     2.343140771152   122.05922482   177.74983510
 O     27  23  22     2.348312263755   119.35254575    99.02653855

---------------------
BASIS SET INFORMATION
---------------------
There are 4 groups of distinct atoms

 Group   1 Type C   : 10s4p1d contracted to 3s2p1d pattern {631/31/1}
 Group   2 Type H   : 4s contracted to 2s pattern {31}
 Group   3 Type N   : 10s4p1d contracted to 3s2p1d pattern {631/31/1}
 Group   4 Type O   : 10s4p1d contracted to 3s2p1d pattern {631/31/1}

Atom   0C    basis set group =>   1
Atom   1C    basis set group =>   1
Atom   2C    basis set group =>   1
Atom   3H    basis set group =>   2
Atom   4N    basis set group =>   3
Atom   5C    basis set group =>   1
Atom   6C    basis set group =>   1
Atom   7H    basis set group =>   2
Atom   8C    basis set group =>   1
Atom   9C    basis set group =>   1
Atom  10H    basis set group =>   2
Atom  11H    basis set group =>   2
Atom  12C    basis set group =>   1
Atom  13H    basis set group =>   2
Atom  14H    basis set group =>   2
Atom  15C    basis set group =>   1
Atom  16H    basis set group =>   2
Atom  17H    basis set group =>   2
Atom  18C    basis set group =>   1
Atom  19H    basis set group =>   2
Atom  20H    basis set group =>   2
Atom  21N    basis set group =>   3
Atom  22C    basis set group =>   1
Atom  23H    basis set group =>   2
Atom  24H    basis set group =>   2
Atom  25C    basis set group =>   1
Atom  26C    basis set group =>   1
Atom  27N    basis set group =>   3
Atom  28C    basis set group =>   1
Atom  29H    basis set group =>   2
Atom  30H    basis set group =>   2
Atom  31H    basis set group =>   2
Atom  32C    basis set group =>   1
Atom  33H    basis set group =>   2
Atom  34H    basis set group =>   2
Atom  35H    basis set group =>   2
Atom  36C    basis set group =>   1
Atom  37H    basis set group =>   2
Atom  38H    basis set group =>   2
Atom  39H    basis set group =>   2
Atom  40O    basis set group =>   4
Atom  41O    basis set group =>   4
---------------------------------
AUXILIARY/J BASIS SET INFORMATION
---------------------------------
There are 4 groups of distinct atoms

 Group   1 Type C   : 13s11p10d2f contracted to 13s11p10d2f pattern {1111111111111/11111111111/1111111111/11}
 Group   2 Type H   : 9s2p contracted to 9s2p pattern {111111111/11}
 Group   3 Type N   : 14s11p10d2f contracted to 14s11p10d2f pattern {11111111111111/11111111111/1111111111/11}
 Group   4 Type O   : 14s11p10d2f contracted to 14s11p10d2f pattern {11111111111111/11111111111/1111111111/11}

Atom   0C    basis set group =>   1
Atom   1C    basis set group =>   1
Atom   2C    basis set group =>   1
Atom   3H    basis set group =>   2
Atom   4N    basis set group =>   3
Atom   5C    basis set group =>   1
Atom   6C    basis set group =>   1
Atom   7H    basis set group =>   2
Atom   8C    basis set group =>   1
Atom   9C    basis set group =>   1
Atom  10H    basis set group =>   2
Atom  11H    basis set group =>   2
Atom  12C    basis set group =>   1
Atom  13H    basis set group =>   2
Atom  14H    basis set group =>   2
Atom  15C    basis set group =>   1
Atom  16H    basis set group =>   2
Atom  17H    basis set group =>   2
Atom  18C    basis set group =>   1
Atom  19H    basis set group =>   2
Atom  20H    basis set group =>   2
Atom  21N    basis set group =>   3
Atom  22C    basis set group =>   1
Atom  23H    basis set group =>   2
Atom  24H    basis set group =>   2
Atom  25C    basis set group =>   1
Atom  26C    basis set group =>   1
Atom  27N    basis set group =>   3
Atom  28C    basis set group =>   1
Atom  29H    basis set group =>   2
Atom  30H    basis set group =>   2
Atom  31H    basis set group =>   2
Atom  32C    basis set group =>   1
Atom  33H    basis set group =>   2
Atom  34H    basis set group =>   2
Atom  35H    basis set group =>   2
Atom  36C    basis set group =>   1
Atom  37H    basis set group =>   2
Atom  38H    basis set group =>   2
Atom  39H    basis set group =>   2
Atom  40O    basis set group =>   4
Atom  41O    basis set group =>   4
---------------------------------
AUXILIARY/C BASIS SET INFORMATION
---------------------------------
There are 4 groups of distinct atoms

 Group   1 Type C   : 13s11p10d2f contracted to 13s11p10d2f pattern {1111111111111/11111111111/1111111111/11}
 Group   2 Type H   : 9s2p contracted to 9s2p pattern {111111111/11}
 Group   3 Type N   : 14s11p10d2f contracted to 14s11p10d2f pattern {11111111111111/11111111111/1111111111/11}
 Group   4 Type O   : 14s11p10d2f contracted to 14s11p10d2f pattern {11111111111111/11111111111/1111111111/11}

Atom   0C    basis set group =>   1
Atom   1C    basis set group =>   1
Atom   2C    basis set group =>   1
Atom   3H    basis set group =>   2
Atom   4N    basis set group =>   3
Atom   5C    basis set group =>   1
Atom   6C    basis set group =>   1
Atom   7H    basis set group =>   2
Atom   8C    basis set group =>   1
Atom   9C    basis set group =>   1
Atom  10H    basis set group =>   2
Atom  11H    basis set group =>   2
Atom  12C    basis set group =>   1
Atom  13H    basis set group =>   2
Atom  14H    basis set group =>   2
Atom  15C    basis set group =>   1
Atom  16H    basis set group =>   2
Atom  17H    basis set group =>   2
Atom  18C    basis set group =>   1
Atom  19H    basis set group =>   2
Atom  20H    basis set group =>   2
Atom  21N    basis set group =>   3
Atom  22C    basis set group =>   1
Atom  23H    basis set group =>   2
Atom  24H    basis set group =>   2
Atom  25C    basis set group =>   1
Atom  26C    basis set group =>   1
Atom  27N    basis set group =>   3
Atom  28C    basis set group =>   1
Atom  29H    basis set group =>   2
Atom  30H    basis set group =>   2
Atom  31H    basis set group =>   2
Atom  32C    basis set group =>   1
Atom  33H    basis set group =>   2
Atom  34H    basis set group =>   2
Atom  35H    basis set group =>   2
Atom  36C    basis set group =>   1
Atom  37H    basis set group =>   2
Atom  38H    basis set group =>   2
Atom  39H    basis set group =>   2
Atom  40O    basis set group =>   4
Atom  41O    basis set group =>   4
----------------------------------
AUXILIARY/JK BASIS SET INFORMATION
----------------------------------
There are 4 groups of distinct atoms

 Group   1 Type C   : 13s11p10d2f contracted to 13s11p10d2f pattern {1111111111111/11111111111/1111111111/11}
 Group   2 Type H   : 9s2p contracted to 9s2p pattern {111111111/11}
 Group   3 Type N   : 14s11p10d2f contracted to 14s11p10d2f pattern {11111111111111/11111111111/1111111111/11}
 Group   4 Type O   : 14s11p10d2f contracted to 14s11p10d2f pattern {11111111111111/11111111111/1111111111/11}

Atom   0C    basis set group =>   1
Atom   1C    basis set group =>   1
Atom   2C    basis set group =>   1
Atom   3H    basis set group =>   2
Atom   4N    basis set group =>   3
Atom   5C    basis set group =>   1
Atom   6C    basis set group =>   1
Atom   7H    basis set group =>   2
Atom   8C    basis set group =>   1
Atom   9C    basis set group =>   1
Atom  10H    basis set group =>   2
Atom  11H    basis set group =>   2
Atom  12C    basis set group =>   1
Atom  13H    basis set group =>   2
Atom  14H    basis set group =>   2
Atom  15C    basis set group =>   1
Atom  16H    basis set group =>   2
Atom  17H    basis set group =>   2
Atom  18C    basis set group =>   1
Atom  19H    basis set group =>   2
Atom  20H    basis set group =>   2
Atom  21N    basis set group =>   3
Atom  22C    basis set group =>   1
Atom  23H    basis set group =>   2
Atom  24H    basis set group =>   2
Atom  25C    basis set group =>   1
Atom  26C    basis set group =>   1
Atom  27N    basis set group =>   3
Atom  28C    basis set group =>   1
Atom  29H    basis set group =>   2
Atom  30H    basis set group =>   2
Atom  31H    basis set group =>   2
Atom  32C    basis set group =>   1
Atom  33H    basis set group =>   2
Atom  34H    basis set group =>   2
Atom  35H    basis set group =>   2
Atom  36C    basis set group =>   1
Atom  37H    basis set group =>   2
Atom  38H    basis set group =>   2
Atom  39H    basis set group =>   2
Atom  40O    basis set group =>   4
Atom  41O    basis set group =>   4


           ************************************************************
           *        Program running with 4 parallel MPI-processes     *
           *              working on a common directory               *
           ************************************************************
------------------------------------------------------------------------------
                           ORCA GTO INTEGRAL CALCULATION
                           -- RI-GTO INTEGRALS CHOSEN --
------------------------------------------------------------------------------
------------------------------------------------------------------------------
                   ___                                                        
                  /   \      - P O W E R E D   B Y -                         
                 /     \                                                     
                 |  |  |   _    _      __       _____    __    __             
                 |  |  |  | |  | |    /  \     |  _  \  |  |  /  |          
                  \  \/   | |  | |   /    \    | | | |  |  | /  /          
                 / \  \   | |__| |  /  /\  \   | |_| |  |  |/  /          
                |  |  |   |  __  | /  /__\  \  |    /   |      \           
                |  |  |   | |  | | |   __   |  |    \   |  |\   \          
                \     /   | |  | | |  |  |  |  | |\  \  |  | \   \       
                 \___/    |_|  |_| |__|  |__|  |_| \__\ |__|  \__/        
                                                                              
                      - O R C A' S   B I G   F R I E N D -                    
                                      &                                       
                       - I N T E G R A L  F E E D E R -                       
                                                                              
 v1 FN, 2020, v2 2021                                                         
------------------------------------------------------------------------------


Reading SHARK input file Nwe_water.SHARKINP.tmp ... ok
----------------------
SHARK INTEGRAL PACKAGE
----------------------

Number of atoms                             ...     42
Number of basis functions                   ...    336
Number of shells                            ...    168
Maximum angular momentum                    ...      2
Integral batch strategy                     ... SHARK/LIBINT Hybrid
RI-J (if used) integral strategy            ... SPLIT-RIJ (Revised 2003 algorithm where possible)
Printlevel                                  ...      1
Contraction scheme used                     ... SEGMENTED contraction
Coulomb Range Separation                    ... NOT USED
Exchange Range Separation                   ... NOT USED
Finite Nucleus Model                        ... NOT USED
Auxiliary Coulomb fitting basis             ... AVAILABLE
   # of basis functions in Aux-J            ...   2630
   # of shells in Aux-J                     ...    992
   Maximum angular momentum in Aux-J        ...      3
Auxiliary J/K fitting basis                 ... AVAILABLE
   # of basis functions in Aux-JK           ...   2630
   # of shells in Aux-JK                    ...    992
   Maximum angular momentum in Aux-JK       ...      3
Auxiliary Correlation fitting basis         ... AVAILABLE
   # of basis functions in Aux-C            ...   2630
   # of shells in Aux-C                     ...    992
   Maximum angular momentum in Aux-C        ...      3
Auxiliary 'external' fitting basis          ... NOT available
Integral threshold                          ...     2.500000e-11
Primitive cut-off                           ...     2.500000e-12
Primitive pair pre-selection threshold      ...     2.500000e-12

Calculating pre-screening integrals         ... done (  0.1 sec) Dimension = 168
Organizing shell pair data                  ... done (  0.6 sec)
Shell pair information
Total number of shell pairs                 ...     14196
Shell pairs after pre-screening             ...     10443
Total number of primitive shell pairs       ...     80304
Primitive shell pairs kept                  ...     32667
          la=0 lb=0:   3921 shell pairs
          la=1 lb=0:   3489 shell pairs
          la=1 lb=1:    783 shell pairs
          la=2 lb=0:   1440 shell pairs
          la=2 lb=1:    666 shell pairs
          la=2 lb=2:    144 shell pairs

Calculating one electron integrals          ... done (  0.0 sec)
Calculating RI/J V-Matrix + Cholesky decomp.... done (  3.6 sec)
Calculating RI/JK V-Matrix + Cholesky decomp... done (  3.5 sec)
Calculating RI/C V-Matrix + Cholesky decomp.... done (  2.5 sec)
Calculating Nuclear repulsion               ... done (  0.0 sec) ENN=   1691.071669761196 Eh

SHARK setup successfully completed in  10.4 seconds

Maximum memory used throughout the entire GTOINT-calculation: 56.4 MB


           ************************************************************
           *        Program running with 4 parallel MPI-processes     *
           *              working on a common directory               *
           ************************************************************
-------------------------------------------------------------------------------
                                 ORCA SCF
-------------------------------------------------------------------------------

------------
SCF SETTINGS
------------
Hamiltonian:
 Density Functional     Method          .... DFT(GTOs)
 Exchange Functional    Exchange        .... B88
   X-Alpha parameter    XAlpha          ....  0.666667
   Becke's b parameter  XBeta           ....  0.004200
 Correlation Functional Correlation     .... LYP
 LDA part of GGA corr.  LDAOpt          .... VWN-5
 Gradients option       PostSCFGGA      .... off
 Hybrid DFT is turned on
   Fraction HF Exchange ScalHFX         ....  0.200000
   Scaling of DF-GGA-X  ScalDFX         ....  0.720000
   Scaling of DF-GGA-C  ScalDFC         ....  0.810000
   Scaling of DF-LDA-C  ScalLDAC        ....  1.000000
   Perturbative correction              ....  0.000000
   Density functional embedding theory  .... OFF
   NL short-range parameter             ....  4.800000
 RI-approximation to the Coulomb term is turned on
   Number of AuxJ basis functions       .... 2630
   RIJ-COSX (HFX calculated with COS-X)).... on


General Settings:
 Integral files         IntName         .... Nwe_water
 Hartree-Fock type      HFTyp           .... RHF
 Total Charge           Charge          ....    0
 Multiplicity           Mult            ....    1
 Number of Electrons    NEL             ....  154
 Basis Dimension        Dim             ....  336
 Nuclear Repulsion      ENuc            ....   1691.0716697612 Eh

Convergence Acceleration:
 DIIS                   CNVDIIS         .... on
   Start iteration      DIISMaxIt       ....    12
   Startup error        DIISStart       ....  0.200000
   # of expansion vecs  DIISMaxEq       ....     5
   Bias factor          DIISBfac        ....   1.050
   Max. coefficient     DIISMaxC        ....  10.000
 Trust-Rad. Augm. Hess. CNVTRAH         .... auto
   Auto Start mean grad. ratio tolernc. ....  1.125000
   Auto Start start iteration           ....    20
   Auto Start num. interpolation iter.  ....    10
   Max. Number of Micro iterations      ....    16
   Max. Number of Macro iterations      .... Maxiter - #DIIS iter
   Number of Davidson start vectors     ....     2
   Converg. threshold I  (grad. norm)   ....   1.000e-05
   Converg. threshold II (energy diff.) ....   1.000e-08
   Grad. Scal. Fac. for Micro threshold ....   0.100
   Minimum threshold for Micro iter.    ....   0.010
   NR start threshold (gradient norm)   ....   0.001
   Initial trust radius                 ....   0.400
   Minimum AH scaling param. (alpha)    ....   1.000
   Maximum AH scaling param. (alpha)    .... 1000.000
   Orbital update algorithm             .... Taylor
   White noise on init. David. guess    .... on
   Maximum white noise                  ....   0.010
   Quad. conv. algorithm                .... NR
 SOSCF                  CNVSOSCF        .... on
   Start iteration      SOSCFMaxIt      ....   150
   Startup grad/error   SOSCFStart      ....  0.003300
 Level Shifting         CNVShift        .... on
   Level shift para.    LevelShift      ....    0.2500
   Turn off err/grad.   ShiftErr        ....    0.0010
 Zerner damping         CNVZerner       .... off
 Static damping         CNVDamp         .... on
   Fraction old density DampFac         ....    0.7000
   Max. Damping (<1)    DampMax         ....    0.9800
   Min. Damping (>=0)   DampMin         ....    0.0000
   Turn off err/grad.   DampErr         ....    0.1000
 Fernandez-Rico         CNVRico         .... off

SCF Procedure:
 Maximum # iterations   MaxIter         ....   125
 SCF integral mode      SCFMode         .... Direct
   Integral package                     .... SHARK and LIBINT hybrid scheme
 Reset frequency        DirectResetFreq ....    20
 Integral Threshold     Thresh          ....  2.500e-11 Eh
 Primitive CutOff       TCut            ....  2.500e-12 Eh

Convergence Tolerance:
 Convergence Check Mode ConvCheckMode   .... Total+1el-Energy
 Convergence forced     ConvForced      .... 0
 Energy Change          TolE            ....  1.000e-08 Eh
 1-El. energy change                    ....  1.000e-05 Eh
 Orbital Gradient       TolG            ....  1.000e-05
 Orbital Rotation angle TolX            ....  1.000e-05
 DIIS Error             TolErr          ....  5.000e-07


Diagonalization of the overlap matrix:
Smallest eigenvalue                        ... 3.861e-04
Time for diagonalization                   ...    0.018 sec
Threshold for overlap eigenvalues          ... 1.000e-08
Number of eigenvalues below threshold      ... 0
Time for construction of square roots      ...    0.019 sec
Total time needed                          ...    0.115 sec

Time for model grid setup =    0.444 sec

------------------------------
INITIAL GUESS: MODEL POTENTIAL
------------------------------
Loading Hartree-Fock densities                     ... done
Calculating cut-offs                               ... done
Initializing the effective Hamiltonian             ... done
Setting up the integral package (SHARK)            ... done
Starting the Coulomb interaction                   ... done (   0.4 sec)
Reading the grid                                   ... done
Mapping shells                                     ... done
Starting the XC term evaluation                    ... done (   0.3 sec)
  promolecular density results
     # of electrons  =    153.984174376
     EX              =   -124.698953401
     EC              =     -5.214228899
     EX+EC           =   -129.913182299
Transforming the Hamiltonian                       ... done (   0.0 sec)
Diagonalizing the Hamiltonian                      ... done (   0.0 sec)
Back transforming the eigenvectors                 ... done (   0.0 sec)
Now organizing SCF variables                       ... done
                      ------------------
                      INITIAL GUESS DONE (   1.1 sec)
                      ------------------
-------------------
DFT GRID GENERATION
-------------------

General Integration Accuracy     IntAcc      ... 4.388
Radial Grid Type                 RadialGrid  ... OptM3 with GC (2021)
Angular Grid (max. ang.)         AngularGrid ... 4 (Lebedev-302)
Angular grid pruning method      GridPruning ... 4 (adaptive)
Weight generation scheme         WeightScheme... Becke
Basis function cutoff            BFCut       ... 1.0000e-11
Integration weight cutoff        WCut        ... 1.0000e-14
Angular grids for H and He will be reduced by one unit
Partially contracted basis set               ... off
Rotationally invariant grid construction     ... off

Total number of grid points                  ...   191850
Total number of batches                      ...     3021
Average number of points per batch           ...       63
Average number of grid points per atom       ...     4568
Time for grid setup =    2.200 sec

--------------------
COSX GRID GENERATION
--------------------

GRIDX 1
-------
General Integration Accuracy     IntAcc      ... 3.816
Radial Grid Type                 RadialGrid  ... OptM3 with GC (2021)
Angular Grid (max. ang.)         AngularGrid ... 1 (Lebedev-50)
Angular grid pruning method      GridPruning ... 4 (adaptive)
Weight generation scheme         WeightScheme... Becke
Basis function cutoff            BFCut       ... 1.0000e-11
Integration weight cutoff        WCut        ... 1.0000e-14
Angular grids for H and He will be reduced by one unit
Partially contracted basis set               ... on
Rotationally invariant grid construction     ... off

Total number of grid points                  ...    24382
Total number of batches                      ...      403
Average number of points per batch           ...       60
Average number of grid points per atom       ...      581
UseSFitting                                  ... on

GRIDX 2
-------
General Integration Accuracy     IntAcc      ... 4.020
Radial Grid Type                 RadialGrid  ... OptM3 with GC (2021)
Angular Grid (max. ang.)         AngularGrid ... 2 (Lebedev-110)
Angular grid pruning method      GridPruning ... 4 (adaptive)
Weight generation scheme         WeightScheme... Becke
Basis function cutoff            BFCut       ... 1.0000e-11
Integration weight cutoff        WCut        ... 1.0000e-14
Angular grids for H and He will be reduced by one unit
Partially contracted basis set               ... on
Rotationally invariant grid construction     ... off

Total number of grid points                  ...    52120
Total number of batches                      ...      833
Average number of points per batch           ...       62
Average number of grid points per atom       ...     1241
UseSFitting                                  ... on

GRIDX 3
-------
General Integration Accuracy     IntAcc      ... 4.338
Radial Grid Type                 RadialGrid  ... OptM3 with GC (2021)
Angular Grid (max. ang.)         AngularGrid ... 3 (Lebedev-194)
Angular grid pruning method      GridPruning ... 4 (adaptive)
Weight generation scheme         WeightScheme... Becke
Basis function cutoff            BFCut       ... 1.0000e-11
Integration weight cutoff        WCut        ... 1.0000e-14
Angular grids for H and He will be reduced by one unit
Partially contracted basis set               ... on
Rotationally invariant grid construction     ... off

Total number of grid points                  ...   113532
Total number of batches                      ...     1798
Average number of points per batch           ...       63
Average number of grid points per atom       ...     2703
UseSFitting                                  ... on

Time for X-Grid setup             =    4.418 sec


--------------------
CPCM SOLVATION MODEL
--------------------
CPCM parameters:
  Epsilon                                         ...      80.4000
  Refrac                                          ...       1.3300
  Rsolv                                           ...       1.3000
  Surface type                                    ... GAUSSIAN VDW
  Epsilon function type                           ...         CPCM
Radii:
 Radius for C  used is    3.8550 Bohr (=   2.0400 Ang.)
 Radius for H  used is    2.4944 Bohr (=   1.3200 Ang.)
 Radius for N  used is    3.5149 Bohr (=   1.8600 Ang.)
 Radius for O  used is    3.4469 Bohr (=   1.8240 Ang.)
Calculating surface                               ...        done! (  0.0s)
GEPOL surface points                              ...         2187
GEPOL Volume                                      ...    2384.7919
GEPOL Surface-area                                ...    1210.9700
Calculating surface distance matrix               ...        done! (  0.0s)
Performing Cholesky decomposition & store         ...        done! (  0.2s)
Overall time for CPCM initialization              ...                 0.3s
--------------
SCF ITERATIONS
--------------
ITER       Energy         Delta-E        Max-DP      RMS-DP      [F,P]     Damp
               ***  Starting incremental Fock matrix formation  ***
  0   -935.9759440787   0.000000000000 0.09699340  0.00170458  0.2749570 0.7000
  1   -936.2222204901  -0.246276411365 0.05609777  0.00116429  0.1126953 0.7000
                               ***Turning on DIIS***
  2   -936.3225937094  -0.100373219331 0.06386192  0.00191278  0.0386357 0.0000
  3   -936.4798154073  -0.157221697826 0.03818199  0.00079941  0.0553420 0.0000
  4   -936.5121482758  -0.032332868560 0.00965925  0.00026406  0.0147321 0.0000
  5   -936.5143104323  -0.002162156489 0.00417612  0.00008293  0.0068399 0.0000
                      *** Initiating the SOSCF procedure ***
                           *** Shutting down DIIS ***
                      *** Re-Reading the Fockian *** 
                      *** Removing any level shift *** 
ITER      Energy       Delta-E        Grad      Rot      Max-DP    RMS-DP
  6   -936.51447824  -0.0001678060  0.000284  0.000284  0.001587  0.000038
               *** Restarting incremental Fock matrix formation ***
  7   -936.51449274  -0.0000144992  0.000249  0.001013  0.002021  0.000025
  8   -936.51448392   0.0000088148  0.000470  0.000684  0.001320  0.000016
  9   -936.51449746  -0.0000135355  0.000051  0.000143  0.000388  0.000005
 10   -936.51449701   0.0000004450  0.000099  0.000092  0.000266  0.000003
 11   -936.51449761  -0.0000005956  0.000006  0.000029  0.000038  0.000001
 12   -936.51449761   0.0000000001  0.000010  0.000021  0.000029  0.000000
                  ***Gradient check signals convergence***
              ***Rediagonalizing the Fockian in SOSCF/NRSCF***

               *****************************************************
               *                     SUCCESS                       *
               *           SCF CONVERGED AFTER  13 CYCLES          *
               *****************************************************

Old exchange energy                            =    -25.381129630 Eh
New exchange energy                            =    -25.381150972 Eh
Exchange energy change after final integration =     -0.000021342 Eh
Total energy after final integration           =   -936.514518944 Eh
Final COS-X integration done in                =    18.839 sec

----------------
TOTAL SCF ENERGY
----------------

Total Energy       :         -936.51451894 Eh          -25483.85563 eV

Components:
Nuclear Repulsion  :         1691.07166976 Eh           46016.39956 eV
Electronic Energy  :        -2627.58618871 Eh          -71500.25520 eV
One Electron Energy:        -4632.46433406 Eh         -126055.76308 eV
Two Electron Energy:         2004.87814535 Eh           54555.50788 eV
Max COSX asymmetry :            0.00000243 Eh               0.00007 eV
CPCM Dielectric    :           -0.02589703 Eh              -0.70469 eV

Virial components:
Potential Energy   :        -1867.55795769 Eh          -50818.83561 eV
Kinetic Energy     :          931.04343875 Eh           25334.97997 eV
Virial Ratio       :            2.00587629


DFT components:
N(Alpha)           :       77.000126728500 electrons
N(Beta)            :       77.000126728500 electrons
N(Total)           :      154.000253457000 electrons
E(X)               :     -100.781060070135 Eh       
E(C)               :       -6.141930360166 Eh       
E(XC)              :     -106.922990430301 Eh       
DFET-embed. en.    :        0.000000000000 Eh       
CPCM Solvation Model Properties:
Surface-charge          :           -0.02338024
Charge-correction       :           -0.00010205 Eh              -0.00278 eV
Free-energy (cav+disp)  :  This term is not implemented in the current solvation scheme

---------------
SCF CONVERGENCE
---------------

  Last Energy change         ...    6.8835e-09  Tolerance :   1.0000e-08
  Last MAX-Density change    ...    5.3291e-15  Tolerance :   1.0000e-07
  Last RMS-Density change    ...    4.1102e-17  Tolerance :   5.0000e-09
  Last Orbital Gradient      ...    1.3257e-06  Tolerance :   1.0000e-05
  Last Orbital Rotation      ...    3.9890e-06  Tolerance :   1.0000e-05

             **** THE GBW FILE WAS UPDATED (Nwe_water.gbw) ****
             **** DENSITY Nwe_water.scfp WAS UPDATED ****
             **** ENERGY FILE WAS UPDATED (Nwe_water.en.tmp) ****
             **** THE GBW FILE WAS UPDATED (Nwe_water.gbw) ****
             **** DENSITY Nwe_water.scfp WAS UPDATED ****
----------------
ORBITAL ENERGIES
----------------

  NO   OCC          E(Eh)            E(eV) 
   0   2.0000     -19.110394      -520.0202 
   1   2.0000     -19.110381      -520.0199 
   2   2.0000     -14.360915      -390.7804 
   3   2.0000     -14.360050      -390.7568 
   4   2.0000     -14.359755      -390.7488 
   5   2.0000     -10.284041      -279.8430 
   6   2.0000     -10.280644      -279.7506 
   7   2.0000     -10.210776      -277.8493 
   8   2.0000     -10.207452      -277.7589 
   9   2.0000     -10.205184      -277.6972 
  10   2.0000     -10.200026      -277.5568 
  11   2.0000     -10.197965      -277.5007 
  12   2.0000     -10.194980      -277.4195 
  13   2.0000     -10.175452      -276.8881 
  14   2.0000     -10.173570      -276.8369 
  15   2.0000     -10.172396      -276.8050 
  16   2.0000     -10.171977      -276.7936 
  17   2.0000     -10.170882      -276.7638 
  18   2.0000     -10.170226      -276.7459 
  19   2.0000     -10.167548      -276.6731 
  20   2.0000     -10.165455      -276.6161 
  21   2.0000      -1.032414       -28.0934 
  22   2.0000      -1.025306       -27.9000 
  23   2.0000      -0.968161       -26.3450 
  24   2.0000      -0.934215       -25.4213 
  25   2.0000      -0.927693       -25.2438 
  26   2.0000      -0.830148       -22.5895 
  27   2.0000      -0.797093       -21.6900 
  28   2.0000      -0.760611       -20.6973 
  29   2.0000      -0.743792       -20.2396 
  30   2.0000      -0.725367       -19.7382 
  31   2.0000      -0.718626       -19.5548 
  32   2.0000      -0.708125       -19.2690 
  33   2.0000      -0.701415       -19.0865 
  34   2.0000      -0.669647       -18.2220 
  35   2.0000      -0.644941       -17.5497 
  36   2.0000      -0.611425       -16.6377 
  37   2.0000      -0.581885       -15.8339 
  38   2.0000      -0.552896       -15.0451 
  39   2.0000      -0.547098       -14.8873 
  40   2.0000      -0.535953       -14.5840 
  41   2.0000      -0.525345       -14.2954 
  42   2.0000      -0.511422       -13.9165 
  43   2.0000      -0.485981       -13.2242 
  44   2.0000      -0.478851       -13.0302 
  45   2.0000      -0.472283       -12.8515 
  46   2.0000      -0.464104       -12.6289 
  47   2.0000      -0.461756       -12.5650 
  48   2.0000      -0.455364       -12.3911 
  49   2.0000      -0.446923       -12.1614 
  50   2.0000      -0.435857       -11.8603 
  51   2.0000      -0.420166       -11.4333 
  52   2.0000      -0.417038       -11.3482 
  53   2.0000      -0.414328       -11.2744 
  54   2.0000      -0.411332       -11.1929 
  55   2.0000      -0.403146       -10.9702 
  56   2.0000      -0.400942       -10.9102 
  57   2.0000      -0.395076       -10.7506 
  58   2.0000      -0.393882       -10.7181 
  59   2.0000      -0.390510       -10.6263 
  60   2.0000      -0.381762       -10.3883 
  61   2.0000      -0.379880       -10.3371 
  62   2.0000      -0.373985       -10.1767 
  63   2.0000      -0.370966       -10.0945 
  64   2.0000      -0.358494        -9.7551 
  65   2.0000      -0.352296        -9.5865 
  66   2.0000      -0.346996        -9.4423 
  67   2.0000      -0.334339        -9.0978 
  68   2.0000      -0.327068        -8.9000 
  69   2.0000      -0.321721        -8.7545 
  70   2.0000      -0.269442        -7.3319 
  71   2.0000      -0.259381        -7.0581 
  72   2.0000      -0.253102        -6.8872 
  73   2.0000      -0.238238        -6.4828 
  74   2.0000      -0.236612        -6.4385 
  75   2.0000      -0.216139        -5.8814 
  76   2.0000      -0.192625        -5.2416 
  77   0.0000      -0.004670        -0.1271 
  78   0.0000       0.012575         0.3422 
  79   0.0000       0.026820         0.7298 
  80   0.0000       0.032659         0.8887 
  81   0.0000       0.067571         1.8387 
  82   0.0000       0.090180         2.4539 
  83   0.0000       0.099220         2.6999 
  84   0.0000       0.112323         3.0565 
  85   0.0000       0.119709         3.2574 
  86   0.0000       0.124067         3.3760 
  87   0.0000       0.139725         3.8021 
  88   0.0000       0.141780         3.8580 
  89   0.0000       0.148054         4.0288 
  90   0.0000       0.156276         4.2525 
  91   0.0000       0.159729         4.3464 
  92   0.0000       0.163232         4.4418 
  93   0.0000       0.169115         4.6019 
  94   0.0000       0.173988         4.7345 
  95   0.0000       0.176862         4.8127 
  96   0.0000       0.183653         4.9974 
  97   0.0000       0.186742         5.0815 
  98   0.0000       0.188840         5.1386 
  99   0.0000       0.193507         5.2656 
 100   0.0000       0.195895         5.3306 
 101   0.0000       0.204959         5.5772 
 102   0.0000       0.208971         5.6864 
 103   0.0000       0.211708         5.7609 
 104   0.0000       0.221526         6.0280 
 105   0.0000       0.229422         6.2429 
 106   0.0000       0.236996         6.4490 
 107   0.0000       0.242836         6.6079 
 108   0.0000       0.247792         6.7428 
 109   0.0000       0.260044         7.0762 
 110   0.0000       0.272741         7.4217 
 111   0.0000       0.276458         7.5228 
 112   0.0000       0.281661         7.6644 
 113   0.0000       0.292745         7.9660 
 114   0.0000       0.298340         8.1183 
 115   0.0000       0.327210         8.9038 
 116   0.0000       0.338822         9.2198 
 117   0.0000       0.353224         9.6117 
 118   0.0000       0.354963         9.6590 
 119   0.0000       0.371649        10.1131 
 120   0.0000       0.384029        10.4500 
 121   0.0000       0.407979        11.1017 
 122   0.0000       0.421727        11.4758 
 123   0.0000       0.445457        12.1215 
 124   0.0000       0.472748        12.8641 
 125   0.0000       0.500940        13.6313 
 126   0.0000       0.510180        13.8827 
 127   0.0000       0.515242        14.0204 
 128   0.0000       0.520228        14.1561 
 129   0.0000       0.524747        14.2791 
 130   0.0000       0.531769        14.4702 
 131   0.0000       0.537147        14.6165 
 132   0.0000       0.538656        14.6576 
 133   0.0000       0.552306        15.0290 
 134   0.0000       0.559728        15.2310 
 135   0.0000       0.568818        15.4783 
 136   0.0000       0.574065        15.6211 
 137   0.0000       0.577458        15.7134 
 138   0.0000       0.588413        16.0115 
 139   0.0000       0.596131        16.2216 
 140   0.0000       0.601676        16.3724 
 141   0.0000       0.606416        16.5014 
 142   0.0000       0.613510        16.6945 
 143   0.0000       0.616565        16.7776 
 144   0.0000       0.620827        16.8936 
 145   0.0000       0.626506        17.0481 
 146   0.0000       0.630356        17.1529 
 147   0.0000       0.634485        17.2652 
 148   0.0000       0.638456        17.3733 
 149   0.0000       0.642364        17.4796 
 150   0.0000       0.650685        17.7060 
 151   0.0000       0.660764        17.9803 
 152   0.0000       0.668454        18.1896 
 153   0.0000       0.670141        18.2355 
 154   0.0000       0.690903        18.8004 
 155   0.0000       0.700478        19.0610 
 156   0.0000       0.702858        19.1257 
 157   0.0000       0.718274        19.5452 
 158   0.0000       0.727446        19.7948 
 159   0.0000       0.744222        20.2513 
 160   0.0000       0.766419        20.8553 
 161   0.0000       0.769211        20.9313 
 162   0.0000       0.781837        21.2749 
 163   0.0000       0.791035        21.5252 
 164   0.0000       0.800291        21.7770 
 165   0.0000       0.814227        22.1562 
 166   0.0000       0.821570        22.3561 
 167   0.0000       0.822523        22.3820 
 168   0.0000       0.830781        22.6067 
 169   0.0000       0.835510        22.7354 
 170   0.0000       0.840858        22.8809 
 171   0.0000       0.848477        23.0882 
 172   0.0000       0.856512        23.3069 
 173   0.0000       0.859758        23.3952 
 174   0.0000       0.873572        23.7711 
 175   0.0000       0.878343        23.9009 
 176   0.0000       0.880132        23.9496 
 177   0.0000       0.886090        24.1117 
 178   0.0000       0.897585        24.4245 
 179   0.0000       0.899248        24.4698 
 180   0.0000       0.907442        24.6928 
 181   0.0000       0.916435        24.9375 
 182   0.0000       0.920443        25.0465 
 183   0.0000       0.928729        25.2720 
 184   0.0000       0.934010        25.4157 
 185   0.0000       0.935231        25.4489 
 186   0.0000       0.942422        25.6446 
 187   0.0000       0.956594        26.0303 
 188   0.0000       0.962901        26.2019 
 189   0.0000       0.978382        26.6231 
 190   0.0000       0.983902        26.7733 
 191   0.0000       0.985966        26.8295 
 192   0.0000       0.996840        27.1254 
 193   0.0000       1.001503        27.2523 
 194   0.0000       1.013945        27.5909 
 195   0.0000       1.018264        27.7084 
 196   0.0000       1.034333        28.1456 
 197   0.0000       1.044653        28.4265 
 198   0.0000       1.057811        28.7845 
 199   0.0000       1.070423        29.1277 
 200   0.0000       1.094748        29.7896 
 201   0.0000       1.098774        29.8992 
 202   0.0000       1.119990        30.4765 
 203   0.0000       1.129209        30.7273 
 204   0.0000       1.139044        30.9950 
 205   0.0000       1.145973        31.1835 
 206   0.0000       1.172394        31.9025 
 207   0.0000       1.192345        32.4454 
 208   0.0000       1.214415        33.0459 
 209   0.0000       1.227353        33.3980 
 210   0.0000       1.242319        33.8052 
 211   0.0000       1.254570        34.1386 
 212   0.0000       1.264318        34.4038 
 213   0.0000       1.288668        35.0664 
 214   0.0000       1.307808        35.5873 
 215   0.0000       1.325677        36.0735 
 216   0.0000       1.344962        36.5983 
 217   0.0000       1.348869        36.7046 
 218   0.0000       1.358759        36.9737 
 219   0.0000       1.376865        37.4664 
 220   0.0000       1.386311        37.7234 
 221   0.0000       1.399665        38.0868 
 222   0.0000       1.411490        38.4086 
 223   0.0000       1.426945        38.8292 
 224   0.0000       1.428058        38.8594 
 225   0.0000       1.431743        38.9597 
 226   0.0000       1.435628        39.0654 
 227   0.0000       1.455726        39.6123 
 228   0.0000       1.475030        40.1376 
 229   0.0000       1.476523        40.1782 
 230   0.0000       1.489119        40.5210 
 231   0.0000       1.501290        40.8522 
 232   0.0000       1.512121        41.1469 
 233   0.0000       1.516962        41.2786 
 234   0.0000       1.528641        41.5964 
 235   0.0000       1.544066        42.0162 
 236   0.0000       1.583666        43.0937 
 237   0.0000       1.632310        44.4174 
 238   0.0000       1.641497        44.6674 
 239   0.0000       1.659824        45.1661 
 240   0.0000       1.680937        45.7406 
 241   0.0000       1.711485        46.5719 
 242   0.0000       1.750238        47.6264 
 243   0.0000       1.755657        47.7739 
 244   0.0000       1.764963        48.0271 
 245   0.0000       1.773538        48.2604 
 246   0.0000       1.808028        49.1989 
 247   0.0000       1.812357        49.3167 
 248   0.0000       1.815458        49.4011 
 249   0.0000       1.821995        49.5790 
 250   0.0000       1.838923        50.0396 
 251   0.0000       1.855736        50.4971 
 252   0.0000       1.866693        50.7953 
 253   0.0000       1.870250        50.8921 
 254   0.0000       1.881344        51.1940 
 255   0.0000       1.896076        51.5949 
 256   0.0000       1.917021        52.1648 
 257   0.0000       1.923607        52.3440 
 258   0.0000       1.928275        52.4710 
 259   0.0000       1.940894        52.8144 
 260   0.0000       1.953331        53.1528 
 261   0.0000       1.953741        53.1640 
 262   0.0000       1.966398        53.5084 
 263   0.0000       1.974880        53.7392 
 264   0.0000       1.985022        54.0152 
 265   0.0000       1.988718        54.1158 
 266   0.0000       1.993955        54.2583 
 267   0.0000       2.014018        54.8042 
 268   0.0000       2.018825        54.9350 
 269   0.0000       2.028866        55.2082 
 270   0.0000       2.048015        55.7293 
 271   0.0000       2.059259        56.0353 
 272   0.0000       2.064660        56.1823 
 273   0.0000       2.075778        56.4848 
[...]
 14:    116.14   0.002717   13.73  0.007302  (-0.013264  0.055082 -0.063968)
 15:    134.00   0.001712    8.65  0.003987  ( 0.036440 -0.046152  0.023014)
 16:    169.12   0.000074    0.37  0.000136  ( 0.002826 -0.008998 -0.006895)
 17:    180.62   0.000467    2.36  0.000807  (-0.006493  0.009902  0.025831)
 18:    190.72   0.000082    0.41  0.000134  (-0.000577 -0.001696  0.011424)
 19:    221.90   0.000400    2.02  0.000562  ( 0.002687  0.002590  0.023420)
 20:    228.94   0.001716    8.67  0.002339  ( 0.009449  0.011514 -0.046012)
 21:    238.67   0.000148    0.75  0.000193  (-0.001742 -0.013414 -0.003228)
 22:    255.72   0.002624   13.26  0.003202  (-0.050843  0.020195  0.014477)
 23:    276.10   0.001287    6.50  0.001455  ( 0.031189 -0.010759  0.019140)
 24:    344.48   0.004776   24.13  0.004326  ( 0.007046 -0.025845  0.060072)
 25:    350.69   0.000916    4.63  0.000815  ( 0.007393  0.021648  0.017072)
 26:    377.78   0.001746    8.82  0.001442  ( 0.000515 -0.014966 -0.034898)
 27:    390.94   0.000913    4.61  0.000729  (-0.001557  0.021447 -0.016324)
 28:    428.98   0.016453   83.15  0.011969  (-0.015616 -0.027876  0.104632)
 29:    434.63   0.002499   12.63  0.001794  ( 0.010766  0.002479 -0.040893)
 30:    446.14   0.011616   58.70  0.008125  ( 0.021740  0.018539 -0.085489)
 31:    460.70   0.004198   21.22  0.002844  ( 0.041491  0.019043  0.027564)
 32:    472.26   0.001275    6.44  0.000843  (-0.020046  0.014677 -0.015011)
 33:    498.52   0.004867   24.60  0.003047  (-0.041144  0.024403  0.027537)
 34:    550.69   0.001178    5.95  0.000667  ( 0.015613  0.020397  0.002736)
 35:    576.00   0.003774   19.07  0.002045  (-0.019175 -0.040380  0.006816)
 36:    587.75   0.001623    8.20  0.000862  ( 0.023908 -0.009347  0.014243)
 37:    592.19   0.002999   15.16  0.001581  (-0.004816  0.002809 -0.039363)
 38:    601.80   0.003245   16.40  0.001683  ( 0.005087  0.028282 -0.029274)
 39:    627.38   0.001065    5.38  0.000530  (-0.002911 -0.003275 -0.022593)
 40:    650.68   0.001830    9.25  0.000878  ( 0.000857  0.007622  0.028614)
 41:    702.15   0.000867    4.38  0.000385  ( 0.011653  0.003831  0.015330)
 42:    750.42   0.001302    6.58  0.000541  (-0.013232 -0.009113  0.016832)
 43:    756.82   0.016206   81.90  0.006682  ( 0.012258  0.012554 -0.079841)
 44:    760.41   0.003016   15.24  0.001238  (-0.019417  0.029280 -0.001861)
 45:    767.20   0.002775   14.03  0.001129  (-0.020066  0.012893 -0.023666)
 46:    780.82   0.003660   18.50  0.001463  (-0.017405  0.012905 -0.031517)
 47:    790.42   0.000408    2.06  0.000161  ( 0.008712  0.000532  0.009224)
 48:    816.72   0.001399    7.07  0.000534  (-0.018282 -0.005691  0.012953)
 49:    847.13   0.003712   18.76  0.001367  (-0.010356 -0.006551 -0.034889)
 50:    863.43   0.000064    0.32  0.000023  (-0.002632 -0.003907 -0.000942)
 51:    890.03   0.000165    0.84  0.000058  ( 0.006738  0.003536 -0.000352)
 52:    930.87   0.000541    2.74  0.000182  ( 0.002132  0.004016 -0.012682)
 53:    960.18   0.000567    2.87  0.000184  ( 0.008757  0.006264  0.008266)
 54:    970.60   0.000004    0.02  0.000001  (-0.000706 -0.000909  0.000167)
 55:   1003.25   0.006155   31.11  0.001915  (-0.017176  0.010981 -0.038717)
 56:   1010.72   0.007357   37.18  0.002272  ( 0.027256  0.036490 -0.014045)
 57:   1026.61   0.005480   27.70  0.001666  (-0.020597  0.023874  0.025917)
 58:   1034.39   0.002899   14.65  0.000875  ( 0.014737  0.022883 -0.011567)
 59:   1040.02   0.005161   26.08  0.001548  (-0.020652  0.033435  0.002007)
 60:   1062.72   0.001956    9.88  0.000574  ( 0.001098 -0.008772  0.022273)
 61:   1080.08   0.003776   19.08  0.001091  ( 0.022222  0.004930  0.023933)
 62:   1090.08   0.002386   12.06  0.000683  (-0.005663 -0.025516  0.000004)
 63:   1111.04   0.014268   72.10  0.004007  ( 0.024083  0.052168  0.026568)
 64:   1113.41   0.002975   15.03  0.000834  ( 0.002223  0.028120 -0.006171)
 65:   1134.60   0.000646    3.26  0.000178  ( 0.003235 -0.012808 -0.001744)
 66:   1152.60   0.000569    2.87  0.000154  ( 0.000836  0.007183 -0.010083)
 67:   1169.07   0.009677   48.91  0.002583  (-0.026813  0.011872 -0.041514)
 68:   1179.53   0.003414   17.25  0.000903  ( 0.020244 -0.000124  0.022210)
 69:   1184.07   0.000502    2.54  0.000132  ( 0.004774  0.002778  0.010085)
 70:   1218.89   0.011143   56.31  0.002853  (-0.002213  0.021674  0.048765)
 71:   1250.06   0.019690   99.51  0.004915  (-0.029709 -0.062025 -0.013629)
 72:   1259.56   0.004865   24.59  0.001205  ( 0.030612  0.015228  0.006037)
 73:   1281.85   0.011022   55.70  0.002683  (-0.028411  0.035585  0.024692)
 74:   1287.07   0.014188   71.70  0.003440  ( 0.002964 -0.051149  0.028549)
 75:   1295.56   0.018154   91.74  0.004373  (-0.014972  0.059642  0.024321)
 76:   1321.93   0.003224   16.29  0.000761  ( 0.006547  0.026798  0.000299)
 77:   1342.07   0.004081   20.63  0.000949  (-0.012201 -0.027946 -0.004380)
 78:   1347.48   0.000654    3.30  0.000151  (-0.001509 -0.008603 -0.008666)
 79:   1373.13   0.000336    1.70  0.000076  (-0.001711 -0.006052 -0.006062)
 80:   1387.59   0.011755   59.41  0.002644  ( 0.047549 -0.019523  0.001255)
 81:   1394.65   0.005116   25.85  0.001145  ( 0.004271  0.032743  0.007374)
 82:   1409.22   0.005246   26.51  0.001162  ( 0.031253  0.009838 -0.009386)
 83:   1417.10   0.005039   25.46  0.001110  ( 0.010887  0.029426  0.011190)
 84:   1441.18   0.015583   78.75  0.003374  (-0.016870  0.016703 -0.053016)
 85:   1456.96   0.016614   83.96  0.003559  (-0.014349  0.044104 -0.037517)
 86:   1464.90   0.009305   47.02  0.001982  ( 0.042941 -0.011107  0.003867)
 87:   1473.47   0.049037  247.81  0.010386  (-0.024849 -0.092463 -0.034909)
 88:   1484.42   0.004742   23.97  0.000997  ( 0.031487  0.002349 -0.000030)
 89:   1489.36   0.000642    3.25  0.000135  ( 0.004773  0.006198 -0.008568)
 90:   1497.38   0.008731   44.12  0.001820  (-0.007888  0.041831  0.002742)
 91:   1498.67   0.004803   24.27  0.001000  (-0.000222  0.028322  0.014070)
 92:   1504.34   0.005125   25.90  0.001063  (-0.009494  0.020726  0.023313)
 93:   1506.78   0.003462   17.50  0.000717  ( 0.012929 -0.021948  0.008259)
 94:   1510.63   0.000787    3.98  0.000163  (-0.001480 -0.012615 -0.001127)
 95:   1517.17   0.003065   15.49  0.000631  (-0.024355  0.004384 -0.004262)
 96:   1529.78   0.006134   31.00  0.001251  (-0.033776 -0.007913 -0.006913)
 97:   1532.26   0.006131   30.98  0.001249  ( 0.014724 -0.007752 -0.031173)
 98:   1536.13   0.001506    7.61  0.000306  ( 0.012268 -0.012240 -0.002370)
 99:   1554.40   0.017641   89.15  0.003542  (-0.007960  0.034298 -0.047978)
100:   1602.80   0.003095   15.64  0.000603  (-0.020383 -0.013554 -0.001862)
101:   1628.69   0.000200    1.01  0.000038  (-0.003205  0.005301 -0.000127)
102:   1674.85   0.001562    7.89  0.000291  (-0.001304  0.016908  0.001858)
103:   1703.31   0.172077  869.61  0.031526  ( 0.132155  0.096549  0.068845)
104:   1710.42   0.070984  358.73  0.012951  (-0.000049 -0.040639 -0.106299)
105:   3034.89   0.005026   25.40  0.000517  (-0.003739 -0.021588 -0.006062)
106:   3039.54   0.018654   94.27  0.001915  (-0.007427 -0.007302  0.042505)
107:   3045.91   0.010754   54.35  0.001102  ( 0.020452  0.009784  0.024244)
108:   3064.92   0.000755    3.81  0.000077  (-0.007306  0.003876  0.002905)
109:   3083.52   0.004040   20.41  0.000409  (-0.010865  0.007485  0.015322)
110:   3087.93   0.012641   63.88  0.001278  (-0.013121 -0.006921 -0.032519)
111:   3099.03   0.013637   68.92  0.001373  (-0.035243  0.009245 -0.006759)
112:   3102.91   0.004018   20.30  0.000404  (-0.019089  0.005629 -0.002827)
113:   3113.02   0.003860   19.51  0.000387  ( 0.011428 -0.016001 -0.000529)
114:   3131.48   0.001812    9.16  0.000181  (-0.002998 -0.001868  0.012964)
115:   3145.63   0.007516   37.98  0.000746  ( 0.013373 -0.023562 -0.003417)
116:   3164.29   0.001706    8.62  0.000168  (-0.005351  0.010322 -0.005746)
117:   3170.77   0.003396   17.16  0.000334  ( 0.011603  0.013207  0.005019)
118:   3182.68   0.000336    1.70  0.000033  ( 0.000543  0.005623  0.001017)
119:   3192.01   0.001207    6.10  0.000118  ( 0.004403 -0.009179 -0.003785)
120:   3192.89   0.002959   14.95  0.000289  (-0.010125  0.013622  0.001045)
121:   3193.23   0.000593    3.00  0.000058  (-0.005673 -0.004562 -0.002227)
122:   3202.63   0.010158   51.34  0.000990  (-0.023305 -0.019872 -0.007199)
123:   3209.77   0.006055   30.60  0.000589  (-0.015668  0.018369  0.002407)
124:   3270.50   0.000157    0.79  0.000015  ( 0.003192 -0.002155  0.000364)
125:   3650.12   0.035032  177.04  0.002995  (-0.023487 -0.048167 -0.011104)

* The epsilon (eps) is given for a Dirac delta lineshape.
** The dipole moment derivative (T) already includes vibrational overlap.

The first frequency considered to be a vibration is 6
The total number of vibrations considered is 120


--------------------------
THERMOCHEMISTRY AT 298.15K
--------------------------

Temperature         ... 298.15 K
Pressure            ... 1.00 atm
Total Mass          ... 287.36 AMU

Throughout the following assumptions are being made:
  (1) The electronic state is orbitally nondegenerate
  (2) There are no thermally accessible electronically excited states
  (3) Hindered rotations indicated by low frequency modes are not
      treated as such but are treated as vibrations and this may
      cause some error
  (4) All equations used are the standard statistical mechanics
      equations for an ideal gas
  (5) All vibrations are strictly harmonic

freq.      22.06  E(vib)   ...       0.56 
freq.      36.36  E(vib)   ...       0.54 
freq.      41.56  E(vib)   ...       0.54 
freq.      63.32  E(vib)   ...       0.51 
freq.      70.61  E(vib)   ...       0.50 
freq.      76.20  E(vib)   ...       0.49 
freq.      89.15  E(vib)   ...       0.47 
freq.     106.91  E(vib)   ...       0.45 
freq.     116.14  E(vib)   ...       0.44 
freq.     134.00  E(vib)   ...       0.42 
freq.     169.12  E(vib)   ...       0.38 
freq.     180.62  E(vib)   ...       0.37 
freq.     190.72  E(vib)   ...       0.36 
freq.     221.90  E(vib)   ...       0.33 
freq.     228.94  E(vib)   ...       0.32 
freq.     238.67  E(vib)   ...       0.32 
freq.     255.72  E(vib)   ...       0.30 
freq.     276.10  E(vib)   ...       0.28 
freq.     344.48  E(vib)   ...       0.23 
freq.     350.69  E(vib)   ...       0.23 
freq.     377.78  E(vib)   ...       0.21 
freq.     390.94  E(vib)   ...       0.20 
freq.     428.98  E(vib)   ...       0.18 
freq.     434.63  E(vib)   ...       0.17 
freq.     446.14  E(vib)   ...       0.17 
freq.     460.70  E(vib)   ...       0.16 
freq.     472.26  E(vib)   ...       0.15 
freq.     498.52  E(vib)   ...       0.14 
freq.     550.69  E(vib)   ...       0.12 
freq.     576.00  E(vib)   ...       0.11 
freq.     587.75  E(vib)   ...       0.10 
freq.     592.19  E(vib)   ...       0.10 
freq.     601.80  E(vib)   ...       0.10 
freq.     627.38  E(vib)   ...       0.09 
freq.     650.68  E(vib)   ...       0.08 
freq.     702.15  E(vib)   ...       0.07 
freq.     750.42  E(vib)   ...       0.06 
freq.     756.82  E(vib)   ...       0.06 
freq.     760.41  E(vib)   ...       0.06 
freq.     767.20  E(vib)   ...       0.06 
freq.     780.82  E(vib)   ...       0.05 
freq.     790.42  E(vib)   ...       0.05 
freq.     816.72  E(vib)   ...       0.05 
freq.     847.13  E(vib)   ...       0.04 
freq.     863.43  E(vib)   ...       0.04 
freq.     890.03  E(vib)   ...       0.04 
freq.     930.87  E(vib)   ...       0.03 
freq.     960.18  E(vib)   ...       0.03 
freq.     970.60  E(vib)   ...       0.03 
freq.    1003.25  E(vib)   ...       0.02 
freq.    1010.72  E(vib)   ...       0.02 
freq.    1026.61  E(vib)   ...       0.02 
freq.    1034.39  E(vib)   ...       0.02 
freq.    1040.02  E(vib)   ...       0.02 
freq.    1062.72  E(vib)   ...       0.02 
freq.    1080.08  E(vib)   ...       0.02 
freq.    1090.08  E(vib)   ...       0.02 
freq.    1111.04  E(vib)   ...       0.01 
freq.    1113.41  E(vib)   ...       0.01 
freq.    1134.60  E(vib)   ...       0.01 
freq.    1152.60  E(vib)   ...       0.01 
freq.    1169.07  E(vib)   ...       0.01 
freq.    1179.53  E(vib)   ...       0.01 
freq.    1184.07  E(vib)   ...       0.01 
freq.    1218.89  E(vib)   ...       0.01 
freq.    1250.06  E(vib)   ...       0.01 
freq.    1259.56  E(vib)   ...       0.01 
freq.    1281.85  E(vib)   ...       0.01 
freq.    1287.07  E(vib)   ...       0.01 
freq.    1295.56  E(vib)   ...       0.01 
freq.    1321.93  E(vib)   ...       0.01 
freq.    1342.07  E(vib)   ...       0.01 
freq.    1347.48  E(vib)   ...       0.01 
freq.    1373.13  E(vib)   ...       0.01 
freq.    1387.59  E(vib)   ...       0.00 
freq.    1394.65  E(vib)   ...       0.00 
freq.    1409.22  E(vib)   ...       0.00 
freq.    1417.10  E(vib)   ...       0.00 
freq.    1441.18  E(vib)   ...       0.00 
freq.    1456.96  E(vib)   ...       0.00 
freq.    1464.90  E(vib)   ...       0.00 
freq.    1473.47  E(vib)   ...       0.00 
freq.    1484.42  E(vib)   ...       0.00 
freq.    1489.36  E(vib)   ...       0.00 
freq.    1497.38  E(vib)   ...       0.00 
freq.    1498.67  E(vib)   ...       0.00 
freq.    1504.34  E(vib)   ...       0.00 
freq.    1506.78  E(vib)   ...       0.00 
freq.    1510.63  E(vib)   ...       0.00 
freq.    1517.17  E(vib)   ...       0.00 
freq.    1529.78  E(vib)   ...       0.00 
freq.    1532.26  E(vib)   ...       0.00 
freq.    1536.13  E(vib)   ...       0.00 
freq.    1554.40  E(vib)   ...       0.00 
freq.    1602.80  E(vib)   ...       0.00 
freq.    1628.69  E(vib)   ...       0.00 
freq.    1674.85  E(vib)   ...       0.00 
freq.    1703.31  E(vib)   ...       0.00 
freq.    1710.42  E(vib)   ...       0.00 
freq.    3034.89  E(vib)   ...       0.00 
freq.    3039.54  E(vib)   ...       0.00 
freq.    3045.91  E(vib)   ...       0.00 
freq.    3064.92  E(vib)   ...       0.00 
freq.    3083.52  E(vib)   ...       0.00 
freq.    3087.93  E(vib)   ...       0.00 
freq.    3099.03  E(vib)   ...       0.00 
freq.    3102.91  E(vib)   ...       0.00 
freq.    3113.02  E(vib)   ...       0.00 
freq.    3131.48  E(vib)   ...       0.00 
freq.    3145.63  E(vib)   ...       0.00 
freq.    3164.29  E(vib)   ...       0.00 
freq.    3170.77  E(vib)   ...       0.00 
freq.    3182.68  E(vib)   ...       0.00 
freq.    3192.01  E(vib)   ...       0.00 
freq.    3192.89  E(vib)   ...       0.00 
freq.    3193.23  E(vib)   ...       0.00 
freq.    3202.63  E(vib)   ...       0.00 
freq.    3209.77  E(vib)   ...       0.00 
freq.    3270.50  E(vib)   ...       0.00 
freq.    3650.12  E(vib)   ...       0.00 

------------
INNER ENERGY
------------

The inner energy is: U= E(el) + E(ZPE) + E(vib) + E(rot) + E(trans)
    E(el)   - is the total energy from the electronic structure calculation
              = E(kin-el) + E(nuc-el) + E(el-el) + E(nuc-nuc)
    E(ZPE)  - the the zero temperature vibrational energy from the frequency calculation
    E(vib)  - the the finite temperature correction to E(ZPE) due to population
              of excited vibrational states
    E(rot)  - is the rotational thermal energy
    E(trans)- is the translational thermal energy

Summary of contributions to the inner energy U:
Electronic energy                ...   -936.60069435 Eh
Zero point energy                ...      0.35578326 Eh     223.26 kcal/mol
Thermal vibrational correction   ...      0.01782520 Eh      11.19 kcal/mol
Thermal rotational correction    ...      0.00141627 Eh       0.89 kcal/mol
Thermal translational correction ...      0.00141627 Eh       0.89 kcal/mol
-----------------------------------------------------------------------
Total thermal energy                   -936.22425335 Eh


Summary of corrections to the electronic energy:
(perhaps to be used in another calculation)
Total thermal correction                  0.02065774 Eh      12.96 kcal/mol
Non-thermal (ZPE) correction              0.35578326 Eh     223.26 kcal/mol
-----------------------------------------------------------------------
Total correction                          0.37644100 Eh     236.22 kcal/mol


--------
ENTHALPY
--------

The enthalpy is H = U + kB*T
                kB is Boltzmann's constant
Total free energy                 ...   -936.22425335 Eh 
Thermal Enthalpy correction       ...      0.00094421 Eh       0.59 kcal/mol
-----------------------------------------------------------------------
Total Enthalpy                    ...   -936.22330914 Eh


Note: Only C1 symmetry has been detected, increase convergence thresholds 
      if your molecule has a higher symmetry. Symmetry factor of 1.0 is   
      used for the rotational entropy correction. 
 

Note: Rotational entropy computed according to Herzberg 
Infrared and Raman Spectra, Chapter V,1, Van Nostrand Reinhold, 1945 
Point Group:  C1, Symmetry Number:   1  
Rotational constants in cm-1:     0.017178     0.005929     0.004822 

Vibrational entropy computed according to the QRRHO of S. Grimme
Chem.Eur.J. 2012 18 9955


-------
ENTROPY
-------

The entropy contributions are T*S = T*(S(el)+S(vib)+S(rot)+S(trans))
     S(el)   - electronic entropy
     S(vib)  - vibrational entropy
     S(rot)  - rotational entropy
     S(trans)- translational entropy
The entropies will be listed as multiplied by the temperature to get
units of energy

Electronic entropy                ...      0.00000000 Eh      0.00 kcal/mol
Vibrational entropy               ...      0.03174722 Eh     19.92 kcal/mol
Rotational entropy                ...      0.01636871 Eh     10.27 kcal/mol
Translational entropy             ...      0.02036622 Eh     12.78 kcal/mol
-----------------------------------------------------------------------
Final entropy term                ...      0.06848216 Eh     42.97 kcal/mol

In case the symmetry of your molecule has not been determined correctly
or in case you have a reason to use a different symmetry number we print 
out the resulting rotational entropy values for sn=1,12 :
 --------------------------------------------------------
|  sn= 1 | S(rot)=       0.01636871 Eh     10.27 kcal/mol|
|  sn= 2 | S(rot)=       0.01571426 Eh      9.86 kcal/mol|
|  sn= 3 | S(rot)=       0.01533142 Eh      9.62 kcal/mol|
|  sn= 4 | S(rot)=       0.01505980 Eh      9.45 kcal/mol|
|  sn= 5 | S(rot)=       0.01484911 Eh      9.32 kcal/mol|
|  sn= 6 | S(rot)=       0.01467697 Eh      9.21 kcal/mol|
|  sn= 7 | S(rot)=       0.01453142 Eh      9.12 kcal/mol|
|  sn= 8 | S(rot)=       0.01440534 Eh      9.04 kcal/mol|
|  sn= 9 | S(rot)=       0.01429413 Eh      8.97 kcal/mol|
|  sn=10 | S(rot)=       0.01419465 Eh      8.91 kcal/mol|
|  sn=11 | S(rot)=       0.01410466 Eh      8.85 kcal/mol|
|  sn=12 | S(rot)=       0.01402251 Eh      8.80 kcal/mol|
 --------------------------------------------------------


-------------------
GIBBS FREE ENERGY
-------------------

The Gibbs free energy is G = H - T*S

Total enthalpy                    ...   -936.22330914 Eh 
Total entropy correction          ...     -0.06848216 Eh    -42.97 kcal/mol
-----------------------------------------------------------------------
Final Gibbs free energy         ...   -936.29179130 Eh

For completeness - the Gibbs free energy minus the electronic energy
G-E(el)                           ...      0.30890305 Eh    193.84 kcal/mol


Timings for individual modules:

Sum of individual times         ...     4057.761 sec (=  67.629 min)
GTO integral calculation        ...       61.930 sec (=   1.032 min)   1.5 %
SCF iterations                  ...     2193.889 sec (=  36.565 min)  54.1 %
SCF Gradient evaluation         ...      575.412 sec (=   9.590 min)  14.2 %
Geometry relaxation             ...        5.606 sec (=   0.093 min)   0.1 %
Analytical frequency calculation...     1220.923 sec (=  20.349 min)  30.1 %
                             ****ORCA TERMINATED NORMALLY****
TOTAL RUN TIME: 0 days 1 hours 7 minutes 52 seconds 730 msec
