
                                 *****************
                                 * O   R   C   A *
                                 *****************

                                            #,                                       
                                            ###                                      
                                            ####                                     
                                            #####                                    
                                            ######                                   
                                           ########,                                 
                                     ,,################,,,,,                         
                               ,,#################################,,                 
                          ,,##########################################,,             
                       ,#########################################, ''#####,          
                    ,#############################################,,   '####,        
                  ,##################################################,,,,####,       
                ,###########''''           ''''###############################       
              ,#####''   ,,,,##########,,,,          '''####'''          '####       
            ,##' ,,,,###########################,,,                        '##       
           ' ,,###''''                  '''############,,,                           
         ,,##''                                '''############,,,,        ,,,,,,###''
      ,#''                                            '''#######################'''  
     '                                                          ''''####''''         
             ,#######,   #######,   ,#######,      ##                                
            ,#'     '#,  ##    ##  ,#'     '#,    #''#        ######   ,####,        
            ##       ##  ##   ,#'  ##            #'  '#       #        #'  '#        
            ##       ##  #######   ##           ,######,      #####,   #    #        
            '#,     ,#'  ##    ##  '#,     ,#' ,#      #,         ##   #,  ,#        
             '#######'   ##     ##  '#######'  #'      '#     #####' # '####'        



                  #######################################################
                  #                        -***-                        #
                  #          Department of theory and spectroscopy      #
                  #    Directorship and core code : Frank Neese         #
                  #        Max Planck Institute fuer Kohlenforschung    #
                  #                Kaiser Wilhelm Platz 1               #
                  #                 D-45470 Muelheim/Ruhr               #
                  #                      Germany                        #
                  #                                                     #
                  #                  All rights reserved                #
                  #                        -***-                        #
                  #######################################################


                         Program Version 5.0.4 -  RELEASE  -


 With contributions from (in alphabetic order):
   Daniel Aravena         : Magnetic Suceptibility
   Michael Atanasov       : Ab Initio Ligand Field Theory (pilot matlab implementation)
   Alexander A. Auer      : GIAO ZORA, VPT2 properties, NMR spectrum
   Ute Becker             : Parallelization
   Giovanni Bistoni       : ED, misc. LED, open-shell LED, HFLD
   Martin Brehm           : Molecular dynamics
   Dmytro Bykov           : SCF Hessian
   Vijay G. Chilkuri      : MRCI spin determinant printing, contributions to CSF-ICE
   Dipayan Datta          : RHF DLPNO-CCSD density
   Achintya Kumar Dutta   : EOM-CC, STEOM-CC
   Dmitry Ganyushin       : Spin-Orbit,Spin-Spin,Magnetic field MRCI
   Miquel Garcia          : C-PCM and meta-GGA Hessian, CC/C-PCM, Gaussian charge scheme
   Yang Guo               : DLPNO-NEVPT2, F12-NEVPT2, CIM, IAO-localization
   Andreas Hansen         : Spin unrestricted coupled pair/coupled cluster methods
   Benjamin Helmich-Paris : MC-RPA, TRAH-SCF, COSX integrals
   Lee Huntington         : MR-EOM, pCC
   Robert Izsak           : Overlap fitted RIJCOSX, COSX-SCS-MP3, EOM
   Marcus Kettner         : VPT2
   Christian Kollmar      : KDIIS, OOCD, Brueckner-CCSD(T), CCSD density, CASPT2, CASPT2-K
   Simone Kossmann        : Meta GGA functionals, TD-DFT gradient, OOMP2, MP2 Hessian
   Martin Krupicka        : Initial AUTO-CI
   Lucas Lang             : DCDCAS
   Marvin Lechner         : AUTO-CI (C++ implementation), FIC-MRCC
   Dagmar Lenk            : GEPOL surface, SMD
   Dimitrios Liakos       : Extrapolation schemes; Compound Job, initial MDCI parallelization
   Dimitrios Manganas     : Further ROCIS development; embedding schemes
   Dimitrios Pantazis     : SARC Basis sets
   Anastasios Papadopoulos: AUTO-CI, single reference methods and gradients
   Taras Petrenko         : DFT Hessian,TD-DFT gradient, ASA, ECA, R-Raman, ABS, FL, XAS/XES, NRVS
   Peter Pinski           : DLPNO-MP2, DLPNO-MP2 Gradient
   Christoph Reimann      : Effective Core Potentials
   Marius Retegan         : Local ZFS, SOC
   Christoph Riplinger    : Optimizer, TS searches, QM/MM, DLPNO-CCSD(T), (RO)-DLPNO pert. Triples
   Tobias Risthaus        : Range-separated hybrids, TD-DFT gradient, RPA, STAB
   Michael Roemelt        : Original ROCIS implementation
   Masaaki Saitow         : Open-shell DLPNO-CCSD energy and density
   Barbara Sandhoefer     : DKH picture change effects
   Avijit Sen             : IP-ROCIS
   Kantharuban Sivalingam : CASSCF convergence, NEVPT2, FIC-MRCI
   Bernardo de Souza      : ESD, SOC TD-DFT
   Georgi Stoychev        : AutoAux, RI-MP2 NMR, DLPNO-MP2 response
   Willem Van den Heuvel  : Paramagnetic NMR
   Boris Wezisla          : Elementary symmetry handling
   Frank Wennmohs         : Technical directorship


 We gratefully acknowledge several colleagues who have allowed us to
 interface, adapt or use parts of their codes:
   Stefan Grimme, W. Hujo, H. Kruse, P. Pracht,  : VdW corrections, initial TS optimization,
                  C. Bannwarth, S. Ehlert          DFT functionals, gCP, sTDA/sTD-DF
   Ed Valeev, F. Pavosevic, A. Kumar             : LibInt (2-el integral package), F12 methods
   Garnet Chan, S. Sharma, J. Yang, R. Olivares  : DMRG
   Ulf Ekstrom                                   : XCFun DFT Library
   Mihaly Kallay                                 : mrcc  (arbitrary order and MRCC methods)
   Jiri Pittner, Ondrej Demel                    : Mk-CCSD
   Frank Weinhold                                : gennbo (NPA and NBO analysis)
   Christopher J. Cramer and Donald G. Truhlar   : smd solvation model
   Lars Goerigk                                  : TD-DFT with DH, B97 family of functionals
   V. Asgeirsson, H. Jonsson                     : NEB implementation
   FAccTs GmbH                                   : IRC, NEB, NEB-TS, DLPNO-Multilevel, CI-OPT
                                                   MM, QMMM, 2- and 3-layer-ONIOM, Crystal-QMMM,
                                                   LR-CPCM, SF, NACMEs, symmetry and pop. for TD-DFT,
                                                   nearIR, NL-DFT gradient (VV10), updates on ESD,
                                                   ML-optimized integration grids
   S Lehtola, MJT Oliveira, MAL Marques          : LibXC Library
   Liviu Ungur et al                             : ANISO software


 Your calculation uses the libint2 library for the computation of 2-el integrals
 For citations please refer to: http://libint.valeyev.net

 Your ORCA version has been built with support for libXC version: 5.1.0
 For citations please refer to: https://tddft.org/programs/libxc/

 This ORCA versions uses:
   CBLAS   interface :  Fast vector & matrix operations
   LAPACKE interface :  Fast linear algebra routines
   SCALAPACK package :  Parallel linear algebra routines
   Shared memory     :  Shared parallel matrices
   BLAS/LAPACK       :  OpenBLAS 0.3.15  USE64BITINT DYNAMIC_ARCH NO_AFFINITY SkylakeX SINGLE_THREADED
        Core in use  :  SkylakeX
   Copyright (c) 2011-2014, The OpenBLAS Project




***************************************
The coordinates will be read from file: /users/fjb15167/WWenergy/structures/Na.xyz
***************************************


Your calculation utilizes the atom-pairwise dispersion correction
based on tight binding partial charges (D4)
Cite in your paper:
E.Caldeweyher, C.Bannwarth, S.Grimme, J.Chem.Phys., (2017), 147, 034112.
E.Caldeweyher, S.Ehlert, A.Hansen, H.Neugebauer, S.Grimme, J.Chem.Phys., (2018), in progress.
   

================================================================================

----- Orbital basis set information -----
Your calculation utilizes the basis: 6-31G(d)
   H-He, Li-Ne : W. J. Hehre, R. Ditchfield and J.A. Pople, J. Chem. Phys. 56, 2257 (1972).
                 Note: He and Ne are unpublished basis sets taken from the Gaussian program.
                 Note: Li and B from J. D. Dill and J. A. Pople, J. Chem. Phys. 62, 2921 (1975).
   Na - Ar     : M. M. Francl, W. J. Pietro, W. J. Hehre, J. S. Binkley, M. S. Gordon, 
                 D. J. DeFrees and J. A. Pople, J. Chem. Phys. 77, 3654 (1982).
   K - Zn      : V. A. Rassolov, J. A. Pople, M. A. Ratner, and T. L. Windus, J. Chem. Phys. 109, 1223 (1998).

----- AuxJ basis set information -----
Your calculation utilizes the AutoAux generation procedure.
  G. L. Stoychev, A. A. Auer, F. Neese, J. Chem. Theory Comput. 13, 554 (2017)

----- AuxC basis set information -----
Your calculation utilizes the AutoAux generation procedure.
  G. L. Stoychev, A. A. Auer, F. Neese, J. Chem. Theory Comput. 13, 554 (2017)

----- AuxJK basis set information -----
Your calculation utilizes the AutoAux generation procedure.
  G. L. Stoychev, A. A. Auer, F. Neese, J. Chem. Theory Comput. 13, 554 (2017)

================================================================================
                                        WARNINGS
                       Please study these warnings very carefully!
================================================================================

WARNING: Old DensityContainer found on disk!
         Will remove this file - 
         If you want to keep old densities, please start your calculation with a different basename. 


WARNING: Geometry Optimization
  ===> : Switching off AutoStart
         For restart on a previous wavefunction, please use MOREAD

INFO   : the flag for use of the SHARK integral package has been found!

================================================================================
                                       INPUT FILE
================================================================================
NAME = Na_octanol.inp
|  1> ! OPT FREQ B3LYP 6-31G(d) D4 AUTOAUX
|  2> ! CPCM
|  3> 
|  4> %cpcm
|  5> epsilon 9.8629 
|  6> refrac  1.4295 
|  7> end
|  8> 
|  9> %PAL NPROCS 4 END
| 10> 
| 11> %maxcore 3375
| 12> 
| 13> *xyzfile 0 1 /users/fjb15167/WWenergy/structures/Na.xyz
| 14> 
| 15>                          ****END OF INPUT****
================================================================================

                       *****************************
                       * Geometry Optimization Run *
                       *****************************

Geometry optimization settings:
Update method            Update   .... BFGS
Choice of coordinates    CoordSys .... Z-matrix Internals
Initial Hessian          InHess   .... Almoef's Model

Convergence Tolerances:
Energy Change            TolE     ....  5.0000e-06 Eh
Max. Gradient            TolMAXG  ....  3.0000e-04 Eh/bohr
RMS Gradient             TolRMSG  ....  1.0000e-04 Eh/bohr
Max. Displacement        TolMAXD  ....  4.0000e-03 bohr
RMS Displacement         TolRMSD  ....  2.0000e-03 bohr
Strict Convergence                ....  False
------------------------------------------------------------------------------
                        ORCA OPTIMIZATION COORDINATE SETUP
------------------------------------------------------------------------------

The optimization will be done in new redundant internal coordinates
Making redundant internal coordinates   ...  (new redundants) done
Evaluating the initial hessian          ...  (Almloef) done
Evaluating the coordinates              ...  done
Calculating the B-matrix                .... done
Calculating the G-matrix                .... done
Diagonalizing the G-matrix              .... done
Small eigenvalue found = 7.616e-03
Small eigenvalue found = 1.257e-02
Small eigenvalue found = 2.329e-02
The first mode is                       ....   41
The number of degrees of freedom        ....   69

    -----------------------------------------------------------------
                    Redundant Internal Coordinates


    -----------------------------------------------------------------
         Definition                    Initial Value    Approx d2E/dq
    -----------------------------------------------------------------
      1. B(O   4,C   0)                  1.2347         0.990181   
      2. B(C   5,H   1)                  1.0922         0.357196   
      3. B(C   5,C   0)                  1.5128         0.397931   
      4. B(C   5,H   3)                  1.0929         0.356332   
      5. B(C   5,H   2)                  1.0896         0.360636   
      6. B(C   7,N   6)                  1.4533         0.443527   
      7. B(H   8,C   7)                  1.0956         0.352772   
      8. B(H   9,C   7)                  1.0945         0.354184   
      9. B(H  10,C   7)                  1.0876         0.363255   
     10. B(C  11,N   6)                  1.4555         0.439916   
     11. B(H  12,C  11)                  1.0956         0.352709   
     12. B(H  13,C  11)                  1.0951         0.353451   
     13. B(H  14,C  11)                  1.0889         0.361555   
     14. B(N  15,C   0)                  1.3856         0.568762   
     15. B(C  16,N  15)                  1.4585         0.435021   
     16. B(H  17,C  16)                  1.0963         0.351831   
     17. B(H  18,C  16)                  1.0958         0.352567   
     18. B(C  19,N  15)                  1.4589         0.434403   
     19. B(H  20,C  19)                  1.0871         0.364000   
     20. B(H  21,C  19)                  1.0962         0.352012   
     21. B(H  22,C  19)                  1.0940         0.354908   
     22. B(C  23,C  16)                  1.5308         0.372443   
     23. B(C  23,N   6)                  1.3651         0.613091   
     24. B(O  24,C  23)                  1.2366         0.983078   
     25. A(O   4,C   0,N  15)          121.2209         0.459055   
     26. A(C   5,C   0,N  15)          117.3602         0.392561   
     27. A(O   4,C   0,C   5)          121.3779         0.433147   
     28. A(H   1,C   5,H   3)          107.3409         0.289991   
     29. A(C   0,C   5,H   2)          106.8800         0.327787   
     30. A(H   1,C   5,H   2)          109.8590         0.290538   
     31. A(C   0,C   5,H   1)          113.0415         0.327270   
     32. A(H   2,C   5,H   3)          108.9938         0.290427   
     33. A(C   0,C   5,H   3)          110.6840         0.327139   
     34. A(C  11,N   6,C  23)          118.7058         0.402253   
     35. A(C   7,N   6,C  11)          115.8123         0.380119   
     36. A(C   7,N   6,C  23)          125.4766         0.402833   
     37. A(H   9,C   7,H  10)          108.0166         0.290482   
     38. A(N   6,C   7,H   9)          108.1958         0.330720   
     39. A(H   8,C   7,H  10)          108.6738         0.290299   
     40. A(N   6,C   7,H  10)          111.0862         0.332107   
     41. A(H   8,C   7,H   9)          108.8381         0.289151   
     42. A(N   6,C   7,H   8)          111.9300         0.330501   
     43. A(N   6,C  11,H  12)          110.4852         0.330045   
     44. A(H  13,C  11,H  14)          109.9593         0.290173   
     45. A(H  12,C  11,H  14)          109.3969         0.290078   
     46. A(N   6,C  11,H  14)          108.2581         0.331400   
     47. A(H  12,C  11,H  13)          108.7812         0.289049   
     48. A(N   6,C  11,H  13)          109.9519         0.330159   
     49. A(C  16,N  15,C  19)          116.4121         0.378020   
     50. A(C   0,N  15,C  19)          116.8074         0.396099   
     51. A(C   0,N  15,C  16)          122.3436         0.396197   
     52. A(H  17,C  16,H  18)          106.9193         0.288823   
     53. A(N  15,C  16,H  18)          107.1574         0.329413   
     54. A(N  15,C  16,H  17)          112.6534         0.329300   
     55. A(H  17,C  16,C  23)          105.3140         0.322924   
     56. A(N  15,C  16,C  23)          116.0269         0.370442   
     57. A(H  18,C  16,C  23)          108.3799         0.323035   
     58. A(H  20,C  19,H  21)          108.8953         0.290294   
     59. A(N  15,C  19,H  21)          111.4962         0.329250   
     60. A(N  15,C  19,H  20)          108.2784         0.331078   
     61. A(H  21,C  19,H  22)          108.7019         0.289145   
     62. A(H  20,C  19,H  22)          109.8252         0.290668   
     63. A(N  15,C  19,H  22)          109.6290         0.329696   
     64. A(C  16,C  23,O  24)          119.1261         0.427478   
     65. A(N   6,C  23,O  24)          123.0578         0.464782   
     66. A(N   6,C  23,C  16)          117.8091         0.393170   
     67. D(H   2,C   5,C   0,N  15)   -171.7506         0.011757   
     68. D(H   2,C   5,C   0,O   4)     10.5522         0.011757   
     69. D(H   1,C   5,C   0,N  15)    -50.7637         0.011757   
     70. D(H   3,C   5,C   0,O   4)   -108.0103         0.011757   
     71. D(H   3,C   5,C   0,N  15)     69.6869         0.011757   
     72. D(H   1,C   5,C   0,O   4)    131.5391         0.011757   
     73. D(H   8,C   7,N   6,C  11)    -81.0716         0.016776   
     74. D(H  10,C   7,N   6,C  23)    -23.6009         0.016776   
     75. D(H   9,C   7,N   6,C  11)     38.8452         0.016776   
     76. D(H   8,C   7,N   6,C  23)     98.0786         0.016776   
     77. D(H  10,C   7,N   6,C  11)    157.2489         0.016776   
     78. D(H   9,C   7,N   6,C  23)   -142.0047         0.016776   
     79. D(H  13,C  11,N   6,C   7)     55.2792         0.016502   
     80. D(H  12,C  11,N   6,C  23)    115.9851         0.016502   
     81. D(H  12,C  11,N   6,C   7)    -64.8039         0.016502   
     82. D(H  14,C  11,N   6,C  23)     -3.7886         0.016502   
     83. D(H  14,C  11,N   6,C   7)    175.4224         0.016502   
     84. D(H  13,C  11,N   6,C  23)   -123.9318         0.016502   
     85. D(C  19,N  15,C   0,C   5)    171.5524         0.025882   
     86. D(C  16,N  15,C   0,C   5)     16.0633         0.025882   
     87. D(C  16,N  15,C   0,O   4)   -166.2357         0.025882   
     88. D(C  19,N  15,C   0,O   4)    -10.7466         0.025882   
     89. D(C  23,C  16,N  15,C  19)    141.8901         0.016135   
     90. D(C  23,C  16,N  15,C   0)    -62.5306         0.016135   
     91. D(H  18,C  16,N  15,C  19)     20.6916         0.016135   
     92. D(H  18,C  16,N  15,C   0)    176.2709         0.016135   
     93. D(H  17,C  16,N  15,C  19)    -96.6241         0.016135   
     94. D(H  17,C  16,N  15,C   0)     58.9551         0.016135   
     95. D(H  21,C  19,N  15,C   0)    -91.2245         0.016089   
     96. D(H  20,C  19,N  15,C  16)   -174.4860         0.016089   
     97. D(H  20,C  19,N  15,C   0)     28.5526         0.016089   
     98. D(H  22,C  19,N  15,C  16)    -54.6835         0.016089   
     99. D(H  22,C  19,N  15,C   0)    148.3552         0.016089   
    100. D(H  21,C  19,N  15,C  16)     65.7369         0.016089   
    101. D(O  24,C  23,C  16,H  18)   -109.8065         0.010378   
    102. D(O  24,C  23,C  16,N  15)    129.6503         0.010378   
    103. D(N   6,C  23,C  16,H  18)     69.2647         0.010378   
    104. D(N   6,C  23,C  16,H  17)   -176.5968         0.010378   
    105. D(N   6,C  23,C  16,N  15)    -51.2785         0.010378   
    106. D(O  24,C  23,N   6,C  11)     -5.9842         0.030384   
    107. D(O  24,C  23,N   6,C   7)    174.8880         0.030384   
    108. D(O  24,C  23,C  16,H  17)      4.3320         0.010378   
    109. D(C  16,C  23,N   6,C  11)    174.9838         0.030384   
    110. D(C  16,C  23,N   6,C   7)     -4.1440         0.030384   
    -----------------------------------------------------------------

Number of atoms                         .... 25
Number of degrees of freedom            .... 110

         *************************************************************
         *                GEOMETRY OPTIMIZATION CYCLE   1            *
         *************************************************************
---------------------------------
CARTESIAN COORDINATES (ANGSTROEM)
---------------------------------
  C     -1.739000    0.622000   -0.433000
  H     -0.623000    2.285000    0.441000
  H     -1.533000    2.622000   -1.058000
  H     -0.006000    1.715000   -1.106000
  O     -2.794000    0.487000   -1.060000
  C     -0.920000    1.890000   -0.533000
  N      1.713000   -0.436000   -0.275000
  C      1.161000   -1.660000   -0.831000
  H      0.575000   -1.470000   -1.737000
  H      1.992000   -2.327000   -1.081000
  H      0.528000   -2.168000   -0.107000
  C      2.932000    0.052000   -0.903000
  H      3.753000   -0.657000   -0.749000
  H      2.773000    0.179000   -1.979000
  H      3.190000    1.008000   -0.450000
  N     -1.234000   -0.402000    0.352000
  C     -0.168000   -0.187000    1.324000
  H     -0.434000    0.556000    2.085000
  H     -0.011000   -1.137000    1.847000
  C     -2.114000   -1.540000    0.595000
  H     -2.790000   -1.635000   -0.251000
  H     -2.705000   -1.403000    1.508000
  H     -1.517000   -2.451000    0.697000
  C      1.175000    0.279000    0.756000
  O      1.730000    1.265000    1.255000

----------------------------
CARTESIAN COORDINATES (A.U.)
----------------------------
  NO LB      ZA    FRAG     MASS         X           Y           Z
   0 C     6.0000    0    12.011   -3.286234    1.175410   -0.818251
   1 H     1.0000    0     1.008   -1.177299    4.318024    0.833369
   2 H     1.0000    0     1.008   -2.896950    4.954862   -1.999330
   3 H     1.0000    0     1.008   -0.011338    3.240880   -2.090037
   4 O     8.0000    0    15.999   -5.279895    0.920297   -2.003110
   5 C     6.0000    0    12.011   -1.738548    3.571582   -1.007224
   6 N     7.0000    0    14.007    3.237101   -0.823921   -0.519675
   7 C     6.0000    0    12.011    2.193972   -3.136945   -1.570362
   8 H     1.0000    0     1.008    1.086593   -2.777897   -3.282454
   9 H     1.0000    0     1.008    3.764334   -4.397393   -2.042794
  10 H     1.0000    0     1.008    0.997775   -4.096926   -0.202201
  11 C     6.0000    0    12.011    5.540677    0.098266   -1.706423
  12 H     1.0000    0     1.008    7.092142   -1.241550   -1.415405
  13 H     1.0000    0     1.008    5.240211    0.338261   -3.739768
  14 H     1.0000    0     1.008    6.028226    1.904844   -0.850377
  15 N     7.0000    0    14.007   -2.331922   -0.759670    0.665184
  16 C     6.0000    0    12.011   -0.317474   -0.353379    2.501997
  17 H     1.0000    0     1.008   -0.820141    1.050688    3.940079
  18 H     1.0000    0     1.008   -0.020787   -2.148619    3.490324
  19 C     6.0000    0    12.011   -3.994881   -2.910178    1.124387
  20 H     1.0000    0     1.008   -5.272336   -3.089702   -0.474321
  21 H     1.0000    0     1.008   -5.111709   -2.651286    2.849707
  22 H     1.0000    0     1.008   -2.866715   -4.631719    1.317139
  23 C     6.0000    0    12.011    2.220428    0.527234    1.428633
  24 O     8.0000    0    15.999    3.269226    2.390504    2.371606

--------------------------------
INTERNAL COORDINATES (ANGSTROEM)
--------------------------------
 C      0   0   0     0.000000000000     0.00000000     0.00000000
 H      1   0   0     2.185154685600     0.00000000     0.00000000
 H      2   1   0     1.785684742613    63.10237182     0.00000000
 H      2   1   3     1.760340308009    65.23371516   292.39133669
 O      1   2   3     1.234657442370   136.28086181   326.53151185
 C      3   2   1     1.089595337729    35.11860885   321.45859003
 N      4   2   1     2.876164633675   101.40451667   274.22163788
 C      7   4   2     1.453277674775   106.99749869   116.48067502
 H      8   7   4     1.095596641105   111.93004377    25.97944592
 H      8   7   4     1.094509022347   108.19575726   145.89617751
 H      8   7   4     1.087625395069   111.08621649   264.29995671
 C      7   4   2     1.455503005837    97.18933232   236.31414826
 H     12   7   4     1.095645015505   110.48520123   182.34635542
 H     12   7   4     1.095073513514   109.95192088   302.42948868
 H     12   7   4     1.088902658643   108.25808310    62.57272489
 N      1   2   3     1.385577857791    98.60944618   170.05855423
 C     16   1   2     1.458548936443   122.34360220   354.94374969
 H     17  16   1     1.096323857261   112.65344007    58.95509168
 H     17  16   1     1.095754534556   107.15737134   176.27087754
 C     16   1   2     1.458935570887   116.80737074   150.43288364
 H     20  16   1     1.087068075145   108.27838092    28.55264314
 H     20  16   1     1.096183834947   111.49621362   268.77547562
 H     20  16   1     1.093953381091   109.62899397   148.35516686
 C      7   4   2     1.365148343588    65.85585854   354.60761050
 O     24   7   4     1.236617159836   123.05780666   269.12777931

---------------------------
INTERNAL COORDINATES (A.U.)
---------------------------
 C      0   0   0     0.000000000000     0.00000000     0.00000000
 H      1   0   0     4.129343916039     0.00000000     0.00000000
 H      2   1   0     3.374455125060    63.10237182     0.00000000
 H      2   1   3     3.326561084639    65.23371516   292.39133669
 O      1   2   3     2.333164435287   136.28086181   326.53151185
 C      3   2   1     2.059036785105    35.11860885   321.45859003
 N      4   2   1     5.435163473715   101.40451667   274.22163788
 C      7   4   2     2.746296801867   106.99749869   116.48067502
 H      8   7   4     2.070377604932   111.93004377    25.97944592
 H      8   7   4     2.068322303343   108.19575726   145.89617751
 H      8   7   4     2.055314132979   111.08621649   264.29995671
 C      7   4   2     2.750502068131    97.18933232   236.31414826
 H     12   7   4     2.070469019300   110.48520123   182.34635542
 H     12   7   4     2.069389037052   109.95192088   302.42948868
 H     12   7   4     2.057727811334   108.25808310    62.57272489
 N      1   2   3     2.618362688450    98.60944618   170.05855423
 C     16   1   2     2.756258042800   122.34360220   354.94374969
 H     17  16   1     2.071751844308   112.65344007    58.95509168
 H     17  16   1     2.070675980313   107.15737134   176.27087754
 C     16   1   2     2.756988676013   116.80737074   150.43288364
 H     20  16   1     2.054260950953   108.27838092    28.55264314
 H     20  16   1     2.071487240482   111.49621362   268.77547562
 H     20  16   1     2.067272293539   109.62899397   148.35516686
 C      7   4   2     2.579756501557    65.85585854   354.60761050
 O     24   7   4     2.336867764597   123.05780666   269.12777931

---------------------
BASIS SET INFORMATION
---------------------
There are 4 groups of distinct atoms

 Group   1 Type C   : 10s4p1d contracted to 3s2p1d pattern {631/31/1}
 Group   2 Type H   : 4s contracted to 2s pattern {31}
 Group   3 Type O   : 10s4p1d contracted to 3s2p1d pattern {631/31/1}
 Group   4 Type N   : 10s4p1d contracted to 3s2p1d pattern {631/31/1}

Atom   0C    basis set group =>   1
Atom   1H    basis set group =>   2
Atom   2H    basis set group =>   2
Atom   3H    basis set group =>   2
Atom   4O    basis set group =>   3
Atom   5C    basis set group =>   1
Atom   6N    basis set group =>   4
Atom   7C    basis set group =>   1
Atom   8H    basis set group =>   2
Atom   9H    basis set group =>   2
Atom  10H    basis set group =>   2
Atom  11C    basis set group =>   1
Atom  12H    basis set group =>   2
Atom  13H    basis set group =>   2
Atom  14H    basis set group =>   2
Atom  15N    basis set group =>   4
Atom  16C    basis set group =>   1
Atom  17H    basis set group =>   2
Atom  18H    basis set group =>   2
Atom  19C    basis set group =>   1
Atom  20H    basis set group =>   2
Atom  21H    basis set group =>   2
Atom  22H    basis set group =>   2
Atom  23C    basis set group =>   1
Atom  24O    basis set group =>   3
---------------------------------
AUXILIARY/J BASIS SET INFORMATION
---------------------------------
There are 4 groups of distinct atoms

 Group   1 Type C   : 13s11p10d2f contracted to 13s11p10d2f pattern {1111111111111/11111111111/1111111111/11}
 Group   2 Type H   : 9s2p contracted to 9s2p pattern {111111111/11}
 Group   3 Type O   : 14s11p10d2f contracted to 14s11p10d2f pattern {11111111111111/11111111111/1111111111/11}
 Group   4 Type N   : 14s11p10d2f contracted to 14s11p10d2f pattern {11111111111111/11111111111/1111111111/11}

Atom   0C    basis set group =>   1
Atom   1H    basis set group =>   2
Atom   2H    basis set group =>   2
Atom   3H    basis set group =>   2
Atom   4O    basis set group =>   3
Atom   5C    basis set group =>   1
Atom   6N    basis set group =>   4
Atom   7C    basis set group =>   1
Atom   8H    basis set group =>   2
Atom   9H    basis set group =>   2
Atom  10H    basis set group =>   2
Atom  11C    basis set group =>   1
Atom  12H    basis set group =>   2
Atom  13H    basis set group =>   2
Atom  14H    basis set group =>   2
Atom  15N    basis set group =>   4
Atom  16C    basis set group =>   1
Atom  17H    basis set group =>   2
Atom  18H    basis set group =>   2
Atom  19C    basis set group =>   1
Atom  20H    basis set group =>   2
Atom  21H    basis set group =>   2
Atom  22H    basis set group =>   2
Atom  23C    basis set group =>   1
Atom  24O    basis set group =>   3
---------------------------------
AUXILIARY/C BASIS SET INFORMATION
---------------------------------
There are 4 groups of distinct atoms

 Group   1 Type C   : 13s11p10d2f contracted to 13s11p10d2f pattern {1111111111111/11111111111/1111111111/11}
 Group   2 Type H   : 9s2p contracted to 9s2p pattern {111111111/11}
 Group   3 Type O   : 14s11p10d2f contracted to 14s11p10d2f pattern {11111111111111/11111111111/1111111111/11}
 Group   4 Type N   : 14s11p10d2f contracted to 14s11p10d2f pattern {11111111111111/11111111111/1111111111/11}

Atom   0C    basis set group =>   1
Atom   1H    basis set group =>   2
Atom   2H    basis set group =>   2
Atom   3H    basis set group =>   2
Atom   4O    basis set group =>   3
Atom   5C    basis set group =>   1
Atom   6N    basis set group =>   4
Atom   7C    basis set group =>   1
Atom   8H    basis set group =>   2
Atom   9H    basis set group =>   2
Atom  10H    basis set group =>   2
Atom  11C    basis set group =>   1
Atom  12H    basis set group =>   2
Atom  13H    basis set group =>   2
Atom  14H    basis set group =>   2
Atom  15N    basis set group =>   4
Atom  16C    basis set group =>   1
Atom  17H    basis set group =>   2
Atom  18H    basis set group =>   2
Atom  19C    basis set group =>   1
Atom  20H    basis set group =>   2
Atom  21H    basis set group =>   2
Atom  22H    basis set group =>   2
Atom  23C    basis set group =>   1
Atom  24O    basis set group =>   3
----------------------------------
AUXILIARY/JK BASIS SET INFORMATION
----------------------------------
There are 4 groups of distinct atoms

 Group   1 Type C   : 13s11p10d2f contracted to 13s11p10d2f pattern {1111111111111/11111111111/1111111111/11}
 Group   2 Type H   : 9s2p contracted to 9s2p pattern {111111111/11}
 Group   3 Type O   : 14s11p10d2f contracted to 14s11p10d2f pattern {11111111111111/11111111111/1111111111/11}
 Group   4 Type N   : 14s11p10d2f contracted to 14s11p10d2f pattern {11111111111111/11111111111/1111111111/11}

Atom   0C    basis set group =>   1
Atom   1H    basis set group =>   2
Atom   2H    basis set group =>   2
Atom   3H    basis set group =>   2
Atom   4O    basis set group =>   3
Atom   5C    basis set group =>   1
Atom   6N    basis set group =>   4
Atom   7C    basis set group =>   1
Atom   8H    basis set group =>   2
Atom   9H    basis set group =>   2
Atom  10H    basis set group =>   2
Atom  11C    basis set group =>   1
Atom  12H    basis set group =>   2
Atom  13H    basis set group =>   2
Atom  14H    basis set group =>   2
Atom  15N    basis set group =>   4
Atom  16C    basis set group =>   1
Atom  17H    basis set group =>   2
Atom  18H    basis set group =>   2
Atom  19C    basis set group =>   1
Atom  20H    basis set group =>   2
Atom  21H    basis set group =>   2
Atom  22H    basis set group =>   2
Atom  23C    basis set group =>   1
Atom  24O    basis set group =>   3


           ************************************************************
           *        Program running with 4 parallel MPI-processes     *
           *              working on a common directory               *
           ************************************************************
------------------------------------------------------------------------------
                           ORCA GTO INTEGRAL CALCULATION
                           -- RI-GTO INTEGRALS CHOSEN --
------------------------------------------------------------------------------
------------------------------------------------------------------------------
                   ___                                                        
                  /   \      - P O W E R E D   B Y -                         
                 /     \                                                     
                 |  |  |   _    _      __       _____    __    __             
                 |  |  |  | |  | |    /  \     |  _  \  |  |  /  |          
                  \  \/   | |  | |   /    \    | | | |  |  | /  /          
                 / \  \   | |__| |  /  /\  \   | |_| |  |  |/  /          
                |  |  |   |  __  | /  /__\  \  |    /   |      \           
                |  |  |   | |  | | |   __   |  |    \   |  |\   \          
                \     /   | |  | | |  |  |  |  | |\  \  |  | \   \       
                 \___/    |_|  |_| |__|  |__|  |_| \__\ |__|  \__/        
                                                                              
                      - O R C A' S   B I G   F R I E N D -                    
                                      &                                       
                       - I N T E G R A L  F E E D E R -                       
                                                                              
 v1 FN, 2020, v2 2021                                                         
------------------------------------------------------------------------------


Reading SHARK input file Na_octanol.SHARKINP.tmp ... ok
----------------------
SHARK INTEGRAL PACKAGE
----------------------

Number of atoms                             ...     25
Number of basis functions                   ...    182
Number of shells                            ...     94
Maximum angular momentum                    ...      2
Integral batch strategy                     ... SHARK/LIBINT Hybrid
RI-J (if used) integral strategy            ... SPLIT-RIJ (Revised 2003 algorithm where possible)
Printlevel                                  ...      1
Contraction scheme used                     ... SEGMENTED contraction
Coulomb Range Separation                    ... NOT USED
Exchange Range Separation                   ... NOT USED
Finite Nucleus Model                        ... NOT USED
Auxiliary Coulomb fitting basis             ... AVAILABLE
   # of basis functions in Aux-J            ...   1424
   # of shells in Aux-J                     ...    554
   Maximum angular momentum in Aux-J        ...      3
Auxiliary J/K fitting basis                 ... AVAILABLE
   # of basis functions in Aux-JK           ...   1424
   # of shells in Aux-JK                    ...    554
   Maximum angular momentum in Aux-JK       ...      3
Auxiliary Correlation fitting basis         ... AVAILABLE
   # of basis functions in Aux-C            ...   1424
   # of shells in Aux-C                     ...    554
   Maximum angular momentum in Aux-C        ...      3
Auxiliary 'external' fitting basis          ... NOT available
Integral threshold                          ...     2.500000e-11
Primitive cut-off                           ...     2.500000e-12
Primitive pair pre-selection threshold      ...     2.500000e-12

Calculating pre-screening integrals         ... done (  0.1 sec) Dimension = 94
Organizing shell pair data                  ... done (  0.0 sec)
Shell pair information
Total number of shell pairs                 ...      4465
Shell pairs after pre-screening             ...      4109
Total number of primitive shell pairs       ...     24804
Primitive shell pairs kept                  ...     14171
          la=0 lb=0:   1686 shell pairs
          la=1 lb=0:   1281 shell pairs
          la=1 lb=1:    250 shell pairs
          la=2 lb=0:    596 shell pairs
          la=2 lb=1:    233 shell pairs
          la=2 lb=2:     63 shell pairs

Calculating one electron integrals          ... done (  0.0 sec)
Calculating RI/J V-Matrix + Cholesky decomp.... done (  0.3 sec)
Calculating RI/JK V-Matrix + Cholesky decomp... done (  0.1 sec)
Calculating RI/C V-Matrix + Cholesky decomp.... done (  0.3 sec)
Calculating Nuclear repulsion               ... done (  0.0 sec) ENN=    676.666068432552 Eh

SHARK setup successfully completed in   1.4 seconds

Maximum memory used throughout the entire GTOINT-calculation: 19.8 MB


           ************************************************************
           *        Program running with 4 parallel MPI-processes     *
           *              working on a common directory               *
           ************************************************************
-------------------------------------------------------------------------------
                                 ORCA SCF
-------------------------------------------------------------------------------

------------
SCF SETTINGS
------------
Hamiltonian:
 Density Functional     Method          .... DFT(GTOs)
 Exchange Functional    Exchange        .... B88
   X-Alpha parameter    XAlpha          ....  0.666667
   Becke's b parameter  XBeta           ....  0.004200
 Correlation Functional Correlation     .... LYP
 LDA part of GGA corr.  LDAOpt          .... VWN-5
 Gradients option       PostSCFGGA      .... off
 Hybrid DFT is turned on
   Fraction HF Exchange ScalHFX         ....  0.200000
   Scaling of DF-GGA-X  ScalDFX         ....  0.720000
   Scaling of DF-GGA-C  ScalDFC         ....  0.810000
   Scaling of DF-LDA-C  ScalLDAC        ....  1.000000
   Perturbative correction              ....  0.000000
   Density functional embedding theory  .... OFF
   NL short-range parameter             ....  4.800000
 RI-approximation to the Coulomb term is turned on
   Number of AuxJ basis functions       .... 1424
   RIJ-COSX (HFX calculated with COS-X)).... on


General Settings:
 Integral files         IntName         .... Na_octanol
 Hartree-Fock type      HFTyp           .... RHF
 Total Charge           Charge          ....    0
 Multiplicity           Mult            ....    1
 Number of Electrons    NEL             ....   86
 Basis Dimension        Dim             ....  182
 Nuclear Repulsion      ENuc            ....    676.6660684326 Eh

Convergence Acceleration:
 DIIS                   CNVDIIS         .... on
   Start iteration      DIISMaxIt       ....    12
   Startup error        DIISStart       ....  0.200000
   # of expansion vecs  DIISMaxEq       ....     5
   Bias factor          DIISBfac        ....   1.050
   Max. coefficient     DIISMaxC        ....  10.000
 Trust-Rad. Augm. Hess. CNVTRAH         .... auto
   Auto Start mean grad. ratio tolernc. ....  1.125000
   Auto Start start iteration           ....    20
   Auto Start num. interpolation iter.  ....    10
   Max. Number of Micro iterations      ....    16
   Max. Number of Macro iterations      .... Maxiter - #DIIS iter
   Number of Davidson start vectors     ....     2
   Converg. threshold I  (grad. norm)   ....   1.000e-05
   Converg. threshold II (energy diff.) ....   1.000e-08
   Grad. Scal. Fac. for Micro threshold ....   0.100
   Minimum threshold for Micro iter.    ....   0.010
   NR start threshold (gradient norm)   ....   0.001
   Initial trust radius                 ....   0.400
   Minimum AH scaling param. (alpha)    ....   1.000
   Maximum AH scaling param. (alpha)    .... 1000.000
   Orbital update algorithm             .... Taylor
   White noise on init. David. guess    .... on
   Maximum white noise                  ....   0.010
   Quad. conv. algorithm                .... NR
 SOSCF                  CNVSOSCF        .... on
   Start iteration      SOSCFMaxIt      ....   150
   Startup grad/error   SOSCFStart      ....  0.003300
 Level Shifting         CNVShift        .... on
   Level shift para.    LevelShift      ....    0.2500
   Turn off err/grad.   ShiftErr        ....    0.0010
 Zerner damping         CNVZerner       .... off
 Static damping         CNVDamp         .... on
   Fraction old density DampFac         ....    0.7000
   Max. Damping (<1)    DampMax         ....    0.9800
   Min. Damping (>=0)   DampMin         ....    0.0000
   Turn off err/grad.   DampErr         ....    0.1000
 Fernandez-Rico         CNVRico         .... off

SCF Procedure:
 Maximum # iterations   MaxIter         ....   125
 SCF integral mode      SCFMode         .... Direct
   Integral package                     .... SHARK and LIBINT hybrid scheme
 Reset frequency        DirectResetFreq ....    20
 Integral Threshold     Thresh          ....  2.500e-11 Eh
 Primitive CutOff       TCut            ....  2.500e-12 Eh

Convergence Tolerance:
 Convergence Check Mode ConvCheckMode   .... Total+1el-Energy
 Convergence forced     ConvForced      .... 0
 Energy Change          TolE            ....  1.000e-08 Eh
 1-El. energy change                    ....  1.000e-05 Eh
 Orbital Gradient       TolG            ....  1.000e-05
 Orbital Rotation angle TolX            ....  1.000e-05
 DIIS Error             TolErr          ....  5.000e-07


Diagonalization of the overlap matrix:
Smallest eigenvalue                        ... 3.543e-03
Time for diagonalization                   ...    0.105 sec
Threshold for overlap eigenvalues          ... 1.000e-08
Number of eigenvalues below threshold      ... 0
Time for construction of square roots      ...    0.010 sec
Total time needed                          ...    0.115 sec

Time for model grid setup =    0.173 sec

------------------------------
INITIAL GUESS: MODEL POTENTIAL
------------------------------
Loading Hartree-Fock densities                     ... done
Calculating cut-offs                               ... done
Initializing the effective Hamiltonian             ... done
Setting up the integral package (SHARK)            ... done
Starting the Coulomb interaction                   ... done (   0.1 sec)
Reading the grid                                   ... done
Mapping shells                                     ... done
Starting the XC term evaluation                    ... done (   0.1 sec)
  promolecular density results
     # of electrons  =     86.000514786
     EX              =    -69.705765237
     EC              =     -2.901374787
     EX+EC           =    -72.607140023
Transforming the Hamiltonian                       ... done (   0.0 sec)
Diagonalizing the Hamiltonian                      ... done (   0.0 sec)
Back transforming the eigenvectors                 ... done (   0.0 sec)
Now organizing SCF variables                       ... done
                      ------------------
                      INITIAL GUESS DONE (   0.4 sec)
                      ------------------
-------------------
DFT GRID GENERATION
-------------------

General Integration Accuracy     IntAcc      ... 4.388
Radial Grid Type                 RadialGrid  ... OptM3 with GC (2021)
Angular Grid (max. ang.)         AngularGrid ... 4 (Lebedev-302)
Angular grid pruning method      GridPruning ... 4 (adaptive)
Weight generation scheme         WeightScheme... Becke
Basis function cutoff            BFCut       ... 1.0000e-11
Integration weight cutoff        WCut        ... 1.0000e-14
Angular grids for H and He will be reduced by one unit
Partially contracted basis set               ... off
Rotationally invariant grid construction     ... off

Total number of grid points                  ...   110730
Total number of batches                      ...     1742
Average number of points per batch           ...       63
Average number of grid points per atom       ...     4429
Time for grid setup =    0.755 sec

--------------------
COSX GRID GENERATION
--------------------

GRIDX 1
-------
General Integration Accuracy     IntAcc      ... 3.816
Radial Grid Type                 RadialGrid  ... OptM3 with GC (2021)
Angular Grid (max. ang.)         AngularGrid ... 1 (Lebedev-50)
Angular grid pruning method      GridPruning ... 4 (adaptive)
Weight generation scheme         WeightScheme... Becke
Basis function cutoff            BFCut       ... 1.0000e-11
Integration weight cutoff        WCut        ... 1.0000e-14
Angular grids for H and He will be reduced by one unit
Partially contracted basis set               ... on
Rotationally invariant grid construction     ... off

Total number of grid points                  ...    14124
Total number of batches                      ...      235
Average number of points per batch           ...       60
Average number of grid points per atom       ...      565
UseSFitting                                  ... on

GRIDX 2
-------
General Integration Accuracy     IntAcc      ... 4.020
Radial Grid Type                 RadialGrid  ... OptM3 with GC (2021)
Angular Grid (max. ang.)         AngularGrid ... 2 (Lebedev-110)
Angular grid pruning method      GridPruning ... 4 (adaptive)
Weight generation scheme         WeightScheme... Becke
Basis function cutoff            BFCut       ... 1.0000e-11
Integration weight cutoff        WCut        ... 1.0000e-14
Angular grids for H and He will be reduced by one unit
Partially contracted basis set               ... on
Rotationally invariant grid construction     ... off

Total number of grid points                  ...    29966
Total number of batches                      ...      480
Average number of points per batch           ...       62
Average number of grid points per atom       ...     1199
UseSFitting                                  ... on

GRIDX 3
-------
General Integration Accuracy     IntAcc      ... 4.338
Radial Grid Type                 RadialGrid  ... OptM3 with GC (2021)
Angular Grid (max. ang.)         AngularGrid ... 3 (Lebedev-194)
Angular grid pruning method      GridPruning ... 4 (adaptive)
Weight generation scheme         WeightScheme... Becke
Basis function cutoff            BFCut       ... 1.0000e-11
Integration weight cutoff        WCut        ... 1.0000e-14
Angular grids for H and He will be reduced by one unit
Partially contracted basis set               ... on
Rotationally invariant grid construction     ... off

Total number of grid points                  ...    65395
Total number of batches                      ...     1035
Average number of points per batch           ...       63
Average number of grid points per atom       ...     2616
UseSFitting                                  ... on

Time for X-Grid setup             =    2.049 sec


--------------------
CPCM SOLVATION MODEL
--------------------
CPCM parameters:
  Epsilon                                         ...       9.8629
  Refrac                                          ...       1.4295
  Rsolv                                           ...       1.3000
  Surface type                                    ... GAUSSIAN VDW
  Epsilon function type                           ...         CPCM
Radii:
 Radius for C  used is    3.8550 Bohr (=   2.0400 Ang.)
 Radius for H  used is    2.4944 Bohr (=   1.3200 Ang.)
 Radius for O  used is    3.4469 Bohr (=   1.8240 Ang.)
 Radius for N  used is    3.5149 Bohr (=   1.8600 Ang.)
Calculating surface                               ...        done! (  0.0s)
GEPOL surface points                              ...         1340
GEPOL Volume                                      ...    1372.6501
GEPOL Surface-area                                ...     747.6263
Calculating surface distance matrix               ...        done! (  0.0s)
Performing Cholesky decomposition & store         ...        done! (  0.1s)
Overall time for CPCM initialization              ...                 0.1s
--------------
SCF ITERATIONS
--------------
ITER       Energy         Delta-E        Max-DP      RMS-DP      [F,P]     Damp
               ***  Starting incremental Fock matrix formation  ***
  0   -534.4761668101   0.000000000000 0.09190564  0.00255526  0.2711482 0.7000
  1   -534.6411180461  -0.164951235976 0.05144910  0.00166092  0.1074372 0.7000
                               ***Turning on DIIS***
  2   -534.7028238062  -0.061705760112 0.06558791  0.00250088  0.0397267 0.0000
  3   -534.8047311802  -0.101907374002 0.03461847  0.00113260  0.0554934 0.0000
  4   -534.8243042482  -0.019573067999 0.00922067  0.00036533  0.0127701 0.0000
  5   -534.8258386863  -0.001534438088 0.00279385  0.00010682  0.0040791 0.0000
                      *** Initiating the SOSCF procedure ***
                           *** Shutting down DIIS ***
                      *** Re-Reading the Fockian *** 
                      *** Removing any level shift *** 
ITER      Energy       Delta-E        Grad      Rot      Max-DP    RMS-DP
  6   -534.82590624  -0.0000675543  0.000226  0.000226  0.001234  0.000048
               *** Restarting incremental Fock matrix formation ***
  7   -534.82592944  -0.0000231969  0.000217  0.000846  0.001265  0.000029
  8   -534.82592559   0.0000038498  0.000442  0.000627  0.000817  0.000018
  9   -534.82593150  -0.0000059170  0.000053  0.000146  0.000250  0.000006
 10   -534.82593130   0.0000002005  0.000105  0.000096  0.000173  0.000004
 11   -534.82593157  -0.0000002674  0.000003  0.000003  0.000013  0.000000
 12   -534.82593157  -0.0000000010  0.000003  0.000002  0.000007  0.000000
                  ***Gradient check signals convergence***
              ***Rediagonalizing the Fockian in SOSCF/NRSCF***

               *****************************************************
               *                     SUCCESS                       *
               *           SCF CONVERGED AFTER  13 CYCLES          *
               *****************************************************

Old exchange energy                            =    -14.205251861 Eh
New exchange energy                            =    -14.205238473 Eh
Exchange energy change after final integration =      0.000013388 Eh
Total energy after final integration           =   -534.825918188 Eh
Final COS-X integration done in                =     5.400 sec

----------------
TOTAL SCF ENERGY
----------------

Total Energy       :         -534.82591819 Eh          -14553.35311 eV

Components:
Nuclear Repulsion  :          676.66606843 Eh           18413.01982 eV
Electronic Energy  :        -1211.49198662 Eh          -32966.37293 eV
One Electron Energy:        -2069.48540749 Eh          -56313.56086 eV
Two Electron Energy:          857.99342087 Eh           23347.18793 eV
Max COSX asymmetry :            0.00000249 Eh               0.00007 eV
CPCM Dielectric    :           -0.01862674 Eh              -0.50686 eV

Virial components:
Potential Energy   :        -1066.48070580 Eh          -29020.41537 eV
Kinetic Energy     :          531.65478761 Eh           14467.06226 eV
Virial Ratio       :            2.00596464


DFT components:
N(Alpha)           :       42.999971396046 electrons
N(Beta)            :       42.999971396046 electrons
N(Total)           :       85.999942792092 electrons
E(X)               :      -56.419099328437 Eh       
E(C)               :       -3.420975989128 Eh       
E(XC)              :      -59.840075317565 Eh       
DFET-embed. en.    :        0.000000000000 Eh       
CPCM Solvation Model Properties:
Surface-charge          :           -0.01776853
Charge-correction       :           -0.00018463 Eh              -0.00502 eV
Free-energy (cav+disp)  :  This term is not implemented in the current solvation scheme

---------------
SCF CONVERGENCE
---------------

  Last Energy change         ...   -2.8040e-09  Tolerance :   1.0000e-08
  Last MAX-Density change    ...    2.2204e-15  Tolerance :   1.0000e-07
  Last RMS-Density change    ...    4.8897e-17  Tolerance :   5.0000e-09
  Last Orbital Gradient      ...    5.6710e-07  Tolerance :   1.0000e-05
  Last Orbital Rotation      ...    2.0486e-06  Tolerance :   1.0000e-05

             **** THE GBW FILE WAS UPDATED (Na_octanol.gbw) ****
             **** DENSITY Na_octanol.scfp WAS UPDATED ****
             **** ENERGY FILE WAS UPDATED (Na_octanol.en.tmp) ****
             **** THE GBW FILE WAS UPDATED (Na_octanol.gbw) ****
             **** DENSITY Na_octanol.scfp WAS UPDATED ****
----------------
ORBITAL ENERGIES
----------------

  NO   OCC          E(Eh)            E(eV) 
   0   2.0000     -19.108685      -519.9738 
   1   2.0000     -19.108105      -519.9580 
   2   2.0000     -14.359939      -390.7538 
   3   2.0000     -14.356858      -390.6700 
   4   2.0000     -10.282225      -279.7936 
   5   2.0000     -10.281374      -279.7704 
   6   2.0000     -10.218711      -278.0653 
   7   2.0000     -10.203767      -277.6586 
   8   2.0000     -10.196275      -277.4547 
   9   2.0000     -10.196093      -277.4498 
  10   2.0000     -10.169692      -276.7314 
  11   2.0000      -1.031543       -28.0697 
  12   2.0000      -1.025674       -27.9100 
  13   2.0000      -0.935044       -25.4438 
  14   2.0000      -0.924110       -25.1463 
  15   2.0000      -0.749653       -20.3991 
  16   2.0000      -0.740864       -20.1599 
  17   2.0000      -0.714655       -19.4468 
  18   2.0000      -0.682613       -18.5748 
  19   2.0000      -0.669172       -18.2091 
  20   2.0000      -0.559924       -15.2363 
  21   2.0000      -0.538272       -14.6471 
  22   2.0000      -0.495456       -13.4820 
  23   2.0000      -0.486993       -13.2517 
  24   2.0000      -0.482863       -13.1394 
  25   2.0000      -0.462029       -12.5724 
  26   2.0000      -0.454330       -12.3629 
  27   2.0000      -0.449555       -12.2330 
  28   2.0000      -0.418151       -11.3785 
  29   2.0000      -0.407513       -11.0890 
  30   2.0000      -0.406114       -11.0509 
  31   2.0000      -0.401522       -10.9260 
  32   2.0000      -0.397161       -10.8073 
  33   2.0000      -0.389510       -10.5991 
  34   2.0000      -0.386429       -10.5153 
  35   2.0000      -0.377429       -10.2704 
  36   2.0000      -0.373880       -10.1738 
  37   2.0000      -0.353690        -9.6244 
  38   2.0000      -0.347666        -9.4605 
  39   2.0000      -0.258659        -7.0385 
  40   2.0000      -0.250068        -6.8047 
  41   2.0000      -0.239609        -6.5201 
  42   2.0000      -0.233730        -6.3601 
  43   0.0000       0.016863         0.4589 
  44   0.0000       0.023500         0.6395 
  45   0.0000       0.085064         2.3147 
  46   0.0000       0.106830         2.9070 
  47   0.0000       0.130853         3.5607 
  48   0.0000       0.138479         3.7682 
  49   0.0000       0.148120         4.0305 
  50   0.0000       0.152788         4.1576 
  51   0.0000       0.164403         4.4736 
  52   0.0000       0.169483         4.6119 
  53   0.0000       0.173538         4.7222 
  54   0.0000       0.175015         4.7624 
  55   0.0000       0.183618         4.9965 
  56   0.0000       0.186948         5.0871 
  57   0.0000       0.191274         5.2048 
  58   0.0000       0.195481         5.3193 
  59   0.0000       0.211364         5.7515 
  60   0.0000       0.227062         6.1787 
  61   0.0000       0.239176         6.5083 
  62   0.0000       0.251026         6.8308 
  63   0.0000       0.269348         7.3293 
  64   0.0000       0.276376         7.5206 
  65   0.0000       0.329759         8.9732 
  66   0.0000       0.343230         9.3398 
  67   0.0000       0.373121        10.1531 
  68   0.0000       0.405903        11.0452 
  69   0.0000       0.481077        13.0908 
  70   0.0000       0.501727        13.6527 
  71   0.0000       0.506406        13.7800 
  72   0.0000       0.520351        14.1595 
  73   0.0000       0.534328        14.5398 
  74   0.0000       0.546201        14.8629 
  75   0.0000       0.552260        15.0278 
  76   0.0000       0.573525        15.6064 
  77   0.0000       0.586334        15.9550 
  78   0.0000       0.616997        16.7893 
  79   0.0000       0.633323        17.2336 
  80   0.0000       0.637468        17.3464 
  81   0.0000       0.652285        17.7496 
  82   0.0000       0.679389        18.4871 
  83   0.0000       0.693741        18.8777 
  84   0.0000       0.699127        19.0242 
  85   0.0000       0.709685        19.3115 
  86   0.0000       0.710340        19.3293 
  87   0.0000       0.762135        20.7388 
  88   0.0000       0.791390        21.5348 
  89   0.0000       0.802607        21.8400 
  90   0.0000       0.818806        22.2808 
  91   0.0000       0.830029        22.5862 
  92   0.0000       0.844684        22.9850 
  93   0.0000       0.853823        23.2337 
  94   0.0000       0.862396        23.4670 
  95   0.0000       0.872462        23.7409 
  96   0.0000       0.881922        23.9983 
  97   0.0000       0.887401        24.1474 
  98   0.0000       0.891479        24.2584 
  99   0.0000       0.916241        24.9322 
 100   0.0000       0.920247        25.0412 
 101   0.0000       0.926089        25.2002 
 102   0.0000       0.934191        25.4206 
 103   0.0000       0.953804        25.9543 
 104   0.0000       0.968275        26.3481 
 105   0.0000       0.978810        26.6348 
 106   0.0000       0.982047        26.7229 
 107   0.0000       0.998955        27.1829 
 108   0.0000       1.011579        27.5265 
 109   0.0000       1.043279        28.3891 
 110   0.0000       1.054946        28.7065 
 111   0.0000       1.078833        29.3565 
 112   0.0000       1.105530        30.0830 
 113   0.0000       1.113017        30.2867 
 114   0.0000       1.141148        31.0522 
 115   0.0000       1.172841        31.9146 
 116   0.0000       1.218241        33.1500 
 117   0.0000       1.235126        33.6095 
 118   0.0000       1.285789        34.9881 
 119   0.0000       1.317799        35.8591 
 120   0.0000       1.350567        36.7508 
 121   0.0000       1.362584        37.0778 
 122   0.0000       1.409186        38.3459 
 123   0.0000       1.415685        38.5227 
 124   0.0000       1.438986        39.1568 
 125   0.0000       1.459273        39.7088 
 126   0.0000       1.473582        40.0982 
 127   0.0000       1.501776        40.8654 
 128   0.0000       1.574081        42.8329 
 129   0.0000       1.648662        44.8624 
 130   0.0000       1.670296        45.4511 
 131   0.0000       1.736425        47.2505 
 132   0.0000       1.741631        47.3922 
 133   0.0000       1.768876        48.1336 
 134   0.0000       1.782739        48.5108 
 135   0.0000       1.810080        49.2548 
 136   0.0000       1.816757        49.4365 
 137   0.0000       1.827344        49.7246 
 138   0.0000       1.858612        50.5754 
 139   0.0000       1.889163        51.4067 
 140   0.0000       1.914745        52.1029 
 141   0.0000       1.922735        52.3203 
 142   0.0000       1.953505        53.1576 
 143   0.0000       1.962856        53.4120 
 144   0.0000       1.983458        53.9726 
 145   0.0000       1.992215        54.2109 
 146   0.0000       2.001493        54.4634 
 147   0.0000       2.035168        55.3797 
 148   0.0000       2.052936        55.8632 
 149   0.0000       2.066741        56.2389 
 150   0.0000       2.088916        56.8423 
 151   0.0000       2.108180        57.3665 
 152   0.0000       2.120139        57.6919 
 153   0.0000       2.129843        57.9560 
 154   0.0000       2.162388        58.8416 
 155   0.0000       2.183557        59.4176 
 156   0.0000       2.236878        60.8685 
 157   0.0000       2.246476        61.1297 
 158   0.0000       2.281566        62.0846 
 159   0.0000       2.301443        62.6255 
 160   0.0000       2.313980        62.9666 
 161   0.0000       2.337377        63.6033 
 162   0.0000       2.346089        63.8403 
 163   0.0000       2.376529        64.6686 
 164   0.0000       2.419379        65.8346 
 165   0.0000       2.427451        66.0543 
 166   0.0000       2.451108        66.6980 
 167   0.0000       2.497947        67.9726 
 168   0.0000       2.560287        69.6690 
 169   0.0000       2.579364        70.1881 
 170   0.0000       2.617830        71.2348 
 171   0.0000       2.632550        71.6353 
 172   0.0000       2.649839        72.1058 
 173   0.0000       2.680640        72.9439 
 174   0.0000       2.714147        73.8557 
 175   0.0000       2.745096        74.6979 
 176   0.0000       2.894117        78.7529 
 177   0.0000       2.953825        80.3777 
 178   0.0000       2.994659        81.4888 
 179   0.0000       3.029131        82.4268 
 180   0.0000       3.150290        85.7238 
 181   0.0000       3.181079        86.5616 

                    ********************************
                    * MULLIKEN POPULATION ANALYSIS *
                    ********************************

-----------------------
MULLIKEN ATOMIC CHARGES
-----------------------
   0 C :    0.527859
   1 H :    0.193116
   2 H :    0.180027
   3 H :    0.198826
   4 O :   -0.524949
   5 C :   -0.566837
   6 N :   -0.360630
   7 C :   -0.323201
   8 H :    0.176463
   9 H :    0.175218
  10 H :    0.183242
  11 C :   -0.331771
  12 H :    0.171407
  13 H :    0.171602
  14 H :    0.187253
  15 N :   -0.376222
  16 C :   -0.263309
  17 H :    0.189472
  18 H :    0.205345
  19 C :   -0.332907
  20 H :    0.187171
  21 H :    0.169621
  22 H :    0.170703
  23 C :    0.529728
  24 O :   -0.537232
Sum of atomic charges:    0.0000000

--------------------------------
MULLIKEN REDUCED ORBITAL CHARGES
--------------------------------
  0 C s       :     2.983916  s :     2.983916
      pz      :     0.776927  p :     2.381120
      px      :     0.783075
      py      :     0.821119
      dz2     :     0.020631  d :     0.107106
      dxz     :     0.018050
      dyz     :     0.016610
      dx2y2   :     0.019507
      dxy     :     0.032308
  1 H s       :     0.806884  s :     0.806884
  2 H s       :     0.819973  s :     0.819973
  3 H s       :     0.801174  s :     0.801174
  4 O s       :     3.852937  s :     3.852937
      pz      :     1.499924  p :     4.646649
      px      :     1.397004
      py      :     1.749722
      dz2     :     0.005168  d :     0.025362
      dxz     :     0.007463
      dyz     :     0.001939
      dx2y2   :     0.006068
      dxy     :     0.004724
  5 C s       :     3.323706  s :     3.323706
      pz      :     1.108627  p :     3.211210
      px      :     1.083144
      py      :     1.019439
      dz2     :     0.005624  d :     0.031921
      dxz     :     0.007393
      dyz     :     0.005741
      dx2y2   :     0.004860
      dxy     :     0.008303
  6 N s       :     3.530368  s :     3.530368
      pz      :     1.299935  p :     3.792971
      px      :     1.252406
      py      :     1.240631
      dz2     :     0.007547  d :     0.037291
      dxz     :     0.006823
      dyz     :     0.007036
      dx2y2   :     0.007247
      dxy     :     0.008638
  7 C s       :     3.261522  s :     3.261522
      pz      :     1.067618  p :     3.012814
      px      :     1.069523
      py      :     0.875673
      dz2     :     0.007557  d :     0.048865
      dxz     :     0.011951
      dyz     :     0.009180
      dx2y2   :     0.007249
      dxy     :     0.012928
  8 H s       :     0.823537  s :     0.823537
  9 H s       :     0.824782  s :     0.824782
 10 H s       :     0.816758  s :     0.816758
 11 C s       :     3.259863  s :     3.259863
      pz      :     1.044825  p :     3.023856
      px      :     0.883617
      py      :     1.095414
      dz2     :     0.013433  d :     0.048052
      dxz     :     0.007587
      dyz     :     0.005659
      dx2y2   :     0.009416
      dxy     :     0.011957
 12 H s       :     0.828593  s :     0.828593
 13 H s       :     0.828398  s :     0.828398
 14 H s       :     0.812747  s :     0.812747
 15 N s       :     3.539153  s :     3.539153
      pz      :     1.340367  p :     3.800401
      px      :     1.268536
      py      :     1.191499
      dz2     :     0.005733  d :     0.036667
      dxz     :     0.007242
      dyz     :     0.007283
      dx2y2   :     0.007320
      dxy     :     0.009088
 16 C s       :     3.256550  s :     3.256550
      pz      :     0.956933  p :     2.954613
      px      :     0.872133
      py      :     1.125547
      dz2     :     0.007652  d :     0.052146
      dxz     :     0.012907
      dyz     :     0.012881
      dx2y2   :     0.012879
      dxy     :     0.005827
 17 H s       :     0.810528  s :     0.810528
 18 H s       :     0.794655  s :     0.794655
 19 C s       :     3.260494  s :     3.260494
      pz      :     1.112887  p :     3.024218
      px      :     1.002301
      py      :     0.909030
      dz2     :     0.008861  d :     0.048195
      dxz     :     0.013654
      dyz     :     0.003643
      dx2y2   :     0.007804
      dxy     :     0.014234
 20 H s       :     0.812829  s :     0.812829
 21 H s       :     0.830379  s :     0.830379
 22 H s       :     0.829297  s :     0.829297
 23 C s       :     2.981162  s :     2.981162
      pz      :     0.775615  p :     2.380921
      px      :     0.837389
      py      :     0.767916
      dz2     :     0.023889  d :     0.108189
      dxz     :     0.014724
      dyz     :     0.022944
      dx2y2   :     0.022338
      dxy     :     0.024294
 24 O s       :     3.858269  s :     3.858269
      pz      :     1.589001  p :     4.653590
      px      :     1.655042
      py      :     1.409547
      dz2     :     0.003797  d :     0.025373
      dxz     :     0.003399
      dyz     :     0.005770
      dx2y2   :     0.006785
      dxy     :     0.005622


                     *******************************
                     * LOEWDIN POPULATION ANALYSIS *
                     *******************************

----------------------
LOEWDIN ATOMIC CHARGES
----------------------
   0 C :    0.119842
   1 H :    0.153878
   2 H :    0.150365
   3 H :    0.159510
   4 O :   -0.323650
   5 C :   -0.397647
   6 N :   -0.071554
   7 C :   -0.274572
   8 H :    0.134609
   9 H :    0.138735
  10 H :    0.143282
  11 C :   -0.280395
  12 H :    0.133800
  13 H :    0.134317
  14 H :    0.148959
  15 N :   -0.094064
  16 C :   -0.179972
  17 H :    0.146455
  18 H :    0.162812
  19 C :   -0.281676
  20 H :    0.148325
  21 H :    0.130152
  22 H :    0.132647
  23 C :    0.097283
  24 O :   -0.331440

-------------------------------
LOEWDIN REDUCED ORBITAL CHARGES
-------------------------------
  0 C s       :     2.851937  s :     2.851937
      pz      :     0.863129  p :     2.774690
      px      :     0.951073
      py      :     0.960487
      dz2     :     0.045366  d :     0.253532
      dxz     :     0.044112
      dyz     :     0.039922
      dx2y2   :     0.044658
      dxy     :     0.079474
  1 H s       :     0.846122  s :     0.846122
  2 H s       :     0.849635  s :     0.849635
  3 H s       :     0.840490  s :     0.840490
  4 O s       :     3.562894  s :     3.562894
      pz      :     1.508736  p :     4.709065
      px      :     1.459329
      py      :     1.741000
      dz2     :     0.008109  d :     0.051691
      dxz     :     0.017478
      dyz     :     0.003391
      dx2y2   :     0.013297
      dxy     :     0.009416
  5 C s       :     2.982087  s :     2.982087
      pz      :     1.145043  p :     3.352659
      px      :     1.124896
      py      :     1.082720
      dz2     :     0.010577  d :     0.062900
      dxz     :     0.013456
      dyz     :     0.011228
      dx2y2   :     0.009843
      dxy     :     0.017796
  6 N s       :     3.087230  s :     3.087230
      pz      :     1.330350  p :     3.887419
      px      :     1.282791
      py      :     1.274278
      dz2     :     0.017730  d :     0.096905
      dxz     :     0.018808
      dyz     :     0.019564
      dx2y2   :     0.019479
      dxy     :     0.021324
  7 C s       :     2.960480  s :     2.960480
      pz      :     1.117815  p :     3.216846
      px      :     1.120829
      py      :     0.978202
      dz2     :     0.014440  d :     0.097246
      dxz     :     0.023247
      dyz     :     0.018454
      dx2y2   :     0.015102
      dxy     :     0.026003
  8 H s       :     0.865391  s :     0.865391
  9 H s       :     0.861265  s :     0.861265
 10 H s       :     0.856718  s :     0.856718
 11 C s       :     2.962969  s :     2.962969
      pz      :     1.101396  p :     3.222065
      px      :     0.983257
      py      :     1.137412
      dz2     :     0.026247  d :     0.095361
      dxz     :     0.015442
      dyz     :     0.010489
      dx2y2   :     0.019500
      dxy     :     0.023683
 12 H s       :     0.866200  s :     0.866200
 13 H s       :     0.865683  s :     0.865683
 14 H s       :     0.851041  s :     0.851041
 15 N s       :     3.106190  s :     3.106190
      pz      :     1.364501  p :     3.893224
      px      :     1.282200
      py      :     1.246522
      dz2     :     0.014140  d :     0.094650
      dxz     :     0.018431
      dyz     :     0.019379
      dx2y2   :     0.019334
      dxy     :     0.023366
 16 C s       :     2.932290  s :     2.932290
      pz      :     1.028256  p :     3.137261
      px      :     0.971980
      py      :     1.137024
      dz2     :     0.016486  d :     0.110421
      dxz     :     0.028780
      dyz     :     0.025604
      dx2y2   :     0.027244
      dxy     :     0.012308
 17 H s       :     0.853545  s :     0.853545
 18 H s       :     0.837188  s :     0.837188
 19 C s       :     2.963478  s :     2.963478
      pz      :     1.152602  p :     3.222343
      px      :     1.070881
      py      :     0.998860
      dz2     :     0.016557  d :     0.095855
      dxz     :     0.026478
      dyz     :     0.006905
      dx2y2   :     0.016711
      dxy     :     0.029205
 20 H s       :     0.851675  s :     0.851675
 21 H s       :     0.869848  s :     0.869848
 22 H s       :     0.867353  s :     0.867353
 23 C s       :     2.852599  s :     2.852599
      pz      :     0.903436  p :     2.793428
      px      :     0.962138
      py      :     0.927854
      dz2     :     0.055593  d :     0.256690
      dxz     :     0.032988
      dyz     :     0.058663
      dx2y2   :     0.051427
      dxy     :     0.058019
 24 O s       :     3.562277  s :     3.562277
      pz      :     1.587157  p :     4.717072
      px      :     1.665581
      py      :     1.464334
      dz2     :     0.007216  d :     0.052091
      dxz     :     0.006143
      dyz     :     0.012547
      dx2y2   :     0.012077
      dxy     :     0.014108


                      *****************************
                      * MAYER POPULATION ANALYSIS *
                      *****************************

  NA   - Mulliken gross atomic population
  ZA   - Total nuclear charge
  QA   - Mulliken gross atomic charge
  VA   - Mayer's total valence
  BVA  - Mayer's bonded valence
  FA   - Mayer's free valence

  ATOM       NA         ZA         QA         VA         BVA        FA
  0 C      5.4721     6.0000     0.5279     3.9813     3.9813     0.0000
  1 H      0.8069     1.0000     0.1931     0.9321     0.9321     0.0000
  2 H      0.8200     1.0000     0.1800     0.9395     0.9395    -0.0000
  3 H      0.8012     1.0000     0.1988     0.9250     0.9250    -0.0000
  4 O      8.5249     8.0000    -0.5249     2.0251     2.0251     0.0000
  5 C      6.5668     6.0000    -0.5668     3.7875     3.7875    -0.0000
  6 N      7.3606     7.0000    -0.3606     3.1570     3.1570     0.0000
  7 C      6.3232     6.0000    -0.3232     3.7870     3.7870     0.0000
  8 H      0.8235     1.0000     0.1765     0.9233     0.9233     0.0000
  9 H      0.8248     1.0000     0.1752     0.9270     0.9270     0.0000
 10 H      0.8168     1.0000     0.1832     0.9314     0.9314    -0.0000
 11 C      6.3318     6.0000    -0.3318     3.7797     3.7797     0.0000
 12 H      0.8286     1.0000     0.1714     0.9266     0.9266     0.0000
 13 H      0.8284     1.0000     0.1716     0.9263     0.9263    -0.0000
 14 H      0.8127     1.0000     0.1873     0.9516     0.9516    -0.0000
 15 N      7.3762     7.0000    -0.3762     3.0797     3.0797     0.0000
 16 C      6.2633     6.0000    -0.2633     3.7591     3.7591    -0.0000
 17 H      0.8105     1.0000     0.1895     0.9309     0.9309    -0.0000
 18 H      0.7947     1.0000     0.2053     0.9210     0.9210    -0.0000
 19 C      6.3329     6.0000    -0.3329     3.7903     3.7903     0.0000
 20 H      0.8128     1.0000     0.1872     0.9478     0.9478     0.0000
 21 H      0.8304     1.0000     0.1696     0.9238     0.9238    -0.0000
 22 H      0.8293     1.0000     0.1707     0.9299     0.9299     0.0000
 23 C      5.4703     6.0000     0.5297     3.9427     3.9427     0.0000
 24 O      8.5372     8.0000    -0.5372     2.0088     2.0088    -0.0000

  Mayer bond orders larger than 0.100000
B(  0-C ,  4-O ) :   1.8124 B(  0-C ,  5-C ) :   0.9991 B(  0-C , 15-N ) :   1.1334 
B(  1-H ,  5-C ) :   0.9154 B(  2-H ,  5-C ) :   0.9373 B(  3-H ,  5-C ) :   0.9171 
B(  6-N ,  7-C ) :   0.9513 B(  6-N , 11-C ) :   0.9484 B(  6-N , 23-C ) :   1.1919 
B(  6-N , 24-O ) :   0.1020 B(  7-C ,  8-H ) :   0.9308 B(  7-C ,  9-H ) :   0.9340 
B(  7-C , 10-H ) :   0.9277 B( 11-C , 12-H ) :   0.9366 B( 11-C , 13-H ) :   0.9373 
B( 11-C , 14-H ) :   0.9231 B( 15-N , 16-C ) :   0.9289 B( 15-N , 19-C ) :   0.9468 
B( 16-C , 17-H ) :   0.9128 B( 16-C , 18-H ) :   0.9115 B( 16-C , 23-C ) :   0.9382 
B( 19-C , 20-H ) :   0.9243 B( 19-C , 21-H ) :   0.9373 B( 19-C , 22-H ) :   0.9321 
B( 23-C , 24-O ) :   1.7550 

-------
TIMINGS
-------

Total SCF time: 0 days 0 hours 0 min 54 sec 

Total time                  ....      54.738 sec
Sum of individual times     ....      49.497 sec  ( 90.4%)

Fock matrix formation       ....      46.058 sec  ( 84.1%)
  Split-RI-J                ....       4.978 sec  ( 10.8% of F)
  Chain of spheres X        ....      27.844 sec  ( 60.5% of F)
  XC integration            ....       6.561 sec  ( 14.2% of F)
    Basis function eval.    ....       2.327 sec  ( 35.5% of XC)
    Density eval.           ....       1.294 sec  ( 19.7% of XC)
    XC-Functional eval.     ....       0.497 sec  (  7.6% of XC)
    XC-Potential eval.      ....       1.206 sec  ( 18.4% of XC)
Diagonalization             ....       0.058 sec  (  0.1%)
Density matrix formation    ....       0.006 sec  (  0.0%)
Population analysis         ....       0.012 sec  (  0.0%)
Initial guess               ....       0.274 sec  (  0.5%)
Orbital Transformation      ....       0.000 sec  (  0.0%)
Orbital Orthonormalization  ....       0.000 sec  (  0.0%)
DIIS solution               ....       0.038 sec  (  0.1%)
SOSCF solution              ....       0.074 sec  (  0.1%)
Grid generation             ....       2.976 sec  (  5.4%)

Maximum memory used throughout the entire SCF-calculation: 61.7 MB


-------------------------------------------------------------------------------
                          DFT DISPERSION CORRECTION                            
                                                                               
                                 DFTD4 V2.5                                    
-------------------------------------------------------------------------------
The B3LYP functional is recognized
Active option DFTDOPT                   ...         5   

Starting D4
-------------------------   ----------------
Dispersion correction           -0.039958276
-------------------------   ----------------


-------------------------   --------------------
FINAL SINGLE POINT ENERGY      -534.865876463609
-------------------------   --------------------



           ************************************************************
           *        Program running with 4 parallel MPI-processes     *
           *              working on a common directory               *
           ************************************************************
------------------------------------------------------------------------------
                         ORCA SCF GRADIENT CALCULATION
------------------------------------------------------------------------------

 ... reading COSX grid (gridx3)
Gradient of the Kohn-Sham DFT energy:
Kohn-Sham wavefunction type      ... RKS
Hartree-Fock exchange scaling    ...    0.200
Number of operators              ...    1
Number of atoms                  ...   25
Basis set dimensions             ...  182
Integral neglect threshold       ... 2.5e-11
Integral primitive cutoff        ... 2.5e-12
SHARK Integral package           ... ON

Nuc. rep. gradient       (SHARK) ... done (  0.0 sec)
HCore & Overlap gradient (SHARK) ... done (  0.2 sec)
RI-J gradient            (SHARK) ... done (  1.1 sec)
COSX-gradient                    ... done (  6.6 sec)
Exchange-correlation gradient    ... done
Dispersion correction            ... Starting D4
Starting D4
Starting D4
Starting D4


------------------- 
Dispersion Gradient 
------------------- 
   1  :   -0.000791457    0.000434784   -0.000295888
   2  :   -0.000077378    0.000267212   -0.000008818
   3  :   -0.000065667    0.000160832   -0.000084089
   4  :   -0.000114644    0.000299066   -0.000172480
   5  :   -0.000619522    0.000157665   -0.000415640
   6  :   -0.000413906    0.000961439   -0.000354694
   7  :    0.000843328   -0.000260910   -0.000150246
   8  :    0.000502436   -0.000873502   -0.000534349
   9  :    0.000125371   -0.000218603   -0.000249100
  10  :    0.000065898   -0.000164944   -0.000096742
  11  :    0.000123807   -0.000226932   -0.000080908
  12  :    0.000772805    0.000046763   -0.000359746
  13  :    0.000168313    0.000002642   -0.000065269
  14  :    0.000170214    0.000027666   -0.000132040
  15  :    0.000155773    0.000043591   -0.000032807
  16  :   -0.000698615   -0.000206862    0.000228049
  17  :   -0.000025538   -0.000061435    0.000789428
  18  :    0.000019991    0.000072338    0.000257384
  19  :   -0.000017865   -0.000090297    0.000244946
  20  :   -0.000732219   -0.000638539    0.000275247
  21  :   -0.000154379   -0.000085635   -0.000002710
  22  :   -0.000153622   -0.000133938    0.000082710
  23  :   -0.000191772   -0.000209896    0.000075466
  24  :    0.000540948    0.000187237    0.000458256
  25  :    0.000567702    0.000510258    0.000624039

  |G| =    0.002797778

done

------------------
CARTESIAN GRADIENT
------------------

   1   C   :   -0.002214187    0.007684478   -0.002642689
[...]
     52       0.002193   0.026614   0.119612   0.411166   0.028700  -0.009198
     53       0.002186   0.025640   0.113938   0.397138   0.027492  -0.008999
     54      -0.001074  -0.005109  -0.011632  -0.082852  -0.003898   0.001172
     55       0.008015   0.043216   0.104819   0.663247   0.030918  -0.009994
     56      -0.004667  -0.024751  -0.059946  -0.383907  -0.017242   0.005224
     57      -0.000199  -0.004976  -0.049302   0.009234  -0.000200  -0.000727
     58       0.000091   0.005363   0.061465  -0.013257   0.000468   0.000281
     59       0.000120   0.003297   0.034160  -0.008085  -0.000026  -0.001210
     60       0.000186  -0.010628  -0.147154   0.040868  -0.000682   0.007708
     61       0.000084  -0.001109  -0.019132   0.007361   0.000032   0.001393
     62       0.000340  -0.013014  -0.186647   0.054421  -0.000789   0.011255
     63       0.001384   0.025014   0.230404  -0.043470  -0.000185  -0.002368
     64      -0.000227  -0.003753  -0.033881   0.005866  -0.000126   0.000186
     65      -0.001892  -0.035683  -0.333747   0.063601   0.000045   0.002641
     66       0.000594   0.043305   0.506000  -0.108130   0.003906   0.003211
     67      -0.000844  -0.057878  -0.669041   0.145627  -0.005222  -0.004618
     68       0.000203   0.009945   0.110613  -0.023712   0.000875   0.000438
     69       0.000430   0.000169  -0.000224  -0.000539   0.000005  -0.000011
     70      -0.000126   0.000226  -0.000605  -0.001937  -0.000161   0.000177
     71       0.000436   0.000447  -0.000042  -0.000868  -0.000201   0.000179
     72      -0.000064  -0.000057   0.000052   0.000125  -0.000119   0.000080
     73      -0.000045  -0.000116   0.000171   0.000569   0.000095  -0.000160
     74      -0.000092   0.000045   0.000093   0.000562   0.000032  -0.000014
                 72         73         74    
      0      -0.000050   0.001133   0.000033
      1      -0.000185   0.000247  -0.000036
      2       0.000031   0.000415   0.000029
      3      -0.000341  -0.001701  -0.000120
      4      -0.000216  -0.002218  -0.000008
      5      -0.000809  -0.005977  -0.000120
      6       0.000483  -0.007911   0.000335
      7      -0.000503   0.009526  -0.000318
      8       0.000411  -0.006439   0.000220
      9       0.000489  -0.001239   0.000752
     10       0.000010  -0.000143  -0.000101
     11      -0.000338   0.000995  -0.000646
     12       0.000002  -0.000431  -0.000018
     13       0.000119  -0.000764  -0.000005
     14      -0.000054   0.000034  -0.000007
     15      -0.000039   0.000795  -0.000081
     16       0.000082  -0.000539   0.000047
     17       0.000060   0.000993   0.000034
     18       0.000008   0.000020  -0.000073
     19       0.000430   0.000040  -0.000238
     20       0.000058  -0.000025  -0.000163
     21      -0.048064  -0.005928  -0.001316
     22      -0.029754  -0.003826  -0.001495
     23       0.069478   0.008842   0.003490
     24      -0.112348  -0.014802  -0.006874
     25       0.035978   0.004692   0.002995
     26      -0.124204  -0.016460  -0.008601
     27       0.176040   0.021490   0.004526
     28      -0.143392  -0.017402  -0.001913
     29      -0.055185  -0.006781  -0.001009
     30       0.513683   0.065447   0.023602
     31       0.448225   0.057330   0.021100
     32      -0.651712  -0.082969  -0.030242
     33       0.001159   0.000300  -0.012593
     34       0.003260   0.001516  -0.077748
     35       0.001933   0.000891  -0.043816
     36       0.005735   0.002824  -0.129587
     37      -0.003336  -0.002097   0.105295
     38       0.001565   0.000762  -0.038316
     39      -0.001368  -0.000733   0.037753
     40       0.002119   0.000660  -0.025539
     41      -0.009825  -0.004392   0.203743
     42      -0.010262  -0.004578   0.234805
     43      -0.036531  -0.016538   0.851830
     44      -0.015459  -0.007089   0.368624
     45      -0.000365   0.000295  -0.000013
     46       0.000144   0.000158   0.000030
     47       0.000102   0.000070   0.000004
     48       0.000257  -0.000218   0.000093
     49      -0.000942  -0.001565  -0.000309
     50       0.000278   0.000513  -0.000114
     51      -0.000714  -0.000501  -0.001149
     52       0.001429   0.002455   0.002917
     53       0.001500   0.002012   0.002912
     54      -0.001115  -0.003273  -0.000200
     55       0.012145   0.014505   0.001096
     56      -0.004606  -0.009295  -0.000618
     57      -0.006367   0.052805   0.000813
     58       0.000389  -0.009251  -0.000235
     59      -0.009562   0.073085   0.000975
     60       0.071736  -0.527140  -0.007030
     61       0.014638  -0.113386  -0.001548
     62       0.101361  -0.753196  -0.010064
     63      -0.010597   0.085059   0.000874
     64       0.002228  -0.019742  -0.000246
     65       0.012582  -0.092552  -0.000811
     66       0.011188  -0.191491  -0.003908
     67      -0.018413   0.251299   0.005003
     68       0.002232  -0.029742  -0.000593
     69      -0.000440  -0.000169  -0.000727
     70       0.000121   0.000040  -0.000812
     71       0.000128   0.000002  -0.000410
     72       0.000022   0.000033   0.000748
     73      -0.000137  -0.000009   0.000169
     74      -0.000111   0.000014  -0.000490


-----------
IR SPECTRUM
-----------

 Mode   freq       eps      Int      T**2         TX        TY        TZ
       cm**-1   L/(mol*cm) km/mol    a.u.
----------------------------------------------------------------------------
  6:     20.10   0.000496    2.51  0.007701  ( 0.057289 -0.065390 -0.011953)
  7:     63.35   0.000744    3.76  0.003663  ( 0.038350 -0.039008  0.025902)
  8:     68.74   0.001302    6.58  0.005910  ( 0.045621 -0.000982 -0.061872)
  9:     88.14   0.000278    1.41  0.000986  ( 0.016921 -0.016186 -0.020914)
 10:     98.01   0.000271    1.37  0.000862  (-0.018246  0.022686  0.003858)
 11:    135.81   0.000610    3.08  0.001402  ( 0.003428  0.001423 -0.037255)
 12:    152.42   0.001801    9.10  0.003688  (-0.032271  0.051138  0.005593)
 13:    173.67   0.000067    0.34  0.000121  (-0.006546 -0.000054  0.008845)
 14:    206.67   0.000178    0.90  0.000268  ( 0.004641 -0.014408  0.006238)
 15:    233.36   0.001958    9.90  0.002618  (-0.028073  0.031907 -0.028500)
 16:    268.74   0.001505    7.60  0.001747  ( 0.039623 -0.013297 -0.000758)
 17:    306.80   0.001441    7.28  0.001466  ( 0.017830  0.011719 -0.031791)
 18:    314.47   0.000670    3.38  0.000664  ( 0.015054 -0.016000 -0.013483)
 19:    381.44   0.002980   15.06  0.002438  ( 0.036626 -0.028449 -0.016951)
 20:    411.73   0.000888    4.49  0.000673  (-0.009718 -0.004980  0.023539)
 21:    456.03   0.000819    4.14  0.000560  (-0.008569 -0.016935  0.014138)
 22:    477.32   0.004904   24.78  0.003206  (-0.041591 -0.034797  0.016298)
 23:    568.42   0.004783   24.17  0.002626  (-0.021655  0.005689 -0.046091)
 24:    600.07   0.000745    3.76  0.000387  ( 0.016351 -0.001500 -0.010848)
 25:    615.23   0.005658   28.59  0.002870  (-0.033896  0.040163  0.010393)
 26:    684.37   0.001836    9.28  0.000837  ( 0.010872 -0.022813 -0.014098)
 27:    743.32   0.003286   16.60  0.001379  (-0.024793  0.025532  0.010622)
 28:    804.04   0.002571   12.99  0.000998  ( 0.008441 -0.029491 -0.007550)
 29:    974.52   0.000713    3.60  0.000228  ( 0.014525  0.002599 -0.003251)
 30:    989.46   0.002539   12.83  0.000801  (-0.012791  0.020922  0.014119)
 31:   1005.30   0.006277   31.72  0.001949  (-0.014886  0.006564  0.041035)
 32:   1044.99   0.011340   57.31  0.003387  ( 0.037689 -0.029965  0.032683)
 33:   1060.80   0.003743   18.91  0.001101  ( 0.024381 -0.010276 -0.020024)
 34:   1087.80   0.002342   11.84  0.000672  ( 0.017423  0.018809  0.003813)
 35:   1135.33   0.000852    4.31  0.000234  (-0.004771 -0.010683 -0.009863)
 36:   1151.78   0.003394   17.15  0.000920  (-0.008436 -0.026970 -0.010999)
 37:   1165.57   0.007836   39.60  0.002098  (-0.030387  0.026469 -0.021773)
 38:   1176.45   0.000980    4.95  0.000260  ( 0.002099  0.012287  0.010222)
 39:   1194.73   0.016528   83.53  0.004317  (-0.032647  0.029446  0.048830)
 40:   1261.74   0.020075  101.45  0.004965  (-0.018936 -0.062712  0.025954)
 41:   1290.00   0.012092   61.11  0.002925  ( 0.048919  0.003156 -0.022850)
 42:   1307.77   0.000729    3.68  0.000174  ( 0.008621 -0.005492  0.008333)
 43:   1354.49   0.026846  135.67  0.006185  ( 0.038619 -0.029097  0.062025)
 44:   1410.80   0.001582    7.99  0.000350  (-0.016197 -0.008605 -0.003677)
 45:   1434.75   0.027104  136.97  0.005895  (-0.006024  0.037279 -0.066853)
 46:   1440.61   0.020882  105.53  0.004523  ( 0.033006 -0.051597 -0.027782)
 47:   1455.80   0.010227   51.68  0.002192  (-0.037029  0.006381  0.027937)
 48:   1466.74   0.011173   56.46  0.002377  (-0.008836  0.046852 -0.010193)
 49:   1486.21   0.005013   25.33  0.001053  ( 0.003504  0.030990 -0.008943)
 50:   1491.59   0.005717   28.89  0.001196  (-0.029349 -0.012607 -0.013255)
 51:   1502.49   0.004140   20.92  0.000860  ( 0.010864 -0.022681 -0.015079)
 52:   1506.39   0.002666   13.47  0.000552  (-0.006428 -0.020868  0.008692)
 53:   1509.45   0.001091    5.51  0.000225  ( 0.000052 -0.014835  0.002321)
 54:   1514.41   0.002400   12.13  0.000494  (-0.011999  0.000906  0.018700)
 55:   1515.90   0.002533   12.80  0.000522  ( 0.021617 -0.003365  0.006551)
 56:   1519.20   0.003393   17.14  0.000697  (-0.025439 -0.001116  0.006963)
 57:   1544.13   0.015677   79.23  0.003168  ( 0.003063 -0.037393  0.041961)
 58:   1552.40   0.014247   72.00  0.002864  (-0.040545  0.023144  0.026162)
 59:   1719.50   0.130408  659.03  0.023667  ( 0.046728  0.103037  0.104244)
 60:   1726.23   0.081446  411.59  0.014724  (-0.097703  0.038555 -0.060755)
 61:   3042.42   0.012505   63.20  0.001283  ( 0.019981  0.020085 -0.021910)
 62:   3043.92   0.009395   47.48  0.000963  (-0.029233 -0.002084  0.010210)
 63:   3052.64   0.013133   66.37  0.001343  (-0.000455  0.022705  0.028755)
 64:   3067.43   0.000556    2.81  0.000057  (-0.004799 -0.005321  0.002287)
 65:   3074.80   0.005230   26.43  0.000531  ( 0.003178  0.004689  0.022332)
 66:   3097.73   0.009692   48.98  0.000976  ( 0.017519 -0.015803  0.020487)
 67:   3112.42   0.004742   23.96  0.000475  ( 0.017017 -0.013194  0.003430)
 68:   3114.72   0.007503   37.92  0.000752  (-0.018537  0.019599  0.004895)
 69:   3119.70   0.003792   19.16  0.000379  ( 0.007047 -0.015956 -0.008663)
 70:   3135.88   0.002028   10.25  0.000202  ( 0.006301 -0.009731 -0.008214)
 71:   3169.48   0.002462   12.44  0.000242  ( 0.009263 -0.007746  0.009826)
 72:   3182.97   0.003898   19.70  0.000382  (-0.010612 -0.010156  0.012899)
 73:   3188.54   0.001197    6.05  0.000117  ( 0.006716  0.001158  0.008410)
 74:   3194.50   0.000882    4.46  0.000086  (-0.004657 -0.008023  0.000331)

* The epsilon (eps) is given for a Dirac delta lineshape.
** The dipole moment derivative (T) already includes vibrational overlap.

The first frequency considered to be a vibration is 6
The total number of vibrations considered is 69


--------------------------
THERMOCHEMISTRY AT 298.15K
--------------------------

Temperature         ... 298.15 K
Pressure            ... 1.00 atm
Total Mass          ... 158.20 AMU

Throughout the following assumptions are being made:
  (1) The electronic state is orbitally nondegenerate
  (2) There are no thermally accessible electronically excited states
  (3) Hindered rotations indicated by low frequency modes are not
      treated as such but are treated as vibrations and this may
      cause some error
  (4) All equations used are the standard statistical mechanics
      equations for an ideal gas
  (5) All vibrations are strictly harmonic

freq.      20.10  E(vib)   ...       0.56 
freq.      63.35  E(vib)   ...       0.51 
freq.      68.74  E(vib)   ...       0.50 
freq.      88.14  E(vib)   ...       0.48 
freq.      98.01  E(vib)   ...       0.46 
freq.     135.81  E(vib)   ...       0.42 
freq.     152.42  E(vib)   ...       0.40 
freq.     173.67  E(vib)   ...       0.38 
freq.     206.67  E(vib)   ...       0.35 
freq.     233.36  E(vib)   ...       0.32 
freq.     268.74  E(vib)   ...       0.29 
freq.     306.80  E(vib)   ...       0.26 
freq.     314.47  E(vib)   ...       0.25 
freq.     381.44  E(vib)   ...       0.21 
freq.     411.73  E(vib)   ...       0.19 
freq.     456.03  E(vib)   ...       0.16 
freq.     477.32  E(vib)   ...       0.15 
freq.     568.42  E(vib)   ...       0.11 
freq.     600.07  E(vib)   ...       0.10 
freq.     615.23  E(vib)   ...       0.10 
freq.     684.37  E(vib)   ...       0.07 
freq.     743.32  E(vib)   ...       0.06 
freq.     804.04  E(vib)   ...       0.05 
freq.     974.52  E(vib)   ...       0.03 
freq.     989.46  E(vib)   ...       0.02 
freq.    1005.30  E(vib)   ...       0.02 
freq.    1044.99  E(vib)   ...       0.02 
freq.    1060.80  E(vib)   ...       0.02 
freq.    1087.80  E(vib)   ...       0.02 
freq.    1135.33  E(vib)   ...       0.01 
freq.    1151.78  E(vib)   ...       0.01 
freq.    1165.57  E(vib)   ...       0.01 
freq.    1176.45  E(vib)   ...       0.01 
freq.    1194.73  E(vib)   ...       0.01 
freq.    1261.74  E(vib)   ...       0.01 
freq.    1290.00  E(vib)   ...       0.01 
freq.    1307.77  E(vib)   ...       0.01 
freq.    1354.49  E(vib)   ...       0.01 
freq.    1410.80  E(vib)   ...       0.00 
freq.    1434.75  E(vib)   ...       0.00 
freq.    1440.61  E(vib)   ...       0.00 
freq.    1455.80  E(vib)   ...       0.00 
freq.    1466.74  E(vib)   ...       0.00 
freq.    1486.21  E(vib)   ...       0.00 
freq.    1491.59  E(vib)   ...       0.00 
freq.    1502.49  E(vib)   ...       0.00 
freq.    1506.39  E(vib)   ...       0.00 
freq.    1509.45  E(vib)   ...       0.00 
freq.    1514.41  E(vib)   ...       0.00 
freq.    1515.90  E(vib)   ...       0.00 
freq.    1519.20  E(vib)   ...       0.00 
freq.    1544.13  E(vib)   ...       0.00 
freq.    1552.40  E(vib)   ...       0.00 
freq.    1719.50  E(vib)   ...       0.00 
freq.    1726.23  E(vib)   ...       0.00 
freq.    3042.42  E(vib)   ...       0.00 
freq.    3043.92  E(vib)   ...       0.00 
freq.    3052.64  E(vib)   ...       0.00 
freq.    3067.43  E(vib)   ...       0.00 
freq.    3074.80  E(vib)   ...       0.00 
freq.    3097.73  E(vib)   ...       0.00 
freq.    3112.42  E(vib)   ...       0.00 
freq.    3114.72  E(vib)   ...       0.00 
freq.    3119.70  E(vib)   ...       0.00 
freq.    3135.88  E(vib)   ...       0.00 
freq.    3169.48  E(vib)   ...       0.00 
freq.    3182.97  E(vib)   ...       0.00 
freq.    3188.54  E(vib)   ...       0.00 
freq.    3194.50  E(vib)   ...       0.00 

------------
INNER ENERGY
------------

The inner energy is: U= E(el) + E(ZPE) + E(vib) + E(rot) + E(trans)
    E(el)   - is the total energy from the electronic structure calculation
              = E(kin-el) + E(nuc-el) + E(el-el) + E(nuc-nuc)
    E(ZPE)  - the the zero temperature vibrational energy from the frequency calculation
    E(vib)  - the the finite temperature correction to E(ZPE) due to population
              of excited vibrational states
    E(rot)  - is the rotational thermal energy
    E(trans)- is the translational thermal energy

Summary of contributions to the inner energy U:
Electronic energy                ...   -534.86662305 Eh
Zero point energy                ...      0.21521103 Eh     135.05 kcal/mol
Thermal vibrational correction   ...      0.01057826 Eh       6.64 kcal/mol
Thermal rotational correction    ...      0.00141627 Eh       0.89 kcal/mol
Thermal translational correction ...      0.00141627 Eh       0.89 kcal/mol
-----------------------------------------------------------------------
Total thermal energy                   -534.63800122 Eh


Summary of corrections to the electronic energy:
(perhaps to be used in another calculation)
Total thermal correction                  0.01341080 Eh       8.42 kcal/mol
Non-thermal (ZPE) correction              0.21521103 Eh     135.05 kcal/mol
-----------------------------------------------------------------------
Total correction                          0.22862183 Eh     143.46 kcal/mol


--------
ENTHALPY
--------

The enthalpy is H = U + kB*T
                kB is Boltzmann's constant
Total free energy                 ...   -534.63800122 Eh 
Thermal Enthalpy correction       ...      0.00094421 Eh       0.59 kcal/mol
-----------------------------------------------------------------------
Total Enthalpy                    ...   -534.63705701 Eh


Note: Only C1 symmetry has been detected, increase convergence thresholds 
      if your molecule has a higher symmetry. Symmetry factor of 1.0 is   
      used for the rotational entropy correction. 
 

Note: Rotational entropy computed according to Herzberg 
Infrared and Raman Spectra, Chapter V,1, Van Nostrand Reinhold, 1945 
Point Group:  C1, Symmetry Number:   1  
Rotational constants in cm-1:     0.053749     0.025848     0.023820 

Vibrational entropy computed according to the QRRHO of S. Grimme
Chem.Eur.J. 2012 18 9955


-------
ENTROPY
-------

The entropy contributions are T*S = T*(S(el)+S(vib)+S(rot)+S(trans))
     S(el)   - electronic entropy
     S(vib)  - vibrational entropy
     S(rot)  - rotational entropy
     S(trans)- translational entropy
The entropies will be listed as multiplied by the temperature to get
units of energy

Electronic entropy                ...      0.00000000 Eh      0.00 kcal/mol
Vibrational entropy               ...      0.01922960 Eh     12.07 kcal/mol
Rotational entropy                ...      0.01438097 Eh      9.02 kcal/mol
Translational entropy             ...      0.01952088 Eh     12.25 kcal/mol
-----------------------------------------------------------------------
Final entropy term                ...      0.05313145 Eh     33.34 kcal/mol

In case the symmetry of your molecule has not been determined correctly
or in case you have a reason to use a different symmetry number we print 
out the resulting rotational entropy values for sn=1,12 :
 --------------------------------------------------------
|  sn= 1 | S(rot)=       0.01438097 Eh      9.02 kcal/mol|
|  sn= 2 | S(rot)=       0.01372651 Eh      8.61 kcal/mol|
|  sn= 3 | S(rot)=       0.01334368 Eh      8.37 kcal/mol|
|  sn= 4 | S(rot)=       0.01307206 Eh      8.20 kcal/mol|
|  sn= 5 | S(rot)=       0.01286137 Eh      8.07 kcal/mol|
|  sn= 6 | S(rot)=       0.01268922 Eh      7.96 kcal/mol|
|  sn= 7 | S(rot)=       0.01254368 Eh      7.87 kcal/mol|
|  sn= 8 | S(rot)=       0.01241760 Eh      7.79 kcal/mol|
|  sn= 9 | S(rot)=       0.01230639 Eh      7.72 kcal/mol|
|  sn=10 | S(rot)=       0.01220691 Eh      7.66 kcal/mol|
|  sn=11 | S(rot)=       0.01211692 Eh      7.60 kcal/mol|
|  sn=12 | S(rot)=       0.01203477 Eh      7.55 kcal/mol|
 --------------------------------------------------------


-------------------
GIBBS FREE ENERGY
-------------------

The Gibbs free energy is G = H - T*S

Total enthalpy                    ...   -534.63705701 Eh 
Total entropy correction          ...     -0.05313145 Eh    -33.34 kcal/mol
-----------------------------------------------------------------------
Final Gibbs free energy         ...   -534.69018846 Eh

For completeness - the Gibbs free energy minus the electronic energy
G-E(el)                           ...      0.17643459 Eh    110.71 kcal/mol


Timings for individual modules:

Sum of individual times         ...      728.965 sec (=  12.149 min)
GTO integral calculation        ...        9.796 sec (=   0.163 min)   1.3 %
SCF iterations                  ...      328.505 sec (=   5.475 min)  45.1 %
SCF Gradient evaluation         ...       93.225 sec (=   1.554 min)  12.8 %
Geometry relaxation             ...        1.258 sec (=   0.021 min)   0.2 %
Analytical frequency calculation...      296.181 sec (=   4.936 min)  40.6 %
                             ****ORCA TERMINATED NORMALLY****
TOTAL RUN TIME: 0 days 0 hours 12 minutes 13 seconds 275 msec
