
                                 *****************
                                 * O   R   C   A *
                                 *****************

                                            #,                                       
                                            ###                                      
                                            ####                                     
                                            #####                                    
                                            ######                                   
                                           ########,                                 
                                     ,,################,,,,,                         
                               ,,#################################,,                 
                          ,,##########################################,,             
                       ,#########################################, ''#####,          
                    ,#############################################,,   '####,        
                  ,##################################################,,,,####,       
                ,###########''''           ''''###############################       
              ,#####''   ,,,,##########,,,,          '''####'''          '####       
            ,##' ,,,,###########################,,,                        '##       
           ' ,,###''''                  '''############,,,                           
         ,,##''                                '''############,,,,        ,,,,,,###''
      ,#''                                            '''#######################'''  
     '                                                          ''''####''''         
             ,#######,   #######,   ,#######,      ##                                
            ,#'     '#,  ##    ##  ,#'     '#,    #''#        ######   ,####,        
            ##       ##  ##   ,#'  ##            #'  '#       #        #'  '#        
            ##       ##  #######   ##           ,######,      #####,   #    #        
            '#,     ,#'  ##    ##  '#,     ,#' ,#      #,         ##   #,  ,#        
             '#######'   ##     ##  '#######'  #'      '#     #####' # '####'        



                  #######################################################
                  #                        -***-                        #
                  #          Department of theory and spectroscopy      #
                  #    Directorship and core code : Frank Neese         #
                  #        Max Planck Institute fuer Kohlenforschung    #
                  #                Kaiser Wilhelm Platz 1               #
                  #                 D-45470 Muelheim/Ruhr               #
                  #                      Germany                        #
                  #                                                     #
                  #                  All rights reserved                #
                  #                        -***-                        #
                  #######################################################


                         Program Version 5.0.4 -  RELEASE  -


 With contributions from (in alphabetic order):
   Daniel Aravena         : Magnetic Suceptibility
   Michael Atanasov       : Ab Initio Ligand Field Theory (pilot matlab implementation)
   Alexander A. Auer      : GIAO ZORA, VPT2 properties, NMR spectrum
   Ute Becker             : Parallelization
   Giovanni Bistoni       : ED, misc. LED, open-shell LED, HFLD
   Martin Brehm           : Molecular dynamics
   Dmytro Bykov           : SCF Hessian
   Vijay G. Chilkuri      : MRCI spin determinant printing, contributions to CSF-ICE
   Dipayan Datta          : RHF DLPNO-CCSD density
   Achintya Kumar Dutta   : EOM-CC, STEOM-CC
   Dmitry Ganyushin       : Spin-Orbit,Spin-Spin,Magnetic field MRCI
   Miquel Garcia          : C-PCM and meta-GGA Hessian, CC/C-PCM, Gaussian charge scheme
   Yang Guo               : DLPNO-NEVPT2, F12-NEVPT2, CIM, IAO-localization
   Andreas Hansen         : Spin unrestricted coupled pair/coupled cluster methods
   Benjamin Helmich-Paris : MC-RPA, TRAH-SCF, COSX integrals
   Lee Huntington         : MR-EOM, pCC
   Robert Izsak           : Overlap fitted RIJCOSX, COSX-SCS-MP3, EOM
   Marcus Kettner         : VPT2
   Christian Kollmar      : KDIIS, OOCD, Brueckner-CCSD(T), CCSD density, CASPT2, CASPT2-K
   Simone Kossmann        : Meta GGA functionals, TD-DFT gradient, OOMP2, MP2 Hessian
   Martin Krupicka        : Initial AUTO-CI
   Lucas Lang             : DCDCAS
   Marvin Lechner         : AUTO-CI (C++ implementation), FIC-MRCC
   Dagmar Lenk            : GEPOL surface, SMD
   Dimitrios Liakos       : Extrapolation schemes; Compound Job, initial MDCI parallelization
   Dimitrios Manganas     : Further ROCIS development; embedding schemes
   Dimitrios Pantazis     : SARC Basis sets
   Anastasios Papadopoulos: AUTO-CI, single reference methods and gradients
   Taras Petrenko         : DFT Hessian,TD-DFT gradient, ASA, ECA, R-Raman, ABS, FL, XAS/XES, NRVS
   Peter Pinski           : DLPNO-MP2, DLPNO-MP2 Gradient
   Christoph Reimann      : Effective Core Potentials
   Marius Retegan         : Local ZFS, SOC
   Christoph Riplinger    : Optimizer, TS searches, QM/MM, DLPNO-CCSD(T), (RO)-DLPNO pert. Triples
   Tobias Risthaus        : Range-separated hybrids, TD-DFT gradient, RPA, STAB
   Michael Roemelt        : Original ROCIS implementation
   Masaaki Saitow         : Open-shell DLPNO-CCSD energy and density
   Barbara Sandhoefer     : DKH picture change effects
   Avijit Sen             : IP-ROCIS
   Kantharuban Sivalingam : CASSCF convergence, NEVPT2, FIC-MRCI
   Bernardo de Souza      : ESD, SOC TD-DFT
   Georgi Stoychev        : AutoAux, RI-MP2 NMR, DLPNO-MP2 response
   Willem Van den Heuvel  : Paramagnetic NMR
   Boris Wezisla          : Elementary symmetry handling
   Frank Wennmohs         : Technical directorship


 We gratefully acknowledge several colleagues who have allowed us to
 interface, adapt or use parts of their codes:
   Stefan Grimme, W. Hujo, H. Kruse, P. Pracht,  : VdW corrections, initial TS optimization,
                  C. Bannwarth, S. Ehlert          DFT functionals, gCP, sTDA/sTD-DF
   Ed Valeev, F. Pavosevic, A. Kumar             : LibInt (2-el integral package), F12 methods
   Garnet Chan, S. Sharma, J. Yang, R. Olivares  : DMRG
   Ulf Ekstrom                                   : XCFun DFT Library
   Mihaly Kallay                                 : mrcc  (arbitrary order and MRCC methods)
   Jiri Pittner, Ondrej Demel                    : Mk-CCSD
   Frank Weinhold                                : gennbo (NPA and NBO analysis)
   Christopher J. Cramer and Donald G. Truhlar   : smd solvation model
   Lars Goerigk                                  : TD-DFT with DH, B97 family of functionals
   V. Asgeirsson, H. Jonsson                     : NEB implementation
   FAccTs GmbH                                   : IRC, NEB, NEB-TS, DLPNO-Multilevel, CI-OPT
                                                   MM, QMMM, 2- and 3-layer-ONIOM, Crystal-QMMM,
                                                   LR-CPCM, SF, NACMEs, symmetry and pop. for TD-DFT,
                                                   nearIR, NL-DFT gradient (VV10), updates on ESD,
                                                   ML-optimized integration grids
   S Lehtola, MJT Oliveira, MAL Marques          : LibXC Library
   Liviu Ungur et al                             : ANISO software


 Your calculation uses the libint2 library for the computation of 2-el integrals
 For citations please refer to: http://libint.valeyev.net

 Your ORCA version has been built with support for libXC version: 5.1.0
 For citations please refer to: https://tddft.org/programs/libxc/

 This ORCA versions uses:
   CBLAS   interface :  Fast vector & matrix operations
   LAPACKE interface :  Fast linear algebra routines
   SCALAPACK package :  Parallel linear algebra routines
   Shared memory     :  Shared parallel matrices
   BLAS/LAPACK       :  OpenBLAS 0.3.15  USE64BITINT DYNAMIC_ARCH NO_AFFINITY SkylakeX SINGLE_THREADED
        Core in use  :  SkylakeX
   Copyright (c) 2011-2014, The OpenBLAS Project




***************************************
The coordinates will be read from file: /users/fjb15167/WWenergy/structures/Na.xyz
***************************************


Your calculation utilizes the atom-pairwise dispersion correction
based on tight binding partial charges (D4)
Cite in your paper:
E.Caldeweyher, C.Bannwarth, S.Grimme, J.Chem.Phys., (2017), 147, 034112.
E.Caldeweyher, S.Ehlert, A.Hansen, H.Neugebauer, S.Grimme, J.Chem.Phys., (2018), in progress.
   

================================================================================

----- Orbital basis set information -----
Your calculation utilizes the basis: 6-31G(d)
   H-He, Li-Ne : W. J. Hehre, R. Ditchfield and J.A. Pople, J. Chem. Phys. 56, 2257 (1972).
                 Note: He and Ne are unpublished basis sets taken from the Gaussian program.
                 Note: Li and B from J. D. Dill and J. A. Pople, J. Chem. Phys. 62, 2921 (1975).
   Na - Ar     : M. M. Francl, W. J. Pietro, W. J. Hehre, J. S. Binkley, M. S. Gordon, 
                 D. J. DeFrees and J. A. Pople, J. Chem. Phys. 77, 3654 (1982).
   K - Zn      : V. A. Rassolov, J. A. Pople, M. A. Ratner, and T. L. Windus, J. Chem. Phys. 109, 1223 (1998).

----- AuxJ basis set information -----
Your calculation utilizes the AutoAux generation procedure.
  G. L. Stoychev, A. A. Auer, F. Neese, J. Chem. Theory Comput. 13, 554 (2017)

----- AuxC basis set information -----
Your calculation utilizes the AutoAux generation procedure.
  G. L. Stoychev, A. A. Auer, F. Neese, J. Chem. Theory Comput. 13, 554 (2017)

----- AuxJK basis set information -----
Your calculation utilizes the AutoAux generation procedure.
  G. L. Stoychev, A. A. Auer, F. Neese, J. Chem. Theory Comput. 13, 554 (2017)

================================================================================
                                        WARNINGS
                       Please study these warnings very carefully!
================================================================================

WARNING: Old DensityContainer found on disk!
         Will remove this file - 
         If you want to keep old densities, please start your calculation with a different basename. 


WARNING: Geometry Optimization
  ===> : Switching off AutoStart
         For restart on a previous wavefunction, please use MOREAD

INFO   : the flag for use of the SHARK integral package has been found!

================================================================================
                                       INPUT FILE
================================================================================
NAME = Na_water.inp
|  1> ! OPT FREQ B3LYP 6-31G(d) D4 AUTOAUX CPCM(water)
|  2> 
|  3> %PAL NPROCS 4 END
|  4> 
|  5> %maxcore 3375
|  6> 
|  7> *xyzfile 0 1 /users/fjb15167/WWenergy/structures/Na.xyz
|  8> 
|  9>                          ****END OF INPUT****
================================================================================

                       *****************************
                       * Geometry Optimization Run *
                       *****************************

Geometry optimization settings:
Update method            Update   .... BFGS
Choice of coordinates    CoordSys .... Z-matrix Internals
Initial Hessian          InHess   .... Almoef's Model

Convergence Tolerances:
Energy Change            TolE     ....  5.0000e-06 Eh
Max. Gradient            TolMAXG  ....  3.0000e-04 Eh/bohr
RMS Gradient             TolRMSG  ....  1.0000e-04 Eh/bohr
Max. Displacement        TolMAXD  ....  4.0000e-03 bohr
RMS Displacement         TolRMSD  ....  2.0000e-03 bohr
Strict Convergence                ....  False
------------------------------------------------------------------------------
                        ORCA OPTIMIZATION COORDINATE SETUP
------------------------------------------------------------------------------

The optimization will be done in new redundant internal coordinates
Making redundant internal coordinates   ...  (new redundants) done
Evaluating the initial hessian          ...  (Almloef) done
Evaluating the coordinates              ...  done
Calculating the B-matrix                .... done
Calculating the G-matrix                .... done
Diagonalizing the G-matrix              .... done
Small eigenvalue found = 7.616e-03
Small eigenvalue found = 1.257e-02
Small eigenvalue found = 2.329e-02
The first mode is                       ....   41
The number of degrees of freedom        ....   69

    -----------------------------------------------------------------
                    Redundant Internal Coordinates


    -----------------------------------------------------------------
         Definition                    Initial Value    Approx d2E/dq
    -----------------------------------------------------------------
      1. B(O   4,C   0)                  1.2347         0.990181   
      2. B(C   5,H   1)                  1.0922         0.357196   
      3. B(C   5,C   0)                  1.5128         0.397931   
      4. B(C   5,H   3)                  1.0929         0.356332   
      5. B(C   5,H   2)                  1.0896         0.360636   
      6. B(C   7,N   6)                  1.4533         0.443527   
      7. B(H   8,C   7)                  1.0956         0.352772   
      8. B(H   9,C   7)                  1.0945         0.354184   
      9. B(H  10,C   7)                  1.0876         0.363255   
     10. B(C  11,N   6)                  1.4555         0.439916   
     11. B(H  12,C  11)                  1.0956         0.352709   
     12. B(H  13,C  11)                  1.0951         0.353451   
     13. B(H  14,C  11)                  1.0889         0.361555   
     14. B(N  15,C   0)                  1.3856         0.568762   
     15. B(C  16,N  15)                  1.4585         0.435021   
     16. B(H  17,C  16)                  1.0963         0.351831   
     17. B(H  18,C  16)                  1.0958         0.352567   
     18. B(C  19,N  15)                  1.4589         0.434403   
     19. B(H  20,C  19)                  1.0871         0.364000   
     20. B(H  21,C  19)                  1.0962         0.352012   
     21. B(H  22,C  19)                  1.0940         0.354908   
     22. B(C  23,C  16)                  1.5308         0.372443   
     23. B(C  23,N   6)                  1.3651         0.613091   
     24. B(O  24,C  23)                  1.2366         0.983078   
     25. A(O   4,C   0,N  15)          121.2209         0.459055   
     26. A(C   5,C   0,N  15)          117.3602         0.392561   
     27. A(O   4,C   0,C   5)          121.3779         0.433147   
     28. A(H   1,C   5,H   3)          107.3409         0.289991   
     29. A(C   0,C   5,H   2)          106.8800         0.327787   
     30. A(H   1,C   5,H   2)          109.8590         0.290538   
     31. A(C   0,C   5,H   1)          113.0415         0.327270   
     32. A(H   2,C   5,H   3)          108.9938         0.290427   
     33. A(C   0,C   5,H   3)          110.6840         0.327139   
     34. A(C  11,N   6,C  23)          118.7058         0.402253   
     35. A(C   7,N   6,C  11)          115.8123         0.380119   
     36. A(C   7,N   6,C  23)          125.4766         0.402833   
     37. A(H   9,C   7,H  10)          108.0166         0.290482   
     38. A(N   6,C   7,H   9)          108.1958         0.330720   
     39. A(H   8,C   7,H  10)          108.6738         0.290299   
     40. A(N   6,C   7,H  10)          111.0862         0.332107   
     41. A(H   8,C   7,H   9)          108.8381         0.289151   
     42. A(N   6,C   7,H   8)          111.9300         0.330501   
     43. A(N   6,C  11,H  12)          110.4852         0.330045   
     44. A(H  13,C  11,H  14)          109.9593         0.290173   
     45. A(H  12,C  11,H  14)          109.3969         0.290078   
     46. A(N   6,C  11,H  14)          108.2581         0.331400   
     47. A(H  12,C  11,H  13)          108.7812         0.289049   
     48. A(N   6,C  11,H  13)          109.9519         0.330159   
     49. A(C  16,N  15,C  19)          116.4121         0.378020   
     50. A(C   0,N  15,C  19)          116.8074         0.396099   
     51. A(C   0,N  15,C  16)          122.3436         0.396197   
     52. A(H  17,C  16,H  18)          106.9193         0.288823   
     53. A(N  15,C  16,H  18)          107.1574         0.329413   
     54. A(N  15,C  16,H  17)          112.6534         0.329300   
     55. A(H  17,C  16,C  23)          105.3140         0.322924   
     56. A(N  15,C  16,C  23)          116.0269         0.370442   
     57. A(H  18,C  16,C  23)          108.3799         0.323035   
     58. A(H  20,C  19,H  21)          108.8953         0.290294   
     59. A(N  15,C  19,H  21)          111.4962         0.329250   
     60. A(N  15,C  19,H  20)          108.2784         0.331078   
     61. A(H  21,C  19,H  22)          108.7019         0.289145   
     62. A(H  20,C  19,H  22)          109.8252         0.290668   
     63. A(N  15,C  19,H  22)          109.6290         0.329696   
     64. A(C  16,C  23,O  24)          119.1261         0.427478   
     65. A(N   6,C  23,O  24)          123.0578         0.464782   
     66. A(N   6,C  23,C  16)          117.8091         0.393170   
     67. D(H   2,C   5,C   0,N  15)   -171.7506         0.011757   
     68. D(H   2,C   5,C   0,O   4)     10.5522         0.011757   
     69. D(H   1,C   5,C   0,N  15)    -50.7637         0.011757   
     70. D(H   3,C   5,C   0,O   4)   -108.0103         0.011757   
     71. D(H   3,C   5,C   0,N  15)     69.6869         0.011757   
     72. D(H   1,C   5,C   0,O   4)    131.5391         0.011757   
     73. D(H   8,C   7,N   6,C  11)    -81.0716         0.016776   
     74. D(H  10,C   7,N   6,C  23)    -23.6009         0.016776   
     75. D(H   9,C   7,N   6,C  11)     38.8452         0.016776   
     76. D(H   8,C   7,N   6,C  23)     98.0786         0.016776   
     77. D(H  10,C   7,N   6,C  11)    157.2489         0.016776   
     78. D(H   9,C   7,N   6,C  23)   -142.0047         0.016776   
     79. D(H  13,C  11,N   6,C   7)     55.2792         0.016502   
     80. D(H  12,C  11,N   6,C  23)    115.9851         0.016502   
     81. D(H  12,C  11,N   6,C   7)    -64.8039         0.016502   
     82. D(H  14,C  11,N   6,C  23)     -3.7886         0.016502   
     83. D(H  14,C  11,N   6,C   7)    175.4224         0.016502   
     84. D(H  13,C  11,N   6,C  23)   -123.9318         0.016502   
     85. D(C  19,N  15,C   0,C   5)    171.5524         0.025882   
     86. D(C  16,N  15,C   0,C   5)     16.0633         0.025882   
     87. D(C  16,N  15,C   0,O   4)   -166.2357         0.025882   
     88. D(C  19,N  15,C   0,O   4)    -10.7466         0.025882   
     89. D(C  23,C  16,N  15,C  19)    141.8901         0.016135   
     90. D(C  23,C  16,N  15,C   0)    -62.5306         0.016135   
     91. D(H  18,C  16,N  15,C  19)     20.6916         0.016135   
     92. D(H  18,C  16,N  15,C   0)    176.2709         0.016135   
     93. D(H  17,C  16,N  15,C  19)    -96.6241         0.016135   
     94. D(H  17,C  16,N  15,C   0)     58.9551         0.016135   
     95. D(H  21,C  19,N  15,C   0)    -91.2245         0.016089   
     96. D(H  20,C  19,N  15,C  16)   -174.4860         0.016089   
     97. D(H  20,C  19,N  15,C   0)     28.5526         0.016089   
     98. D(H  22,C  19,N  15,C  16)    -54.6835         0.016089   
     99. D(H  22,C  19,N  15,C   0)    148.3552         0.016089   
    100. D(H  21,C  19,N  15,C  16)     65.7369         0.016089   
    101. D(O  24,C  23,C  16,H  18)   -109.8065         0.010378   
    102. D(O  24,C  23,C  16,N  15)    129.6503         0.010378   
    103. D(N   6,C  23,C  16,H  18)     69.2647         0.010378   
    104. D(N   6,C  23,C  16,H  17)   -176.5968         0.010378   
    105. D(N   6,C  23,C  16,N  15)    -51.2785         0.010378   
    106. D(O  24,C  23,N   6,C  11)     -5.9842         0.030384   
    107. D(O  24,C  23,N   6,C   7)    174.8880         0.030384   
    108. D(O  24,C  23,C  16,H  17)      4.3320         0.010378   
    109. D(C  16,C  23,N   6,C  11)    174.9838         0.030384   
    110. D(C  16,C  23,N   6,C   7)     -4.1440         0.030384   
    -----------------------------------------------------------------

Number of atoms                         .... 25
Number of degrees of freedom            .... 110

         *************************************************************
         *                GEOMETRY OPTIMIZATION CYCLE   1            *
         *************************************************************
---------------------------------
CARTESIAN COORDINATES (ANGSTROEM)
---------------------------------
  C     -1.739000    0.622000   -0.433000
  H     -0.623000    2.285000    0.441000
  H     -1.533000    2.622000   -1.058000
  H     -0.006000    1.715000   -1.106000
  O     -2.794000    0.487000   -1.060000
  C     -0.920000    1.890000   -0.533000
  N      1.713000   -0.436000   -0.275000
  C      1.161000   -1.660000   -0.831000
  H      0.575000   -1.470000   -1.737000
  H      1.992000   -2.327000   -1.081000
  H      0.528000   -2.168000   -0.107000
  C      2.932000    0.052000   -0.903000
  H      3.753000   -0.657000   -0.749000
  H      2.773000    0.179000   -1.979000
  H      3.190000    1.008000   -0.450000
  N     -1.234000   -0.402000    0.352000
  C     -0.168000   -0.187000    1.324000
  H     -0.434000    0.556000    2.085000
  H     -0.011000   -1.137000    1.847000
  C     -2.114000   -1.540000    0.595000
  H     -2.790000   -1.635000   -0.251000
  H     -2.705000   -1.403000    1.508000
  H     -1.517000   -2.451000    0.697000
  C      1.175000    0.279000    0.756000
  O      1.730000    1.265000    1.255000

----------------------------
CARTESIAN COORDINATES (A.U.)
----------------------------
  NO LB      ZA    FRAG     MASS         X           Y           Z
   0 C     6.0000    0    12.011   -3.286234    1.175410   -0.818251
   1 H     1.0000    0     1.008   -1.177299    4.318024    0.833369
   2 H     1.0000    0     1.008   -2.896950    4.954862   -1.999330
   3 H     1.0000    0     1.008   -0.011338    3.240880   -2.090037
   4 O     8.0000    0    15.999   -5.279895    0.920297   -2.003110
   5 C     6.0000    0    12.011   -1.738548    3.571582   -1.007224
   6 N     7.0000    0    14.007    3.237101   -0.823921   -0.519675
   7 C     6.0000    0    12.011    2.193972   -3.136945   -1.570362
   8 H     1.0000    0     1.008    1.086593   -2.777897   -3.282454
   9 H     1.0000    0     1.008    3.764334   -4.397393   -2.042794
  10 H     1.0000    0     1.008    0.997775   -4.096926   -0.202201
  11 C     6.0000    0    12.011    5.540677    0.098266   -1.706423
  12 H     1.0000    0     1.008    7.092142   -1.241550   -1.415405
  13 H     1.0000    0     1.008    5.240211    0.338261   -3.739768
  14 H     1.0000    0     1.008    6.028226    1.904844   -0.850377
  15 N     7.0000    0    14.007   -2.331922   -0.759670    0.665184
  16 C     6.0000    0    12.011   -0.317474   -0.353379    2.501997
  17 H     1.0000    0     1.008   -0.820141    1.050688    3.940079
  18 H     1.0000    0     1.008   -0.020787   -2.148619    3.490324
  19 C     6.0000    0    12.011   -3.994881   -2.910178    1.124387
  20 H     1.0000    0     1.008   -5.272336   -3.089702   -0.474321
  21 H     1.0000    0     1.008   -5.111709   -2.651286    2.849707
  22 H     1.0000    0     1.008   -2.866715   -4.631719    1.317139
  23 C     6.0000    0    12.011    2.220428    0.527234    1.428633
  24 O     8.0000    0    15.999    3.269226    2.390504    2.371606

--------------------------------
INTERNAL COORDINATES (ANGSTROEM)
--------------------------------
 C      0   0   0     0.000000000000     0.00000000     0.00000000
 H      1   0   0     2.185154685600     0.00000000     0.00000000
 H      2   1   0     1.785684742613    63.10237182     0.00000000
 H      2   1   3     1.760340308009    65.23371516   292.39133669
 O      1   2   3     1.234657442370   136.28086181   326.53151185
 C      3   2   1     1.089595337729    35.11860885   321.45859003
 N      4   2   1     2.876164633675   101.40451667   274.22163788
 C      7   4   2     1.453277674775   106.99749869   116.48067502
 H      8   7   4     1.095596641105   111.93004377    25.97944592
 H      8   7   4     1.094509022347   108.19575726   145.89617751
 H      8   7   4     1.087625395069   111.08621649   264.29995671
 C      7   4   2     1.455503005837    97.18933232   236.31414826
 H     12   7   4     1.095645015505   110.48520123   182.34635542
 H     12   7   4     1.095073513514   109.95192088   302.42948868
 H     12   7   4     1.088902658643   108.25808310    62.57272489
 N      1   2   3     1.385577857791    98.60944618   170.05855423
 C     16   1   2     1.458548936443   122.34360220   354.94374969
 H     17  16   1     1.096323857261   112.65344007    58.95509168
 H     17  16   1     1.095754534556   107.15737134   176.27087754
 C     16   1   2     1.458935570887   116.80737074   150.43288364
 H     20  16   1     1.087068075145   108.27838092    28.55264314
 H     20  16   1     1.096183834947   111.49621362   268.77547562
 H     20  16   1     1.093953381091   109.62899397   148.35516686
 C      7   4   2     1.365148343588    65.85585854   354.60761050
 O     24   7   4     1.236617159836   123.05780666   269.12777931

---------------------------
INTERNAL COORDINATES (A.U.)
---------------------------
 C      0   0   0     0.000000000000     0.00000000     0.00000000
 H      1   0   0     4.129343916039     0.00000000     0.00000000
 H      2   1   0     3.374455125060    63.10237182     0.00000000
 H      2   1   3     3.326561084639    65.23371516   292.39133669
 O      1   2   3     2.333164435287   136.28086181   326.53151185
 C      3   2   1     2.059036785105    35.11860885   321.45859003
 N      4   2   1     5.435163473715   101.40451667   274.22163788
 C      7   4   2     2.746296801867   106.99749869   116.48067502
 H      8   7   4     2.070377604932   111.93004377    25.97944592
 H      8   7   4     2.068322303343   108.19575726   145.89617751
 H      8   7   4     2.055314132979   111.08621649   264.29995671
 C      7   4   2     2.750502068131    97.18933232   236.31414826
 H     12   7   4     2.070469019300   110.48520123   182.34635542
 H     12   7   4     2.069389037052   109.95192088   302.42948868
 H     12   7   4     2.057727811334   108.25808310    62.57272489
 N      1   2   3     2.618362688450    98.60944618   170.05855423
 C     16   1   2     2.756258042800   122.34360220   354.94374969
 H     17  16   1     2.071751844308   112.65344007    58.95509168
 H     17  16   1     2.070675980313   107.15737134   176.27087754
 C     16   1   2     2.756988676013   116.80737074   150.43288364
 H     20  16   1     2.054260950953   108.27838092    28.55264314
 H     20  16   1     2.071487240482   111.49621362   268.77547562
 H     20  16   1     2.067272293539   109.62899397   148.35516686
 C      7   4   2     2.579756501557    65.85585854   354.60761050
 O     24   7   4     2.336867764597   123.05780666   269.12777931

---------------------
BASIS SET INFORMATION
---------------------
There are 4 groups of distinct atoms

 Group   1 Type C   : 10s4p1d contracted to 3s2p1d pattern {631/31/1}
 Group   2 Type H   : 4s contracted to 2s pattern {31}
 Group   3 Type O   : 10s4p1d contracted to 3s2p1d pattern {631/31/1}
 Group   4 Type N   : 10s4p1d contracted to 3s2p1d pattern {631/31/1}

Atom   0C    basis set group =>   1
Atom   1H    basis set group =>   2
Atom   2H    basis set group =>   2
Atom   3H    basis set group =>   2
Atom   4O    basis set group =>   3
Atom   5C    basis set group =>   1
Atom   6N    basis set group =>   4
Atom   7C    basis set group =>   1
Atom   8H    basis set group =>   2
Atom   9H    basis set group =>   2
Atom  10H    basis set group =>   2
Atom  11C    basis set group =>   1
Atom  12H    basis set group =>   2
Atom  13H    basis set group =>   2
Atom  14H    basis set group =>   2
Atom  15N    basis set group =>   4
Atom  16C    basis set group =>   1
Atom  17H    basis set group =>   2
Atom  18H    basis set group =>   2
Atom  19C    basis set group =>   1
Atom  20H    basis set group =>   2
Atom  21H    basis set group =>   2
Atom  22H    basis set group =>   2
Atom  23C    basis set group =>   1
Atom  24O    basis set group =>   3
---------------------------------
AUXILIARY/J BASIS SET INFORMATION
---------------------------------
There are 4 groups of distinct atoms

 Group   1 Type C   : 13s11p10d2f contracted to 13s11p10d2f pattern {1111111111111/11111111111/1111111111/11}
 Group   2 Type H   : 9s2p contracted to 9s2p pattern {111111111/11}
 Group   3 Type O   : 14s11p10d2f contracted to 14s11p10d2f pattern {11111111111111/11111111111/1111111111/11}
 Group   4 Type N   : 14s11p10d2f contracted to 14s11p10d2f pattern {11111111111111/11111111111/1111111111/11}

Atom   0C    basis set group =>   1
Atom   1H    basis set group =>   2
Atom   2H    basis set group =>   2
Atom   3H    basis set group =>   2
Atom   4O    basis set group =>   3
Atom   5C    basis set group =>   1
Atom   6N    basis set group =>   4
Atom   7C    basis set group =>   1
Atom   8H    basis set group =>   2
Atom   9H    basis set group =>   2
Atom  10H    basis set group =>   2
Atom  11C    basis set group =>   1
Atom  12H    basis set group =>   2
Atom  13H    basis set group =>   2
Atom  14H    basis set group =>   2
Atom  15N    basis set group =>   4
Atom  16C    basis set group =>   1
Atom  17H    basis set group =>   2
Atom  18H    basis set group =>   2
Atom  19C    basis set group =>   1
Atom  20H    basis set group =>   2
Atom  21H    basis set group =>   2
Atom  22H    basis set group =>   2
Atom  23C    basis set group =>   1
Atom  24O    basis set group =>   3
---------------------------------
AUXILIARY/C BASIS SET INFORMATION
---------------------------------
There are 4 groups of distinct atoms

 Group   1 Type C   : 13s11p10d2f contracted to 13s11p10d2f pattern {1111111111111/11111111111/1111111111/11}
 Group   2 Type H   : 9s2p contracted to 9s2p pattern {111111111/11}
 Group   3 Type O   : 14s11p10d2f contracted to 14s11p10d2f pattern {11111111111111/11111111111/1111111111/11}
 Group   4 Type N   : 14s11p10d2f contracted to 14s11p10d2f pattern {11111111111111/11111111111/1111111111/11}

Atom   0C    basis set group =>   1
Atom   1H    basis set group =>   2
Atom   2H    basis set group =>   2
Atom   3H    basis set group =>   2
Atom   4O    basis set group =>   3
Atom   5C    basis set group =>   1
Atom   6N    basis set group =>   4
Atom   7C    basis set group =>   1
Atom   8H    basis set group =>   2
Atom   9H    basis set group =>   2
Atom  10H    basis set group =>   2
Atom  11C    basis set group =>   1
Atom  12H    basis set group =>   2
Atom  13H    basis set group =>   2
Atom  14H    basis set group =>   2
Atom  15N    basis set group =>   4
Atom  16C    basis set group =>   1
Atom  17H    basis set group =>   2
Atom  18H    basis set group =>   2
Atom  19C    basis set group =>   1
Atom  20H    basis set group =>   2
Atom  21H    basis set group =>   2
Atom  22H    basis set group =>   2
Atom  23C    basis set group =>   1
Atom  24O    basis set group =>   3
----------------------------------
AUXILIARY/JK BASIS SET INFORMATION
----------------------------------
There are 4 groups of distinct atoms

 Group   1 Type C   : 13s11p10d2f contracted to 13s11p10d2f pattern {1111111111111/11111111111/1111111111/11}
 Group   2 Type H   : 9s2p contracted to 9s2p pattern {111111111/11}
 Group   3 Type O   : 14s11p10d2f contracted to 14s11p10d2f pattern {11111111111111/11111111111/1111111111/11}
 Group   4 Type N   : 14s11p10d2f contracted to 14s11p10d2f pattern {11111111111111/11111111111/1111111111/11}

Atom   0C    basis set group =>   1
Atom   1H    basis set group =>   2
Atom   2H    basis set group =>   2
Atom   3H    basis set group =>   2
Atom   4O    basis set group =>   3
Atom   5C    basis set group =>   1
Atom   6N    basis set group =>   4
Atom   7C    basis set group =>   1
Atom   8H    basis set group =>   2
Atom   9H    basis set group =>   2
Atom  10H    basis set group =>   2
Atom  11C    basis set group =>   1
Atom  12H    basis set group =>   2
Atom  13H    basis set group =>   2
Atom  14H    basis set group =>   2
Atom  15N    basis set group =>   4
Atom  16C    basis set group =>   1
Atom  17H    basis set group =>   2
Atom  18H    basis set group =>   2
Atom  19C    basis set group =>   1
Atom  20H    basis set group =>   2
Atom  21H    basis set group =>   2
Atom  22H    basis set group =>   2
Atom  23C    basis set group =>   1
Atom  24O    basis set group =>   3


           ************************************************************
           *        Program running with 4 parallel MPI-processes     *
           *              working on a common directory               *
           ************************************************************
------------------------------------------------------------------------------
                           ORCA GTO INTEGRAL CALCULATION
                           -- RI-GTO INTEGRALS CHOSEN --
------------------------------------------------------------------------------
------------------------------------------------------------------------------
                   ___                                                        
                  /   \      - P O W E R E D   B Y -                         
                 /     \                                                     
                 |  |  |   _    _      __       _____    __    __             
                 |  |  |  | |  | |    /  \     |  _  \  |  |  /  |          
                  \  \/   | |  | |   /    \    | | | |  |  | /  /          
                 / \  \   | |__| |  /  /\  \   | |_| |  |  |/  /          
                |  |  |   |  __  | /  /__\  \  |    /   |      \           
                |  |  |   | |  | | |   __   |  |    \   |  |\   \          
                \     /   | |  | | |  |  |  |  | |\  \  |  | \   \       
                 \___/    |_|  |_| |__|  |__|  |_| \__\ |__|  \__/        
                                                                              
                      - O R C A' S   B I G   F R I E N D -                    
                                      &                                       
                       - I N T E G R A L  F E E D E R -                       
                                                                              
 v1 FN, 2020, v2 2021                                                         
------------------------------------------------------------------------------


Reading SHARK input file Na_water.SHARKINP.tmp ... ok
----------------------
SHARK INTEGRAL PACKAGE
----------------------

Number of atoms                             ...     25
Number of basis functions                   ...    182
Number of shells                            ...     94
Maximum angular momentum                    ...      2
Integral batch strategy                     ... SHARK/LIBINT Hybrid
RI-J (if used) integral strategy            ... SPLIT-RIJ (Revised 2003 algorithm where possible)
Printlevel                                  ...      1
Contraction scheme used                     ... SEGMENTED contraction
Coulomb Range Separation                    ... NOT USED
Exchange Range Separation                   ... NOT USED
Finite Nucleus Model                        ... NOT USED
Auxiliary Coulomb fitting basis             ... AVAILABLE
   # of basis functions in Aux-J            ...   1424
   # of shells in Aux-J                     ...    554
   Maximum angular momentum in Aux-J        ...      3
Auxiliary J/K fitting basis                 ... AVAILABLE
   # of basis functions in Aux-JK           ...   1424
   # of shells in Aux-JK                    ...    554
   Maximum angular momentum in Aux-JK       ...      3
Auxiliary Correlation fitting basis         ... AVAILABLE
   # of basis functions in Aux-C            ...   1424
   # of shells in Aux-C                     ...    554
   Maximum angular momentum in Aux-C        ...      3
Auxiliary 'external' fitting basis          ... NOT available
Integral threshold                          ...     2.500000e-11
Primitive cut-off                           ...     2.500000e-12
Primitive pair pre-selection threshold      ...     2.500000e-12

Calculating pre-screening integrals         ... done (  0.0 sec) Dimension = 94
Organizing shell pair data                  ... done (  0.0 sec)
Shell pair information
Total number of shell pairs                 ...      4465
Shell pairs after pre-screening             ...      4109
Total number of primitive shell pairs       ...     24804
Primitive shell pairs kept                  ...     14171
          la=0 lb=0:   1686 shell pairs
          la=1 lb=0:   1281 shell pairs
          la=1 lb=1:    250 shell pairs
          la=2 lb=0:    596 shell pairs
          la=2 lb=1:    233 shell pairs
          la=2 lb=2:     63 shell pairs

Calculating one electron integrals          ... done (  0.0 sec)
Calculating RI/J V-Matrix + Cholesky decomp.... done (  0.4 sec)
Calculating RI/JK V-Matrix + Cholesky decomp... done (  0.3 sec)
Calculating RI/C V-Matrix + Cholesky decomp.... done (  0.5 sec)
Calculating Nuclear repulsion               ... done (  0.1 sec) ENN=    676.666068432552 Eh

SHARK setup successfully completed in   2.4 seconds

Maximum memory used throughout the entire GTOINT-calculation: 19.8 MB


           ************************************************************
           *        Program running with 4 parallel MPI-processes     *
           *              working on a common directory               *
           ************************************************************
-------------------------------------------------------------------------------
                                 ORCA SCF
-------------------------------------------------------------------------------

------------
SCF SETTINGS
------------
Hamiltonian:
 Density Functional     Method          .... DFT(GTOs)
 Exchange Functional    Exchange        .... B88
   X-Alpha parameter    XAlpha          ....  0.666667
   Becke's b parameter  XBeta           ....  0.004200
 Correlation Functional Correlation     .... LYP
 LDA part of GGA corr.  LDAOpt          .... VWN-5
 Gradients option       PostSCFGGA      .... off
 Hybrid DFT is turned on
   Fraction HF Exchange ScalHFX         ....  0.200000
   Scaling of DF-GGA-X  ScalDFX         ....  0.720000
   Scaling of DF-GGA-C  ScalDFC         ....  0.810000
   Scaling of DF-LDA-C  ScalLDAC        ....  1.000000
   Perturbative correction              ....  0.000000
   Density functional embedding theory  .... OFF
   NL short-range parameter             ....  4.800000
 RI-approximation to the Coulomb term is turned on
   Number of AuxJ basis functions       .... 1424
   RIJ-COSX (HFX calculated with COS-X)).... on


General Settings:
 Integral files         IntName         .... Na_water
 Hartree-Fock type      HFTyp           .... RHF
 Total Charge           Charge          ....    0
 Multiplicity           Mult            ....    1
 Number of Electrons    NEL             ....   86
 Basis Dimension        Dim             ....  182
 Nuclear Repulsion      ENuc            ....    676.6660684326 Eh

Convergence Acceleration:
 DIIS                   CNVDIIS         .... on
   Start iteration      DIISMaxIt       ....    12
   Startup error        DIISStart       ....  0.200000
   # of expansion vecs  DIISMaxEq       ....     5
   Bias factor          DIISBfac        ....   1.050
   Max. coefficient     DIISMaxC        ....  10.000
 Trust-Rad. Augm. Hess. CNVTRAH         .... auto
   Auto Start mean grad. ratio tolernc. ....  1.125000
   Auto Start start iteration           ....    20
   Auto Start num. interpolation iter.  ....    10
   Max. Number of Micro iterations      ....    16
   Max. Number of Macro iterations      .... Maxiter - #DIIS iter
   Number of Davidson start vectors     ....     2
   Converg. threshold I  (grad. norm)   ....   1.000e-05
   Converg. threshold II (energy diff.) ....   1.000e-08
   Grad. Scal. Fac. for Micro threshold ....   0.100
   Minimum threshold for Micro iter.    ....   0.010
   NR start threshold (gradient norm)   ....   0.001
   Initial trust radius                 ....   0.400
   Minimum AH scaling param. (alpha)    ....   1.000
   Maximum AH scaling param. (alpha)    .... 1000.000
   Orbital update algorithm             .... Taylor
   White noise on init. David. guess    .... on
   Maximum white noise                  ....   0.010
   Quad. conv. algorithm                .... NR
 SOSCF                  CNVSOSCF        .... on
   Start iteration      SOSCFMaxIt      ....   150
   Startup grad/error   SOSCFStart      ....  0.003300
 Level Shifting         CNVShift        .... on
   Level shift para.    LevelShift      ....    0.2500
   Turn off err/grad.   ShiftErr        ....    0.0010
 Zerner damping         CNVZerner       .... off
 Static damping         CNVDamp         .... on
   Fraction old density DampFac         ....    0.7000
   Max. Damping (<1)    DampMax         ....    0.9800
   Min. Damping (>=0)   DampMin         ....    0.0000
   Turn off err/grad.   DampErr         ....    0.1000
 Fernandez-Rico         CNVRico         .... off

SCF Procedure:
 Maximum # iterations   MaxIter         ....   125
 SCF integral mode      SCFMode         .... Direct
   Integral package                     .... SHARK and LIBINT hybrid scheme
 Reset frequency        DirectResetFreq ....    20
 Integral Threshold     Thresh          ....  2.500e-11 Eh
 Primitive CutOff       TCut            ....  2.500e-12 Eh

Convergence Tolerance:
 Convergence Check Mode ConvCheckMode   .... Total+1el-Energy
 Convergence forced     ConvForced      .... 0
 Energy Change          TolE            ....  1.000e-08 Eh
 1-El. energy change                    ....  1.000e-05 Eh
 Orbital Gradient       TolG            ....  1.000e-05
 Orbital Rotation angle TolX            ....  1.000e-05
 DIIS Error             TolErr          ....  5.000e-07


Diagonalization of the overlap matrix:
Smallest eigenvalue                        ... 3.543e-03
Time for diagonalization                   ...    0.006 sec
Threshold for overlap eigenvalues          ... 1.000e-08
Number of eigenvalues below threshold      ... 0
Time for construction of square roots      ...    0.173 sec
Total time needed                          ...    0.179 sec

Time for model grid setup =    0.159 sec

------------------------------
INITIAL GUESS: MODEL POTENTIAL
------------------------------
Loading Hartree-Fock densities                     ... done
Calculating cut-offs                               ... done
Initializing the effective Hamiltonian             ... done
Setting up the integral package (SHARK)            ... done
Starting the Coulomb interaction                   ... done (   0.3 sec)
Reading the grid                                   ... done
Mapping shells                                     ... done
Starting the XC term evaluation                    ... done (   0.1 sec)
  promolecular density results
     # of electrons  =     86.000514786
     EX              =    -69.705765237
     EC              =     -2.901374787
     EX+EC           =    -72.607140023
Transforming the Hamiltonian                       ... done (   0.0 sec)
Diagonalizing the Hamiltonian                      ... done (   0.0 sec)
Back transforming the eigenvectors                 ... done (   0.0 sec)
Now organizing SCF variables                       ... done
                      ------------------
                      INITIAL GUESS DONE (   0.6 sec)
                      ------------------
-------------------
DFT GRID GENERATION
-------------------

General Integration Accuracy     IntAcc      ... 4.388
Radial Grid Type                 RadialGrid  ... OptM3 with GC (2021)
Angular Grid (max. ang.)         AngularGrid ... 4 (Lebedev-302)
Angular grid pruning method      GridPruning ... 4 (adaptive)
Weight generation scheme         WeightScheme... Becke
Basis function cutoff            BFCut       ... 1.0000e-11
Integration weight cutoff        WCut        ... 1.0000e-14
Angular grids for H and He will be reduced by one unit
Partially contracted basis set               ... off
Rotationally invariant grid construction     ... off

Total number of grid points                  ...   110730
Total number of batches                      ...     1742
Average number of points per batch           ...       63
Average number of grid points per atom       ...     4429
Time for grid setup =    1.958 sec

--------------------
COSX GRID GENERATION
--------------------

GRIDX 1
-------
General Integration Accuracy     IntAcc      ... 3.816
Radial Grid Type                 RadialGrid  ... OptM3 with GC (2021)
Angular Grid (max. ang.)         AngularGrid ... 1 (Lebedev-50)
Angular grid pruning method      GridPruning ... 4 (adaptive)
Weight generation scheme         WeightScheme... Becke
Basis function cutoff            BFCut       ... 1.0000e-11
Integration weight cutoff        WCut        ... 1.0000e-14
Angular grids for H and He will be reduced by one unit
Partially contracted basis set               ... on
Rotationally invariant grid construction     ... off

Total number of grid points                  ...    14124
Total number of batches                      ...      235
Average number of points per batch           ...       60
Average number of grid points per atom       ...      565
UseSFitting                                  ... on

GRIDX 2
-------
General Integration Accuracy     IntAcc      ... 4.020
Radial Grid Type                 RadialGrid  ... OptM3 with GC (2021)
Angular Grid (max. ang.)         AngularGrid ... 2 (Lebedev-110)
Angular grid pruning method      GridPruning ... 4 (adaptive)
Weight generation scheme         WeightScheme... Becke
Basis function cutoff            BFCut       ... 1.0000e-11
Integration weight cutoff        WCut        ... 1.0000e-14
Angular grids for H and He will be reduced by one unit
Partially contracted basis set               ... on
Rotationally invariant grid construction     ... off

Total number of grid points                  ...    29966
Total number of batches                      ...      480
Average number of points per batch           ...       62
Average number of grid points per atom       ...     1199
UseSFitting                                  ... on

GRIDX 3
-------
General Integration Accuracy     IntAcc      ... 4.338
Radial Grid Type                 RadialGrid  ... OptM3 with GC (2021)
Angular Grid (max. ang.)         AngularGrid ... 3 (Lebedev-194)
Angular grid pruning method      GridPruning ... 4 (adaptive)
Weight generation scheme         WeightScheme... Becke
Basis function cutoff            BFCut       ... 1.0000e-11
Integration weight cutoff        WCut        ... 1.0000e-14
Angular grids for H and He will be reduced by one unit
Partially contracted basis set               ... on
Rotationally invariant grid construction     ... off

Total number of grid points                  ...    65395
Total number of batches                      ...     1035
Average number of points per batch           ...       63
Average number of grid points per atom       ...     2616
UseSFitting                                  ... on

Time for X-Grid setup             =    5.493 sec


--------------------
CPCM SOLVATION MODEL
--------------------
CPCM parameters:
  Epsilon                                         ...      80.4000
  Refrac                                          ...       1.3300
  Rsolv                                           ...       1.3000
  Surface type                                    ... GAUSSIAN VDW
  Epsilon function type                           ...         CPCM
Radii:
 Radius for C  used is    3.8550 Bohr (=   2.0400 Ang.)
 Radius for H  used is    2.4944 Bohr (=   1.3200 Ang.)
 Radius for O  used is    3.4469 Bohr (=   1.8240 Ang.)
 Radius for N  used is    3.5149 Bohr (=   1.8600 Ang.)
Calculating surface                               ...        done! (  0.0s)
GEPOL surface points                              ...         1340
GEPOL Volume                                      ...    1372.6501
GEPOL Surface-area                                ...     747.6263
Calculating surface distance matrix               ...        done! (  0.0s)
Performing Cholesky decomposition & store         ...        done! (  0.1s)
Overall time for CPCM initialization              ...                 0.1s
--------------
SCF ITERATIONS
--------------
ITER       Energy         Delta-E        Max-DP      RMS-DP      [F,P]     Damp
               ***  Starting incremental Fock matrix formation  ***
  0   -534.4797704042   0.000000000000 0.09140321  0.00253248  0.2709748 0.7000
  1   -534.6437938206  -0.164023416355 0.05123960  0.00164681  0.1080150 0.7000
                               ***Turning on DIIS***
  2   -534.7053150216  -0.061521201041 0.06548131  0.00248486  0.0396757 0.0000
  3   -534.8066779533  -0.101362931719 0.03444594  0.00112059  0.0556773 0.0000
  4   -534.8262246077  -0.019546654424 0.00923787  0.00036126  0.0127512 0.0000
  5   -534.8277190278  -0.001494420113 0.00278199  0.00010620  0.0041550 0.0000
                      *** Initiating the SOSCF procedure ***
                           *** Shutting down DIIS ***
                      *** Re-Reading the Fockian *** 
                      *** Removing any level shift *** 
ITER      Energy       Delta-E        Grad      Rot      Max-DP    RMS-DP
  6   -534.82778705  -0.0000680267  0.000218  0.000218  0.001219  0.000047
               *** Restarting incremental Fock matrix formation ***
  7   -534.82781028  -0.0000232232  0.000214  0.000834  0.001256  0.000028
  8   -534.82780646   0.0000038163  0.000431  0.000611  0.000810  0.000018
  9   -534.82781233  -0.0000058677  0.000049  0.000135  0.000242  0.000006
 10   -534.82781214   0.0000001879  0.000096  0.000088  0.000167  0.000004
 11   -534.82781239  -0.0000002518  0.000003  0.000003  0.000013  0.000000
 12   -534.82781240  -0.0000000022  0.000003  0.000002  0.000007  0.000000
                  ***Gradient check signals convergence***
              ***Rediagonalizing the Fockian in SOSCF/NRSCF***

               *****************************************************
               *                     SUCCESS                       *
               *           SCF CONVERGED AFTER  13 CYCLES          *
               *****************************************************

Old exchange energy                            =    -14.205570997 Eh
New exchange energy                            =    -14.205557629 Eh
Exchange energy change after final integration =      0.000013368 Eh
Total energy after final integration           =   -534.827799028 Eh
Final COS-X integration done in                =     5.457 sec

----------------
TOTAL SCF ENERGY
----------------

Total Energy       :         -534.82779903 Eh          -14553.40429 eV

Components:
Nuclear Repulsion  :          676.66606843 Eh           18413.01982 eV
Electronic Energy  :        -1211.49386746 Eh          -32966.42411 eV
One Electron Energy:        -2069.49438002 Eh          -56313.80502 eV
Two Electron Energy:          858.00051256 Eh           23347.38090 eV
Max COSX asymmetry :            0.00000250 Eh               0.00007 eV
CPCM Dielectric    :           -0.02130302 Eh              -0.57968 eV

Virial components:
Potential Energy   :        -1066.48155677 Eh          -29020.43853 eV
Kinetic Energy     :          531.65375774 Eh           14467.03424 eV
Virial Ratio       :            2.00597013


DFT components:
N(Alpha)           :       42.999971394878 electrons
N(Beta)            :       42.999971394878 electrons
N(Total)           :       85.999942789756 electrons
E(X)               :      -56.419950106669 Eh       
E(C)               :       -3.421033712810 Eh       
E(XC)              :      -59.840983819479 Eh       
DFET-embed. en.    :        0.000000000000 Eh       
CPCM Solvation Model Properties:
Surface-charge          :           -0.01770068
Charge-correction       :           -0.00020503 Eh              -0.00558 eV
Free-energy (cav+disp)  :  This term is not implemented in the current solvation scheme

---------------
SCF CONVERGENCE
---------------

  Last Energy change         ...   -6.6359e-10  Tolerance :   1.0000e-08
  Last MAX-Density change    ...    4.8850e-15  Tolerance :   1.0000e-07
  Last RMS-Density change    ...    5.7242e-17  Tolerance :   5.0000e-09
  Last Orbital Gradient      ...    5.2697e-07  Tolerance :   1.0000e-05
  Last Orbital Rotation      ...    1.9486e-06  Tolerance :   1.0000e-05

             **** THE GBW FILE WAS UPDATED (Na_water.gbw) ****
             **** DENSITY Na_water.scfp WAS UPDATED ****
             **** ENERGY FILE WAS UPDATED (Na_water.en.tmp) ****
             **** THE GBW FILE WAS UPDATED (Na_water.gbw) ****
             **** DENSITY Na_water.scfp WAS UPDATED ****
----------------
ORBITAL ENERGIES
----------------

  NO   OCC          E(Eh)            E(eV) 
   0   2.0000     -19.109079      -519.9845 
   1   2.0000     -19.108863      -519.9786 
   2   2.0000     -14.359136      -390.7320 
   3   2.0000     -14.356684      -390.6652 
   4   2.0000     -10.281968      -279.7866 
   5   2.0000     -10.281958      -279.7863 
   6   2.0000     -10.217594      -278.0349 
   7   2.0000     -10.201569      -277.5988 
   8   2.0000     -10.194945      -277.4185 
   9   2.0000     -10.194939      -277.4184 
  10   2.0000     -10.169796      -276.7342 
  11   2.0000      -1.031808       -28.0769 
  12   2.0000      -1.026287       -27.9267 
  13   2.0000      -0.934503       -25.4291 
  14   2.0000      -0.923537       -25.1307 
  15   2.0000      -0.749094       -20.3839 
  16   2.0000      -0.740507       -20.1502 
  17   2.0000      -0.713047       -19.4030 
  18   2.0000      -0.681557       -18.5461 
  19   2.0000      -0.668496       -18.1907 
  20   2.0000      -0.559372       -15.2213 
  21   2.0000      -0.537074       -14.6145 
  22   2.0000      -0.495302       -13.4779 
  23   2.0000      -0.486172       -13.2294 
  24   2.0000      -0.482012       -13.1162 
  25   2.0000      -0.461130       -12.5480 
  26   2.0000      -0.453808       -12.3488 
  27   2.0000      -0.449224       -12.2240 
  28   2.0000      -0.417567       -11.3626 
  29   2.0000      -0.407310       -11.0835 
  30   2.0000      -0.405553       -11.0356 
  31   2.0000      -0.401054       -10.9132 
  32   2.0000      -0.395526       -10.7628 
  33   2.0000      -0.388737       -10.5781 
  34   2.0000      -0.385932       -10.5018 
  35   2.0000      -0.376856       -10.2548 
  36   2.0000      -0.372639       -10.1400 
  37   2.0000      -0.353570        -9.6211 
  38   2.0000      -0.348174        -9.4743 
  39   2.0000      -0.259077        -7.0498 
  40   2.0000      -0.250924        -6.8280 
  41   2.0000      -0.239132        -6.5071 
  42   2.0000      -0.233603        -6.3567 
  43   0.0000       0.017120         0.4659 
  44   0.0000       0.023252         0.6327 
  45   0.0000       0.086967         2.3665 
  46   0.0000       0.108833         2.9615 
  47   0.0000       0.131851         3.5878 
  48   0.0000       0.139822         3.8047 
  49   0.0000       0.149192         4.0597 
  50   0.0000       0.154163         4.1950 
  51   0.0000       0.165804         4.5118 
  52   0.0000       0.170387         4.6365 
  53   0.0000       0.174771         4.7558 
  54   0.0000       0.176044         4.7904 
  55   0.0000       0.185037         5.0351 
  56   0.0000       0.187912         5.1133 
  57   0.0000       0.192191         5.2298 
  58   0.0000       0.196938         5.3590 
  59   0.0000       0.212517         5.7829 
  60   0.0000       0.227670         6.1952 
  61   0.0000       0.240051         6.5321 
  62   0.0000       0.252786         6.8787 
  63   0.0000       0.270137         7.3508 
  64   0.0000       0.277142         7.5414 
  65   0.0000       0.329552         8.9676 
  66   0.0000       0.343281         9.3412 
  67   0.0000       0.373022        10.1505 
  68   0.0000       0.406505        11.0616 
  69   0.0000       0.482112        13.1189 
  70   0.0000       0.502883        13.6841 
  71   0.0000       0.507737        13.8162 
  72   0.0000       0.521022        14.1777 
  73   0.0000       0.535055        14.5596 
  74   0.0000       0.546515        14.8714 
  75   0.0000       0.553090        15.0503 
  76   0.0000       0.574572        15.6349 
  77   0.0000       0.586918        15.9708 
  78   0.0000       0.617400        16.8003 
  79   0.0000       0.634160        17.2564 
  80   0.0000       0.638363        17.3707 
  81   0.0000       0.652538        17.7564 
  82   0.0000       0.679064        18.4783 
  83   0.0000       0.693927        18.8827 
  84   0.0000       0.700164        19.0524 
  85   0.0000       0.710742        19.3403 
  86   0.0000       0.711173        19.3520 
  87   0.0000       0.762566        20.7505 
  88   0.0000       0.791636        21.5415 
  89   0.0000       0.803331        21.8597 
  90   0.0000       0.819545        22.3009 
  91   0.0000       0.831531        22.6271 
  92   0.0000       0.845880        23.0176 
  93   0.0000       0.853792        23.2329 
  94   0.0000       0.863085        23.4857 
  95   0.0000       0.872785        23.7497 
  96   0.0000       0.883042        24.0288 
  97   0.0000       0.886713        24.1287 
  98   0.0000       0.892567        24.2880 
  99   0.0000       0.916904        24.9502 
 100   0.0000       0.920660        25.0524 
 101   0.0000       0.926581        25.2136 
 102   0.0000       0.935195        25.4480 
 103   0.0000       0.955349        25.9964 
 104   0.0000       0.968675        26.3590 
 105   0.0000       0.979464        26.6526 
 106   0.0000       0.983390        26.7594 
 107   0.0000       0.999307        27.1925 
 108   0.0000       1.011915        27.5356 
 109   0.0000       1.043320        28.3902 
 110   0.0000       1.056185        28.7402 
 111   0.0000       1.078408        29.3450 
 112   0.0000       1.105177        30.0734 
 113   0.0000       1.113143        30.2902 
 114   0.0000       1.140447        31.0331 
 115   0.0000       1.172732        31.9117 
 116   0.0000       1.218572        33.1590 
 117   0.0000       1.235839        33.6289 
 118   0.0000       1.286256        35.0008 
 119   0.0000       1.318507        35.8784 
 120   0.0000       1.351073        36.7646 
 121   0.0000       1.363259        37.0962 
 122   0.0000       1.410034        38.3690 
 123   0.0000       1.416560        38.5466 
 124   0.0000       1.438941        39.1556 
 125   0.0000       1.459578        39.7171 
 126   0.0000       1.474469        40.1223 
 127   0.0000       1.501999        40.8715 
 128   0.0000       1.574919        42.8557 
 129   0.0000       1.649175        44.8763 
 130   0.0000       1.670607        45.4595 
 131   0.0000       1.736026        47.2397 
 132   0.0000       1.741751        47.3955 
 133   0.0000       1.768844        48.1327 
 134   0.0000       1.782269        48.4980 
 135   0.0000       1.809226        49.2315 
 136   0.0000       1.816845        49.4389 
 137   0.0000       1.827050        49.7166 
 138   0.0000       1.859354        50.5956 
 139   0.0000       1.889635        51.4196 
 140   0.0000       1.914973        52.1091 
 141   0.0000       1.922982        52.3270 
 142   0.0000       1.953572        53.1594 
 143   0.0000       1.963634        53.4332 
 144   0.0000       1.984225        53.9935 
 145   0.0000       1.992910        54.2298 
 146   0.0000       2.001876        54.4738 
 147   0.0000       2.035648        55.3928 
 148   0.0000       2.053374        55.8751 
 149   0.0000       2.067202        56.2514 
 150   0.0000       2.089510        56.8585 
 151   0.0000       2.109293        57.3968 
 152   0.0000       2.120882        57.7121 
 153   0.0000       2.129968        57.9594 
 154   0.0000       2.163079        58.8604 
 155   0.0000       2.184043        59.4308 
 156   0.0000       2.238539        60.9138 
 157   0.0000       2.247729        61.1638 
 158   0.0000       2.282570        62.1119 
 159   0.0000       2.301898        62.6378 
 160   0.0000       2.314534        62.9817 
 161   0.0000       2.338149        63.6243 
 162   0.0000       2.346369        63.8479 
 163   0.0000       2.377038        64.6825 
 164   0.0000       2.420168        65.8561 
 165   0.0000       2.428076        66.0713 
 166   0.0000       2.451545        66.7099 
 167   0.0000       2.498931        67.9994 
 168   0.0000       2.560561        69.6764 
 169   0.0000       2.579917        70.2031 
 170   0.0000       2.617615        71.2289 
 171   0.0000       2.633143        71.6515 
 172   0.0000       2.650095        72.1127 
 173   0.0000       2.680714        72.9459 
 174   0.0000       2.714399        73.8625 
 175   0.0000       2.745717        74.7147 
 176   0.0000       2.894159        78.7541 
 177   0.0000       2.953006        80.3554 
 178   0.0000       2.993674        81.4620 
 179   0.0000       3.029257        82.4303 
 180   0.0000       3.150049        85.7172 
 181   0.0000       3.181425        86.5710 

                    ********************************
                    * MULLIKEN POPULATION ANALYSIS *
                    ********************************

-----------------------
MULLIKEN ATOMIC CHARGES
-----------------------
   0 C :    0.528585
   1 H :    0.193448
   2 H :    0.179199
   3 H :    0.201100
   4 O :   -0.531347
   5 C :   -0.567822
   6 N :   -0.359826
   7 C :   -0.325041
   8 H :    0.176812
   9 H :    0.177380
  10 H :    0.185806
  11 C :   -0.332232
  12 H :    0.173375
  13 H :    0.173698
  14 H :    0.184445
  15 N :   -0.375702
  16 C :   -0.263797
  17 H :    0.189621
  18 H :    0.209867
  19 C :   -0.334000
  20 H :    0.184661
  21 H :    0.171058
  22 H :    0.174789
  23 C :    0.529562
  24 O :   -0.543638
Sum of atomic charges:    0.0000000

--------------------------------
MULLIKEN REDUCED ORBITAL CHARGES
--------------------------------
  0 C s       :     2.983855  s :     2.983855
      pz      :     0.776437  p :     2.380486
      px      :     0.782740
      py      :     0.821309
      dz2     :     0.020640  d :     0.107074
      dxz     :     0.018065
      dyz     :     0.016586
      dx2y2   :     0.019536
      dxy     :     0.032248
  1 H s       :     0.806552  s :     0.806552
  2 H s       :     0.820801  s :     0.820801
  3 H s       :     0.798900  s :     0.798900
  4 O s       :     3.851356  s :     3.851356
      pz      :     1.503507  p :     4.654768
      px      :     1.399740
      py      :     1.751520
      dz2     :     0.005130  d :     0.025224
      dxz     :     0.007425
      dyz     :     0.001928
      dx2y2   :     0.006041
      dxy     :     0.004700
  5 C s       :     3.323871  s :     3.323871
      pz      :     1.109115  p :     3.212039
      px      :     1.084273
      py      :     1.018652
      dz2     :     0.005620  d :     0.031912
      dxz     :     0.007388
      dyz     :     0.005741
      dx2y2   :     0.004849
      dxy     :     0.008313
  6 N s       :     3.530784  s :     3.530784
      pz      :     1.298994  p :     3.791707
      px      :     1.251848
      py      :     1.240864
      dz2     :     0.007568  d :     0.037336
      dxz     :     0.006819
      dyz     :     0.007045
      dx2y2   :     0.007251
      dxy     :     0.008652
  7 C s       :     3.262390  s :     3.262390
      pz      :     1.067811  p :     3.013848
      px      :     1.071009
      py      :     0.875028
      dz2     :     0.007540  d :     0.048803
      dxz     :     0.011936
      dyz     :     0.009174
      dx2y2   :     0.007246
      dxy     :     0.012907
  8 H s       :     0.823188  s :     0.823188
  9 H s       :     0.822620  s :     0.822620
 10 H s       :     0.814194  s :     0.814194
 11 C s       :     3.260111  s :     3.260111
      pz      :     1.046318  p :     3.024092
      px      :     0.884072
      py      :     1.093702
      dz2     :     0.013398  d :     0.048029
      dxz     :     0.007599
      dyz     :     0.005672
      dx2y2   :     0.009419
      dxy     :     0.011941
 12 H s       :     0.826625  s :     0.826625
 13 H s       :     0.826302  s :     0.826302
 14 H s       :     0.815555  s :     0.815555
 15 N s       :     3.539520  s :     3.539520
      pz      :     1.340011  p :     3.799473
      px      :     1.268321
      py      :     1.191141
      dz2     :     0.005739  d :     0.036708
      dxz     :     0.007238
      dyz     :     0.007297
      dx2y2   :     0.007329
      dxy     :     0.009105
 16 C s       :     3.256955  s :     3.256955
      pz      :     0.956395  p :     2.954754
      px      :     0.870410
      py      :     1.127949
      dz2     :     0.007631  d :     0.052088
      dxz     :     0.012916
      dyz     :     0.012856
      dx2y2   :     0.012858
      dxy     :     0.005827
 17 H s       :     0.810379  s :     0.810379
 18 H s       :     0.790133  s :     0.790133
 19 C s       :     3.261020  s :     3.261020
      pz      :     1.111461  p :     3.024824
      px      :     1.002590
      py      :     0.910772
      dz2     :     0.008844  d :     0.048157
      dxz     :     0.013655
      dyz     :     0.003639
      dx2y2   :     0.007793
      dxy     :     0.014226
 20 H s       :     0.815339  s :     0.815339
 21 H s       :     0.828942  s :     0.828942
 22 H s       :     0.825211  s :     0.825211
 23 C s       :     2.981540  s :     2.981540
      pz      :     0.775580  p :     2.380744
      px      :     0.837715
      py      :     0.767448
      dz2     :     0.023873  d :     0.108154
      dxz     :     0.014738
      dyz     :     0.022918
      dx2y2   :     0.022348
      dxy     :     0.024277
 24 O s       :     3.856557  s :     3.856557
      pz      :     1.592075  p :     4.661853
      px      :     1.657313
      py      :     1.412466
      dz2     :     0.003773  d :     0.025228
      dxz     :     0.003377
      dyz     :     0.005739
      dx2y2   :     0.006741
      dxy     :     0.005599


                     *******************************
                     * LOEWDIN POPULATION ANALYSIS *
                     *******************************

----------------------
LOEWDIN ATOMIC CHARGES
----------------------
   0 C :    0.120189
   1 H :    0.154071
   2 H :    0.149983
   3 H :    0.160575
   4 O :   -0.329029
   5 C :   -0.398055
   6 N :   -0.070163
   7 C :   -0.274902
   8 H :    0.134909
   9 H :    0.139948
  10 H :    0.144426
  11 C :   -0.280552
  12 H :    0.134826
  13 H :    0.135459
  14 H :    0.147578
  15 N :   -0.092552
  16 C :   -0.180021
  17 H :    0.146670
  18 H :    0.165116
  19 C :   -0.281899
  20 H :    0.147101
  21 H :    0.130943
  22 H :    0.134760
  23 C :    0.097442
  24 O :   -0.336823

-------------------------------
LOEWDIN REDUCED ORBITAL CHARGES
-------------------------------
  0 C s       :     2.852049  s :     2.852049
      pz      :     0.862797  p :     2.774220
      px      :     0.950703
      py      :     0.960720
      dz2     :     0.045416  d :     0.253542
      dxz     :     0.044143
      dyz     :     0.039869
      dx2y2   :     0.044738
      dxy     :     0.079376
  1 H s       :     0.845929  s :     0.845929
  2 H s       :     0.850017  s :     0.850017
  3 H s       :     0.839425  s :     0.839425
  4 O s       :     3.562361  s :     3.562361
      pz      :     1.511653  p :     4.715154
      px      :     1.461195
      py      :     1.742306
      dz2     :     0.008075  d :     0.051514
      dxz     :     0.017404
      dyz     :     0.003384
      dx2y2   :     0.013240
      dxy     :     0.009411
  5 C s       :     2.982106  s :     2.982106
      pz      :     1.145308  p :     3.353089
      px      :     1.125484
      py      :     1.082296
      dz2     :     0.010568  d :     0.062859
      dxz     :     0.013438
      dyz     :     0.011220
      dx2y2   :     0.009816
      dxy     :     0.017817
  6 N s       :     3.087341  s :     3.087341
      pz      :     1.329364  p :     3.885876
      px      :     1.282368
      py      :     1.274144
      dz2     :     0.017764  d :     0.096945
      dxz     :     0.018796
      dyz     :     0.019567
      dx2y2   :     0.019472
      dxy     :     0.021347
  7 C s       :     2.960596  s :     2.960596
      pz      :     1.117944  p :     3.217193
      px      :     1.121542
      py      :     0.977707
      dz2     :     0.014401  d :     0.097114
      dxz     :     0.023199
      dyz     :     0.018453
      dx2y2   :     0.015100
      dxy     :     0.025961
  8 H s       :     0.865091  s :     0.865091
  9 H s       :     0.860052  s :     0.860052
 10 H s       :     0.855574  s :     0.855574
 11 C s       :     2.963023  s :     2.963023
      pz      :     1.102168  p :     3.222227
      px      :     0.983460
      py      :     1.136599
      dz2     :     0.026163  d :     0.095302
      dxz     :     0.015462
      dyz     :     0.010513
      dx2y2   :     0.019514
      dxy     :     0.023650
 12 H s       :     0.865174  s :     0.865174
 13 H s       :     0.864541  s :     0.864541
 14 H s       :     0.852422  s :     0.852422
 15 N s       :     3.106167  s :     3.106167
      pz      :     1.363661  p :     3.891722
      px      :     1.281901
      py      :     1.246160
      dz2     :     0.014129  d :     0.094663
      dxz     :     0.018393
      dyz     :     0.019403
      dx2y2   :     0.019350
      dxy     :     0.023389
 16 C s       :     2.932254  s :     2.932254
      pz      :     1.028038  p :     3.137494
      px      :     0.971106
      py      :     1.138351
      dz2     :     0.016443  d :     0.110273
      dxz     :     0.028801
      dyz     :     0.025534
      dx2y2   :     0.027195
      dxy     :     0.012300
 17 H s       :     0.853330  s :     0.853330
 18 H s       :     0.834884  s :     0.834884
 19 C s       :     2.963550  s :     2.963550
      pz      :     1.152031  p :     3.222583
      px      :     1.070863
      py      :     0.999689
      dz2     :     0.016526  d :     0.095766
      dxz     :     0.026481
      dyz     :     0.006901
      dx2y2   :     0.016683
      dxy     :     0.029175
 20 H s       :     0.852899  s :     0.852899
 21 H s       :     0.869057  s :     0.869057
 22 H s       :     0.865240  s :     0.865240
 23 C s       :     2.852737  s :     2.852737
      pz      :     0.903355  p :     2.793137
      px      :     0.962367
      py      :     0.927414
      dz2     :     0.055562  d :     0.256685
      dxz     :     0.033040
      dyz     :     0.058609
      dx2y2   :     0.051491
      dxy     :     0.057983
 24 O s       :     3.561733  s :     3.561733
      pz      :     1.589532  p :     4.723181
      px      :     1.667182
      py      :     1.466467
      dz2     :     0.007198  d :     0.051909
      dxz     :     0.006113
      dyz     :     0.012500
      dx2y2   :     0.012030
      dxy     :     0.014069


                      *****************************
                      * MAYER POPULATION ANALYSIS *
                      *****************************

  NA   - Mulliken gross atomic population
  ZA   - Total nuclear charge
  QA   - Mulliken gross atomic charge
  VA   - Mayer's total valence
  BVA  - Mayer's bonded valence
  FA   - Mayer's free valence

  ATOM       NA         ZA         QA         VA         BVA        FA
  0 C      5.4714     6.0000     0.5286     3.9822     3.9822    -0.0000
  1 H      0.8066     1.0000     0.1934     0.9321     0.9321     0.0000
  2 H      0.8208     1.0000     0.1792     0.9397     0.9397    -0.0000
  3 H      0.7989     1.0000     0.2011     0.9243     0.9243    -0.0000
  4 O      8.5313     8.0000    -0.5313     2.0193     2.0193     0.0000
  5 C      6.5678     6.0000    -0.5678     3.7874     3.7874    -0.0000
  6 N      7.3598     7.0000    -0.3598     3.1603     3.1603     0.0000
  7 C      6.3250     6.0000    -0.3250     3.7844     3.7844     0.0000
  8 H      0.8232     1.0000     0.1768     0.9232     0.9232    -0.0000
  9 H      0.8226     1.0000     0.1774     0.9266     0.9266     0.0000
 10 H      0.8142     1.0000     0.1858     0.9306     0.9306     0.0000
 11 C      6.3322     6.0000    -0.3322     3.7791     3.7791     0.0000
 12 H      0.8266     1.0000     0.1734     0.9261     0.9261     0.0000
 13 H      0.8263     1.0000     0.1737     0.9259     0.9259    -0.0000
 14 H      0.8156     1.0000     0.1844     0.9523     0.9523     0.0000
 15 N      7.3757     7.0000    -0.3757     3.0835     3.0835     0.0000
 16 C      6.2638     6.0000    -0.2638     3.7576     3.7576    -0.0000
 17 H      0.8104     1.0000     0.1896     0.9308     0.9308    -0.0000
 18 H      0.7901     1.0000     0.2099     0.9196     0.9196    -0.0000
 19 C      6.3340     6.0000    -0.3340     3.7889     3.7889     0.0000
 20 H      0.8153     1.0000     0.1847     0.9483     0.9483    -0.0000
 21 H      0.8289     1.0000     0.1711     0.9235     0.9235    -0.0000
 22 H      0.8252     1.0000     0.1748     0.9291     0.9291     0.0000
 23 C      5.4704     6.0000     0.5296     3.9436     3.9436    -0.0000
 24 O      8.5436     8.0000    -0.5436     2.0029     2.0029    -0.0000

  Mayer bond orders larger than 0.100000
B(  0-C ,  4-O ) :   1.8068 B(  0-C ,  5-C ) :   0.9999 B(  0-C , 15-N ) :   1.1381 
B(  1-H ,  5-C ) :   0.9152 B(  2-H ,  5-C ) :   0.9372 B(  3-H ,  5-C ) :   0.9163 
B(  6-N ,  7-C ) :   0.9501 B(  6-N , 11-C ) :   0.9480 B(  6-N , 23-C ) :   1.1965 
B(  6-N , 24-O ) :   0.1022 B(  7-C ,  8-H ) :   0.9307 B(  7-C ,  9-H ) :   0.9336 
B(  7-C , 10-H ) :   0.9270 B( 11-C , 12-H ) :   0.9361 B( 11-C , 13-H ) :   0.9368 
B( 11-C , 14-H ) :   0.9238 B( 15-N , 16-C ) :   0.9285 B( 15-N , 19-C ) :   0.9459 
B( 16-C , 17-H ) :   0.9125 B( 16-C , 18-H ) :   0.9100 B( 16-C , 23-C ) :   0.9390 
B( 19-C , 20-H ) :   0.9250 B( 19-C , 21-H ) :   0.9370 B( 19-C , 22-H ) :   0.9313 
B( 23-C , 24-O ) :   1.7492 

-------
TIMINGS
-------

Total SCF time: 0 days 0 hours 0 min 58 sec 

Total time                  ....      58.566 sec
Sum of individual times     ....      56.414 sec  ( 96.3%)

Fock matrix formation       ....      48.188 sec  ( 82.3%)
  Split-RI-J                ....       4.971 sec  ( 10.3% of F)
  Chain of spheres X        ....      27.970 sec  ( 58.0% of F)
  XC integration            ....       9.076 sec  ( 18.8% of F)
    Basis function eval.    ....       2.335 sec  ( 25.7% of XC)
    Density eval.           ....       1.468 sec  ( 16.2% of XC)
    XC-Functional eval.     ....       0.904 sec  ( 10.0% of XC)
    XC-Potential eval.      ....       1.215 sec  ( 13.4% of XC)
Diagonalization             ....       0.061 sec  (  0.1%)
Density matrix formation    ....       0.006 sec  (  0.0%)
Population analysis         ....       0.033 sec  (  0.1%)
Initial guess               ....       0.393 sec  (  0.7%)
Orbital Transformation      ....       0.000 sec  (  0.0%)
Orbital Orthonormalization  ....       0.000 sec  (  0.0%)
DIIS solution               ....       0.041 sec  (  0.1%)
SOSCF solution              ....       0.082 sec  (  0.1%)
Grid generation             ....       7.609 sec  ( 13.0%)

Maximum memory used throughout the entire SCF-calculation: 61.7 MB


-------------------------------------------------------------------------------
                          DFT DISPERSION CORRECTION                            
                                                                               
                                 DFTD4 V2.5                                    
-------------------------------------------------------------------------------
The B3LYP functional is recognized
Active option DFTDOPT                   ...         5   

Starting D4
-------------------------   ----------------
Dispersion correction           -0.039958276
-------------------------   ----------------


-------------------------   --------------------
FINAL SINGLE POINT ENERGY      -534.867757304293
-------------------------   --------------------



           ************************************************************
           *        Program running with 4 parallel MPI-processes     *
           *              working on a common directory               *
           ************************************************************
------------------------------------------------------------------------------
                         ORCA SCF GRADIENT CALCULATION
------------------------------------------------------------------------------

 ... reading COSX grid (gridx3)
Gradient of the Kohn-Sham DFT energy:
Kohn-Sham wavefunction type      ... RKS
Hartree-Fock exchange scaling    ...    0.200
Number of operators              ...    1
Number of atoms                  ...   25
Basis set dimensions             ...  182
Integral neglect threshold       ... 2.5e-11
Integral primitive cutoff        ... 2.5e-12
SHARK Integral package           ... ON

Nuc. rep. gradient       (SHARK) ... done (  0.0 sec)
HCore & Overlap gradient (SHARK) ... done (  0.2 sec)
RI-J gradient            (SHARK) ... done (  1.1 sec)
COSX-gradient                    ... done (  6.6 sec)
Exchange-correlation gradient    ... done
Dispersion correction            ... Starting D4
Starting D4
Starting D4
Starting D4


------------------- 
Dispersion Gradient 
------------------- 
   1  :   -0.000791457    0.000434784   -0.000295888
   2  :   -0.000077378    0.000267212   -0.000008818
   3  :   -0.000065667    0.000160832   -0.000084089
   4  :   -0.000114644    0.000299066   -0.000172480
   5  :   -0.000619522    0.000157665   -0.000415640
   6  :   -0.000413906    0.000961439   -0.000354694
   7  :    0.000843328   -0.000260910   -0.000150246
   8  :    0.000502436   -0.000873502   -0.000534349
   9  :    0.000125371   -0.000218603   -0.000249100
  10  :    0.000065898   -0.000164944   -0.000096742
  11  :    0.000123807   -0.000226932   -0.000080908
  12  :    0.000772805    0.000046763   -0.000359746
  13  :    0.000168313    0.000002642   -0.000065269
  14  :    0.000170214    0.000027666   -0.000132040
  15  :    0.000155773    0.000043591   -0.000032807
  16  :   -0.000698615   -0.000206862    0.000228049
  17  :   -0.000025538   -0.000061435    0.000789428
  18  :    0.000019991    0.000072338    0.000257384
  19  :   -0.000017865   -0.000090297    0.000244946
  20  :   -0.000732219   -0.000638539    0.000275247
  21  :   -0.000154379   -0.000085635   -0.000002710
  22  :   -0.000153622   -0.000133938    0.000082710
  23  :   -0.000191772   -0.000209896    0.000075466
  24  :    0.000540948    0.000187237    0.000458256
  25  :    0.000567702    0.000510258    0.000624039

  |G| =    0.002797778

done

------------------
CARTESIAN GRADIENT
------------------

   1   C   :   -0.003821533    0.008213747   -0.003915143
   2   H   :    0.000394813   -0.000288677   -0.001003610
   3   H   :   -0.000575707   -0.002068529    0.000547900
[...]
     52       0.002990   0.034866  -0.234775   0.348563   0.031047  -0.010362
     53       0.002970   0.033735  -0.226167   0.338352   0.029777  -0.010102
     54      -0.001089  -0.006961   0.037226  -0.075720  -0.004299   0.001330
     55       0.007838   0.057753  -0.307781   0.600633   0.034122  -0.011165
     56      -0.004554  -0.032928   0.176511  -0.345976  -0.019021   0.005840
     57      -0.000193  -0.004760   0.043270   0.023470  -0.000320  -0.000748
     58       0.000107   0.005140  -0.054627  -0.031686   0.000634   0.000312
     59       0.000102   0.003037  -0.029558  -0.018353   0.000016  -0.001242
     60       0.000104  -0.010811   0.139708   0.092285  -0.001017   0.007427
     61       0.000076  -0.001578   0.023868   0.018238  -0.000042   0.001648
     62       0.000229  -0.014325   0.190707   0.129152  -0.001260   0.011536
     63       0.001252   0.024635  -0.209847  -0.115861   0.000218  -0.002404
     64      -0.000221  -0.003884   0.032654   0.017543  -0.000212   0.000193
     65      -0.001614  -0.032842   0.283854   0.157185  -0.000530   0.002476
     66       0.000728   0.041288  -0.447703  -0.257847   0.005290   0.003743
     67      -0.001025  -0.054502   0.583410   0.338775  -0.006983  -0.005241
     68       0.000268   0.011485  -0.118775  -0.068650   0.001415   0.000721
     69       0.000436   0.000139   0.000399  -0.000497  -0.000016  -0.000014
     70      -0.000180   0.000201   0.001154  -0.001603  -0.000156   0.000166
     71       0.000321   0.000412   0.000291  -0.000759  -0.000199   0.000178
     72      -0.000032  -0.000051  -0.000094   0.000114  -0.000121   0.000093
     73      -0.000028  -0.000103  -0.000332   0.000470   0.000099  -0.000160
     74      -0.000094   0.000064  -0.000259   0.000493   0.000026  -0.000009
                 72         73         74    
      0      -0.000080   0.001140   0.000036
      1      -0.000170   0.000232  -0.000028
      2       0.000005   0.000392   0.000025
      3      -0.000275  -0.002013  -0.000152
      4      -0.000108  -0.002405  -0.000035
      5      -0.000558  -0.006590  -0.000206
      6       0.000771  -0.008045   0.000317
      7      -0.000864   0.009714  -0.000304
      8       0.000628  -0.006319   0.000205
      9       0.000522  -0.001219   0.000810
     10       0.000002  -0.000189  -0.000113
     11      -0.000379   0.000996  -0.000693
     12       0.000013  -0.000426  -0.000019
     13       0.000130  -0.000741  -0.000009
     14      -0.000048   0.000008  -0.000006
     15      -0.000067   0.000818  -0.000082
     16       0.000100  -0.000535   0.000049
     17       0.000021   0.001033   0.000044
     18       0.000002   0.000019  -0.000074
     19       0.000423   0.000046  -0.000232
     20       0.000042  -0.000024  -0.000167
     21      -0.046956  -0.006669  -0.000834
     22      -0.029572  -0.004405  -0.001400
     23       0.070489   0.010287   0.003160
     24      -0.117252  -0.017488  -0.006970
     25       0.036513   0.005367   0.003028
     26      -0.125096  -0.018655  -0.008560
     27       0.188083   0.026153   0.002904
     28      -0.150206  -0.020777  -0.000558
     29      -0.063686  -0.008874  -0.000480
     30       0.492794   0.072467   0.019645
     31       0.453118   0.066842   0.018559
     32      -0.653905  -0.095967  -0.026453
     33       0.001076   0.000328  -0.011239
     34       0.002695   0.001806  -0.078979
     35       0.001674   0.001020  -0.042400
     36       0.004219   0.003195  -0.128231
     37      -0.001938  -0.002254   0.099219
     38       0.001288   0.000995  -0.043321
     39      -0.001196  -0.000865   0.037883
     40       0.001670   0.000588  -0.018392
     41      -0.009911  -0.005573   0.220108
     42      -0.007948  -0.004981   0.217180
     43      -0.030837  -0.019755   0.865227
     44      -0.011816  -0.007701   0.340222
     45      -0.000343   0.000298  -0.000003
     46       0.000115   0.000160   0.000029
     47       0.000094   0.000052   0.000004
     48       0.000288  -0.000179   0.000103
     49      -0.000999  -0.001820  -0.000336
     50       0.000247   0.000607  -0.000087
     51      -0.000869  -0.000640  -0.001190
     52       0.001795   0.003097   0.002935
     53       0.001872   0.002662   0.002950
     54      -0.001079  -0.003652  -0.000268
     55       0.012263   0.017374   0.001380
     56      -0.004587  -0.010921  -0.000780
     57      -0.006940   0.052183   0.001005
     58       0.000181  -0.010336  -0.000304
     59      -0.011319   0.073642   0.001244
     60       0.079039  -0.496218  -0.008337
     61       0.019284  -0.126496  -0.002154
     62       0.118907  -0.754406  -0.012689
     63      -0.013416   0.083270   0.001072
     64       0.002824  -0.019717  -0.000297
     65       0.014814  -0.082770  -0.000909
     66       0.013741  -0.213476  -0.005075
     67      -0.021400   0.276561   0.006481
     68       0.003530  -0.044010  -0.001023
     69      -0.000443  -0.000177  -0.000734
     70       0.000106   0.000043  -0.000801
     71       0.000104  -0.000006  -0.000439
     72       0.000025   0.000033   0.000739
     73      -0.000130  -0.000009   0.000170
     74      -0.000108   0.000016  -0.000492


-----------
IR SPECTRUM
-----------

 Mode   freq       eps      Int      T**2         TX        TY        TZ
       cm**-1   L/(mol*cm) km/mol    a.u.
----------------------------------------------------------------------------
  6:     14.04   0.000412    2.08  0.009156  ( 0.059476 -0.074895 -0.003019)
  7:     64.11   0.000936    4.73  0.004557  (-0.052531  0.041843 -0.006833)
  8:     71.14   0.001412    7.14  0.006195  ( 0.035906  0.008384 -0.069538)
  9:     89.26   0.000313    1.58  0.001095  ( 0.017104 -0.016382 -0.023121)
 10:     98.08   0.000290    1.47  0.000922  (-0.019532  0.022058  0.007379)
 11:    139.30   0.000614    3.11  0.001377  ( 0.002938  0.001665 -0.036948)
 12:    153.45   0.002010   10.16  0.004089  (-0.033470  0.054167  0.005852)
 13:    172.32   0.000083    0.42  0.000151  (-0.007136  0.001151  0.009932)
 14:    207.58   0.000136    0.69  0.000204  ( 0.002916 -0.013163  0.004748)
 15:    233.78   0.002139   10.81  0.002855  (-0.029181  0.032863 -0.030394)
 16:    268.81   0.001516    7.66  0.001760  ( 0.039765 -0.013356 -0.000278)
 17:    309.25   0.001547    7.82  0.001561  ( 0.018760  0.011642 -0.032759)
 18:    315.59   0.000704    3.56  0.000697  ( 0.014724 -0.017531 -0.013133)
 19:    383.60   0.003267   16.51  0.002658  (-0.038190  0.028601  0.019535)
 20:    413.78   0.000886    4.48  0.000668  (-0.007813 -0.006869  0.023668)
 21:    457.04   0.000961    4.86  0.000656  (-0.009033 -0.018963  0.014671)
 22:    477.51   0.005075   25.65  0.003317  ( 0.042448  0.035393 -0.016193)
 23:    569.38   0.005250   26.53  0.002878  (-0.022236  0.006076 -0.048437)
 24:    600.84   0.000688    3.47  0.000357  (-0.015617 -0.000419  0.010633)
 25:    615.57   0.006167   31.17  0.003126  (-0.035331  0.041835  0.011313)
 26:    684.56   0.001962    9.92  0.000895  ( 0.011548 -0.023793 -0.013968)
 27:    743.84   0.003377   17.07  0.001417  ( 0.025296 -0.025694 -0.010807)
 28:    805.51   0.002577   13.02  0.000998  ( 0.007878 -0.029272 -0.008918)
 29:    974.79   0.000744    3.76  0.000238  ( 0.014932  0.001867 -0.003434)
 30:    989.75   0.002574   13.01  0.000811  (-0.011753  0.022511  0.012907)
 31:   1005.75   0.006307   31.87  0.001957  (-0.014694  0.007000  0.041133)
 32:   1045.58   0.011538   58.31  0.003444  ( 0.038804 -0.028534  0.033521)
 33:   1060.62   0.004165   21.05  0.001225  ( 0.025497 -0.010637 -0.021500)
 34:   1088.21   0.002652   13.40  0.000760  ( 0.018934  0.019684  0.003800)
 35:   1134.93   0.001102    5.57  0.000303  (-0.004071 -0.012245 -0.011686)
 36:   1150.79   0.003647   18.43  0.000989  (-0.010020 -0.027901 -0.010487)
 37:   1165.01   0.008049   40.67  0.002156  (-0.030117  0.027019 -0.022779)
 38:   1175.13   0.000763    3.86  0.000203  ( 0.004447  0.011014  0.007848)
 39:   1195.49   0.017438   88.13  0.004552  (-0.033207  0.030397  0.050252)
 40:   1262.75   0.020319  102.69  0.005021  (-0.020386 -0.063110  0.024959)
 41:   1290.17   0.011998   60.63  0.002902  ( 0.048717  0.001959 -0.022911)
 42:   1307.70   0.000895    4.52  0.000214  (-0.009139  0.005323 -0.010087)
 43:   1355.14   0.028105  142.03  0.006472  ( 0.039435 -0.029745  0.063501)
 44:   1409.93   0.001687    8.53  0.000373  (-0.016353 -0.009790 -0.003196)
 45:   1435.24   0.029061  146.86  0.006319  (-0.003567  0.036235 -0.070662)
 46:   1440.60   0.022582  114.12  0.004892  ( 0.034565 -0.055862 -0.024009)
 47:   1456.72   0.009610   48.57  0.002059  (-0.035644  0.006837  0.027231)
 48:   1467.87   0.010234   51.72  0.002176  (-0.010282  0.044561 -0.009184)
 49:   1485.68   0.005265   26.61  0.001106  ( 0.002598  0.031822 -0.009299)
 50:   1490.87   0.006221   31.44  0.001302  (-0.029756 -0.015425 -0.013370)
 51:   1501.76   0.004432   22.40  0.000921  ( 0.010912 -0.022663 -0.016980)
 52:   1504.76   0.003059   15.46  0.000634  (-0.002749 -0.023556  0.008481)
 53:   1508.46   0.001245    6.29  0.000258  (-0.000240 -0.015757  0.003030)
 54:   1513.65   0.001652    8.35  0.000341  (-0.005304 -0.000157  0.017677)
 55:   1515.61   0.004211   21.28  0.000867  (-0.029425 -0.000658  0.000828)
 56:   1518.12   0.002329   11.77  0.000479  (-0.020682  0.000135  0.007147)
 57:   1544.00   0.017722   89.56  0.003582  (-0.002398 -0.037838  0.046307)
 58:   1551.77   0.015326   77.45  0.003082  (-0.042848  0.026906  0.022852)
 59:   1713.21   0.147771  746.77  0.026917  ( 0.057834  0.102651  0.114169)
 60:   1718.64   0.079955  404.06  0.014518  (-0.095775  0.050864 -0.052514)
 61:   3044.27   0.012695   64.16  0.001301  (-0.021152 -0.019507  0.021760)
 62:   3045.71   0.010098   51.03  0.001035  ( 0.030601  0.000628 -0.009890)
 63:   3055.24   0.012726   64.31  0.001300  ( 0.001244  0.023028  0.027712)
 64:   3067.10   0.000550    2.78  0.000056  (-0.004579 -0.005443  0.002316)
 65:   3076.85   0.005390   27.24  0.000547  ( 0.003347  0.005441  0.022492)
 66:   3101.16   0.009564   48.33  0.000962  ( 0.016473 -0.014897  0.021659)
 67:   3116.76   0.004811   24.31  0.000482  ( 0.017199 -0.013232  0.003291)
 68:   3120.09   0.004146   20.95  0.000415  ( 0.014946 -0.013726 -0.001711)
 69:   3122.81   0.006593   33.32  0.000659  ( 0.011743 -0.020308 -0.010418)
 70:   3136.71   0.002143   10.83  0.000213  ( 0.006374 -0.010508 -0.007886)
 71:   3169.54   0.002585   13.06  0.000255  ( 0.009432 -0.007598  0.010384)
 72:   3181.54   0.003992   20.17  0.000392  (-0.010680 -0.010358  0.013045)
 73:   3187.90   0.001609    8.13  0.000158  ( 0.007309  0.000668  0.010181)
 74:   3193.20   0.001107    5.59  0.000108  (-0.004480 -0.009385 -0.000051)

* The epsilon (eps) is given for a Dirac delta lineshape.
** The dipole moment derivative (T) already includes vibrational overlap.

The first frequency considered to be a vibration is 6
The total number of vibrations considered is 69


--------------------------
THERMOCHEMISTRY AT 298.15K
--------------------------

Temperature         ... 298.15 K
Pressure            ... 1.00 atm
Total Mass          ... 158.20 AMU

Throughout the following assumptions are being made:
  (1) The electronic state is orbitally nondegenerate
  (2) There are no thermally accessible electronically excited states
  (3) Hindered rotations indicated by low frequency modes are not
      treated as such but are treated as vibrations and this may
      cause some error
  (4) All equations used are the standard statistical mechanics
      equations for an ideal gas
  (5) All vibrations are strictly harmonic

freq.      14.04  E(vib)   ...       0.57 
freq.      64.11  E(vib)   ...       0.51 
freq.      71.14  E(vib)   ...       0.50 
freq.      89.26  E(vib)   ...       0.47 
freq.      98.08  E(vib)   ...       0.46 
freq.     139.30  E(vib)   ...       0.42 
freq.     153.45  E(vib)   ...       0.40 
freq.     172.32  E(vib)   ...       0.38 
freq.     207.58  E(vib)   ...       0.34 
freq.     233.78  E(vib)   ...       0.32 
freq.     268.81  E(vib)   ...       0.29 
freq.     309.25  E(vib)   ...       0.26 
freq.     315.59  E(vib)   ...       0.25 
freq.     383.60  E(vib)   ...       0.20 
freq.     413.78  E(vib)   ...       0.19 
freq.     457.04  E(vib)   ...       0.16 
freq.     477.51  E(vib)   ...       0.15 
freq.     569.38  E(vib)   ...       0.11 
freq.     600.84  E(vib)   ...       0.10 
freq.     615.57  E(vib)   ...       0.10 
freq.     684.56  E(vib)   ...       0.07 
freq.     743.84  E(vib)   ...       0.06 
freq.     805.51  E(vib)   ...       0.05 
freq.     974.79  E(vib)   ...       0.03 
freq.     989.75  E(vib)   ...       0.02 
freq.    1005.75  E(vib)   ...       0.02 
freq.    1045.58  E(vib)   ...       0.02 
freq.    1060.62  E(vib)   ...       0.02 
freq.    1088.21  E(vib)   ...       0.02 
freq.    1134.93  E(vib)   ...       0.01 
freq.    1150.79  E(vib)   ...       0.01 
freq.    1165.01  E(vib)   ...       0.01 
freq.    1175.13  E(vib)   ...       0.01 
freq.    1195.49  E(vib)   ...       0.01 
freq.    1262.75  E(vib)   ...       0.01 
freq.    1290.17  E(vib)   ...       0.01 
freq.    1307.70  E(vib)   ...       0.01 
freq.    1355.14  E(vib)   ...       0.01 
freq.    1409.93  E(vib)   ...       0.00 
freq.    1435.24  E(vib)   ...       0.00 
freq.    1440.60  E(vib)   ...       0.00 
freq.    1456.72  E(vib)   ...       0.00 
freq.    1467.87  E(vib)   ...       0.00 
freq.    1485.68  E(vib)   ...       0.00 
freq.    1490.87  E(vib)   ...       0.00 
freq.    1501.76  E(vib)   ...       0.00 
freq.    1504.76  E(vib)   ...       0.00 
freq.    1508.46  E(vib)   ...       0.00 
freq.    1513.65  E(vib)   ...       0.00 
freq.    1515.61  E(vib)   ...       0.00 
freq.    1518.12  E(vib)   ...       0.00 
freq.    1544.00  E(vib)   ...       0.00 
freq.    1551.77  E(vib)   ...       0.00 
freq.    1713.21  E(vib)   ...       0.00 
freq.    1718.64  E(vib)   ...       0.00 
freq.    3044.27  E(vib)   ...       0.00 
freq.    3045.71  E(vib)   ...       0.00 
freq.    3055.24  E(vib)   ...       0.00 
freq.    3067.10  E(vib)   ...       0.00 
freq.    3076.85  E(vib)   ...       0.00 
freq.    3101.16  E(vib)   ...       0.00 
freq.    3116.76  E(vib)   ...       0.00 
freq.    3120.09  E(vib)   ...       0.00 
freq.    3122.81  E(vib)   ...       0.00 
freq.    3136.71  E(vib)   ...       0.00 
freq.    3169.54  E(vib)   ...       0.00 
freq.    3181.54  E(vib)   ...       0.00 
freq.    3187.90  E(vib)   ...       0.00 
freq.    3193.20  E(vib)   ...       0.00 

------------
INNER ENERGY
------------

The inner energy is: U= E(el) + E(ZPE) + E(vib) + E(rot) + E(trans)
    E(el)   - is the total energy from the electronic structure calculation
              = E(kin-el) + E(nuc-el) + E(el-el) + E(nuc-nuc)
    E(ZPE)  - the the zero temperature vibrational energy from the frequency calculation
    E(vib)  - the the finite temperature correction to E(ZPE) due to population
              of excited vibrational states
    E(rot)  - is the rotational thermal energy
    E(trans)- is the translational thermal energy

Summary of contributions to the inner energy U:
Electronic energy                ...   -534.86860700 Eh
Zero point energy                ...      0.21525477 Eh     135.07 kcal/mol
Thermal vibrational correction   ...      0.01056383 Eh       6.63 kcal/mol
Thermal rotational correction    ...      0.00141627 Eh       0.89 kcal/mol
Thermal translational correction ...      0.00141627 Eh       0.89 kcal/mol
-----------------------------------------------------------------------
Total thermal energy                   -534.63995585 Eh


Summary of corrections to the electronic energy:
(perhaps to be used in another calculation)
Total thermal correction                  0.01339637 Eh       8.41 kcal/mol
Non-thermal (ZPE) correction              0.21525477 Eh     135.07 kcal/mol
-----------------------------------------------------------------------
Total correction                          0.22865114 Eh     143.48 kcal/mol


--------
ENTHALPY
--------

The enthalpy is H = U + kB*T
                kB is Boltzmann's constant
Total free energy                 ...   -534.63995585 Eh 
Thermal Enthalpy correction       ...      0.00094421 Eh       0.59 kcal/mol
-----------------------------------------------------------------------
Total Enthalpy                    ...   -534.63901164 Eh


Note: Only C1 symmetry has been detected, increase convergence thresholds 
      if your molecule has a higher symmetry. Symmetry factor of 1.0 is   
      used for the rotational entropy correction. 
 

Note: Rotational entropy computed according to Herzberg 
Infrared and Raman Spectra, Chapter V,1, Van Nostrand Reinhold, 1945 
Point Group:  C1, Symmetry Number:   1  
Rotational constants in cm-1:     0.053766     0.025880     0.023804 

Vibrational entropy computed according to the QRRHO of S. Grimme
Chem.Eur.J. 2012 18 9955


-------
ENTROPY
-------

The entropy contributions are T*S = T*(S(el)+S(vib)+S(rot)+S(trans))
     S(el)   - electronic entropy
     S(vib)  - vibrational entropy
     S(rot)  - rotational entropy
     S(trans)- translational entropy
The entropies will be listed as multiplied by the temperature to get
units of energy

Electronic entropy                ...      0.00000000 Eh      0.00 kcal/mol
Vibrational entropy               ...      0.01933666 Eh     12.13 kcal/mol
Rotational entropy                ...      0.01438055 Eh      9.02 kcal/mol
Translational entropy             ...      0.01952088 Eh     12.25 kcal/mol
-----------------------------------------------------------------------
Final entropy term                ...      0.05323809 Eh     33.41 kcal/mol

In case the symmetry of your molecule has not been determined correctly
or in case you have a reason to use a different symmetry number we print 
out the resulting rotational entropy values for sn=1,12 :
 --------------------------------------------------------
|  sn= 1 | S(rot)=       0.01438055 Eh      9.02 kcal/mol|
|  sn= 2 | S(rot)=       0.01372610 Eh      8.61 kcal/mol|
|  sn= 3 | S(rot)=       0.01334326 Eh      8.37 kcal/mol|
|  sn= 4 | S(rot)=       0.01307164 Eh      8.20 kcal/mol|
|  sn= 5 | S(rot)=       0.01286095 Eh      8.07 kcal/mol|
|  sn= 6 | S(rot)=       0.01268881 Eh      7.96 kcal/mol|
|  sn= 7 | S(rot)=       0.01254326 Eh      7.87 kcal/mol|
|  sn= 8 | S(rot)=       0.01241718 Eh      7.79 kcal/mol|
|  sn= 9 | S(rot)=       0.01230598 Eh      7.72 kcal/mol|
|  sn=10 | S(rot)=       0.01220650 Eh      7.66 kcal/mol|
|  sn=11 | S(rot)=       0.01211651 Eh      7.60 kcal/mol|
|  sn=12 | S(rot)=       0.01203435 Eh      7.55 kcal/mol|
 --------------------------------------------------------


-------------------
GIBBS FREE ENERGY
-------------------

The Gibbs free energy is G = H - T*S

Total enthalpy                    ...   -534.63901164 Eh 
Total entropy correction          ...     -0.05323809 Eh    -33.41 kcal/mol
-----------------------------------------------------------------------
Final Gibbs free energy         ...   -534.69224974 Eh

For completeness - the Gibbs free energy minus the electronic energy
G-E(el)                           ...      0.17635726 Eh    110.67 kcal/mol


Timings for individual modules:

Sum of individual times         ...      906.930 sec (=  15.116 min)
GTO integral calculation        ...       14.441 sec (=   0.241 min)   1.6 %
SCF iterations                  ...      441.230 sec (=   7.354 min)  48.7 %
SCF Gradient evaluation         ...      133.833 sec (=   2.231 min)  14.8 %
Geometry relaxation             ...        0.691 sec (=   0.012 min)   0.1 %
Analytical frequency calculation...      316.736 sec (=   5.279 min)  34.9 %
                             ****ORCA TERMINATED NORMALLY****
TOTAL RUN TIME: 0 days 0 hours 15 minutes 14 seconds 446 msec
