
                                 *****************
                                 * O   R   C   A *
                                 *****************

                                            #,                                       
                                            ###                                      
                                            ####                                     
                                            #####                                    
                                            ######                                   
                                           ########,                                 
                                     ,,################,,,,,                         
                               ,,#################################,,                 
                          ,,##########################################,,             
                       ,#########################################, ''#####,          
                    ,#############################################,,   '####,        
                  ,##################################################,,,,####,       
                ,###########''''           ''''###############################       
              ,#####''   ,,,,##########,,,,          '''####'''          '####       
            ,##' ,,,,###########################,,,                        '##       
           ' ,,###''''                  '''############,,,                           
         ,,##''                                '''############,,,,        ,,,,,,###''
      ,#''                                            '''#######################'''  
     '                                                          ''''####''''         
             ,#######,   #######,   ,#######,      ##                                
            ,#'     '#,  ##    ##  ,#'     '#,    #''#        ######   ,####,        
            ##       ##  ##   ,#'  ##            #'  '#       #        #'  '#        
            ##       ##  #######   ##           ,######,      #####,   #    #        
            '#,     ,#'  ##    ##  '#,     ,#' ,#      #,         ##   #,  ,#        
             '#######'   ##     ##  '#######'  #'      '#     #####' # '####'        



                  #######################################################
                  #                        -***-                        #
                  #          Department of theory and spectroscopy      #
                  #    Directorship and core code : Frank Neese         #
                  #        Max Planck Institute fuer Kohlenforschung    #
                  #                Kaiser Wilhelm Platz 1               #
                  #                 D-45470 Muelheim/Ruhr               #
                  #                      Germany                        #
                  #                                                     #
                  #                  All rights reserved                #
                  #                        -***-                        #
                  #######################################################


                         Program Version 5.0.4 -  RELEASE  -


 With contributions from (in alphabetic order):
   Daniel Aravena         : Magnetic Suceptibility
   Michael Atanasov       : Ab Initio Ligand Field Theory (pilot matlab implementation)
   Alexander A. Auer      : GIAO ZORA, VPT2 properties, NMR spectrum
   Ute Becker             : Parallelization
   Giovanni Bistoni       : ED, misc. LED, open-shell LED, HFLD
   Martin Brehm           : Molecular dynamics
   Dmytro Bykov           : SCF Hessian
   Vijay G. Chilkuri      : MRCI spin determinant printing, contributions to CSF-ICE
   Dipayan Datta          : RHF DLPNO-CCSD density
   Achintya Kumar Dutta   : EOM-CC, STEOM-CC
   Dmitry Ganyushin       : Spin-Orbit,Spin-Spin,Magnetic field MRCI
   Miquel Garcia          : C-PCM and meta-GGA Hessian, CC/C-PCM, Gaussian charge scheme
   Yang Guo               : DLPNO-NEVPT2, F12-NEVPT2, CIM, IAO-localization
   Andreas Hansen         : Spin unrestricted coupled pair/coupled cluster methods
   Benjamin Helmich-Paris : MC-RPA, TRAH-SCF, COSX integrals
   Lee Huntington         : MR-EOM, pCC
   Robert Izsak           : Overlap fitted RIJCOSX, COSX-SCS-MP3, EOM
   Marcus Kettner         : VPT2
   Christian Kollmar      : KDIIS, OOCD, Brueckner-CCSD(T), CCSD density, CASPT2, CASPT2-K
   Simone Kossmann        : Meta GGA functionals, TD-DFT gradient, OOMP2, MP2 Hessian
   Martin Krupicka        : Initial AUTO-CI
   Lucas Lang             : DCDCAS
   Marvin Lechner         : AUTO-CI (C++ implementation), FIC-MRCC
   Dagmar Lenk            : GEPOL surface, SMD
   Dimitrios Liakos       : Extrapolation schemes; Compound Job, initial MDCI parallelization
   Dimitrios Manganas     : Further ROCIS development; embedding schemes
   Dimitrios Pantazis     : SARC Basis sets
   Anastasios Papadopoulos: AUTO-CI, single reference methods and gradients
   Taras Petrenko         : DFT Hessian,TD-DFT gradient, ASA, ECA, R-Raman, ABS, FL, XAS/XES, NRVS
   Peter Pinski           : DLPNO-MP2, DLPNO-MP2 Gradient
   Christoph Reimann      : Effective Core Potentials
   Marius Retegan         : Local ZFS, SOC
   Christoph Riplinger    : Optimizer, TS searches, QM/MM, DLPNO-CCSD(T), (RO)-DLPNO pert. Triples
   Tobias Risthaus        : Range-separated hybrids, TD-DFT gradient, RPA, STAB
   Michael Roemelt        : Original ROCIS implementation
   Masaaki Saitow         : Open-shell DLPNO-CCSD energy and density
   Barbara Sandhoefer     : DKH picture change effects
   Avijit Sen             : IP-ROCIS
   Kantharuban Sivalingam : CASSCF convergence, NEVPT2, FIC-MRCI
   Bernardo de Souza      : ESD, SOC TD-DFT
   Georgi Stoychev        : AutoAux, RI-MP2 NMR, DLPNO-MP2 response
   Willem Van den Heuvel  : Paramagnetic NMR
   Boris Wezisla          : Elementary symmetry handling
   Frank Wennmohs         : Technical directorship


 We gratefully acknowledge several colleagues who have allowed us to
 interface, adapt or use parts of their codes:
   Stefan Grimme, W. Hujo, H. Kruse, P. Pracht,  : VdW corrections, initial TS optimization,
                  C. Bannwarth, S. Ehlert          DFT functionals, gCP, sTDA/sTD-DF
   Ed Valeev, F. Pavosevic, A. Kumar             : LibInt (2-el integral package), F12 methods
   Garnet Chan, S. Sharma, J. Yang, R. Olivares  : DMRG
   Ulf Ekstrom                                   : XCFun DFT Library
   Mihaly Kallay                                 : mrcc  (arbitrary order and MRCC methods)
   Jiri Pittner, Ondrej Demel                    : Mk-CCSD
   Frank Weinhold                                : gennbo (NPA and NBO analysis)
   Christopher J. Cramer and Donald G. Truhlar   : smd solvation model
   Lars Goerigk                                  : TD-DFT with DH, B97 family of functionals
   V. Asgeirsson, H. Jonsson                     : NEB implementation
   FAccTs GmbH                                   : IRC, NEB, NEB-TS, DLPNO-Multilevel, CI-OPT
                                                   MM, QMMM, 2- and 3-layer-ONIOM, Crystal-QMMM,
                                                   LR-CPCM, SF, NACMEs, symmetry and pop. for TD-DFT,
                                                   nearIR, NL-DFT gradient (VV10), updates on ESD,
                                                   ML-optimized integration grids
   S Lehtola, MJT Oliveira, MAL Marques          : LibXC Library
   Liviu Ungur et al                             : ANISO software


 Your calculation uses the libint2 library for the computation of 2-el integrals
 For citations please refer to: http://libint.valeyev.net

 Your ORCA version has been built with support for libXC version: 5.1.0
 For citations please refer to: https://tddft.org/programs/libxc/

 This ORCA versions uses:
   CBLAS   interface :  Fast vector & matrix operations
   LAPACKE interface :  Fast linear algebra routines
   SCALAPACK package :  Parallel linear algebra routines
   Shared memory     :  Shared parallel matrices
   BLAS/LAPACK       :  OpenBLAS 0.3.15  USE64BITINT DYNAMIC_ARCH NO_AFFINITY SkylakeX SINGLE_THREADED
        Core in use  :  SkylakeX
   Copyright (c) 2011-2014, The OpenBLAS Project




***************************************
The coordinates will be read from file: /users/fjb15167/WWenergy/structures/Nr.xyz
***************************************


Your calculation utilizes the atom-pairwise dispersion correction
based on tight binding partial charges (D4)
Cite in your paper:
E.Caldeweyher, C.Bannwarth, S.Grimme, J.Chem.Phys., (2017), 147, 034112.
E.Caldeweyher, S.Ehlert, A.Hansen, H.Neugebauer, S.Grimme, J.Chem.Phys., (2018), in progress.
   

================================================================================

----- Orbital basis set information -----
Your calculation utilizes the basis: 6-31+G(d)
   H-He, Li-Ne : W. J. Hehre, R. Ditchfield and J.A. Pople, J. Chem. Phys. 56, 2257 (1972).
                 Note: He and Ne are unpublished basis sets taken from the Gaussian program.
                 Note: Li and B from J. D. Dill and J. A. Pople, J. Chem. Phys. 62, 2921 (1975).
   Na - Ar     : M. M. Francl, W. J. Pietro, W. J. Hehre, J. S. Binkley, M. S. Gordon, 
                 D. J. DeFrees and J. A. Pople, J. Chem. Phys. 77, 3654 (1982).
   K - Zn      : V. A. Rassolov, J. A. Pople, M. A. Ratner, and T. L. Windus, J. Chem. Phys. 109, 1223 (1998).
   Additional Pol./Diff. from the 6-311G equivalent.

----- AuxJ basis set information -----
Your calculation utilizes the AutoAux generation procedure.
  G. L. Stoychev, A. A. Auer, F. Neese, J. Chem. Theory Comput. 13, 554 (2017)

----- AuxC basis set information -----
Your calculation utilizes the AutoAux generation procedure.
  G. L. Stoychev, A. A. Auer, F. Neese, J. Chem. Theory Comput. 13, 554 (2017)

----- AuxJK basis set information -----
Your calculation utilizes the AutoAux generation procedure.
  G. L. Stoychev, A. A. Auer, F. Neese, J. Chem. Theory Comput. 13, 554 (2017)

================================================================================
                                        WARNINGS
                       Please study these warnings very carefully!
================================================================================


WARNING: Geometry Optimization
  ===> : Switching off AutoStart
         For restart on a previous wavefunction, please use MOREAD

INFO   : the flag for use of the SHARK integral package has been found!

================================================================================
                                       INPUT FILE
================================================================================
NAME = Nr_water.inp
|  1> ! OPT FREQ B3LYP 6-31+G(d) D4 AUTOAUX CPCM(water)
|  2> 
|  3> %PAL NPROCS 4 END
|  4> 
|  5> %maxcore 3375
|  6> 
|  7> *xyzfile 1 1 /users/fjb15167/WWenergy/structures/Nr.xyz
|  8> 
|  9>                          ****END OF INPUT****
================================================================================

                       *****************************
                       * Geometry Optimization Run *
                       *****************************

Geometry optimization settings:
Update method            Update   .... BFGS
Choice of coordinates    CoordSys .... Z-matrix Internals
Initial Hessian          InHess   .... Almoef's Model

Convergence Tolerances:
Energy Change            TolE     ....  5.0000e-06 Eh
Max. Gradient            TolMAXG  ....  3.0000e-04 Eh/bohr
RMS Gradient             TolRMSG  ....  1.0000e-04 Eh/bohr
Max. Displacement        TolMAXD  ....  4.0000e-03 bohr
RMS Displacement         TolRMSD  ....  2.0000e-03 bohr
Strict Convergence                ....  False
------------------------------------------------------------------------------
                        ORCA OPTIMIZATION COORDINATE SETUP
------------------------------------------------------------------------------

The optimization will be done in new redundant internal coordinates
Making redundant internal coordinates   ...  (new redundants) done
Evaluating the initial hessian          ...  (Almloef) done
Evaluating the coordinates              ...  done
Calculating the B-matrix                .... done
Calculating the G-matrix                .... done
Diagonalizing the G-matrix              .... done
Small eigenvalue found = 2.367e-03
Small eigenvalue found = 3.553e-03
Small eigenvalue found = 9.084e-03
Small eigenvalue found = 1.076e-02
Small eigenvalue found = 1.391e-02
Small eigenvalue found = 2.110e-02
Small eigenvalue found = 2.628e-02
The first mode is                       ....   73
The number of degrees of freedom        ....  111

    -----------------------------------------------------------------
                    Redundant Internal Coordinates


    -----------------------------------------------------------------
         Definition                    Initial Value    Approx d2E/dq
    -----------------------------------------------------------------
      1. B(H   1,C   0)                  1.0920         0.357520   
      2. B(H   2,C   0)                  1.0899         0.360204   
      3. B(H   3,C   0)                  1.0937         0.355213   
      4. B(C   4,C   0)                  1.5266         0.378273   
      5. B(N   5,C   4)                  1.3831         0.573861   
      6. B(C   6,N   5)                  1.4649         0.424918   
      7. B(H   7,C   6)                  1.0953         0.353117   
      8. B(H   8,C   6)                  1.0956         0.352788   
      9. B(C   9,C   6)                  1.5350         0.366731   
     10. B(N  10,C   9)                  1.3625         0.619066   
     11. B(O  11,C   9)                  1.2360         0.985476   
     12. B(O  12,C   4)                  1.2205         1.043058   
     13. B(C  13,N  10)                  1.4531         0.443806   
     14. B(H  14,C  13)                  1.0959         0.352327   
     15. B(H  15,C  13)                  1.0936         0.355314   
     16. B(H  16,C  13)                  1.0891         0.361342   
     17. B(C  17,N  10)                  1.4598         0.432979   
     18. B(H  18,C  17)                  1.0938         0.355092   
     19. B(H  19,C  17)                  1.0945         0.354156   
     20. B(H  20,C  17)                  1.0884         0.362158   
     21. B(C  21,N   5)                  1.4596         0.433363   
     22. B(H  22,C  21)                  1.0934         0.355586   
     23. B(C  23,C  21)                  1.5339         0.368238   
     24. B(H  24,C  23)                  1.0983         0.349277   
     25. B(H  25,C  23)                  1.0968         0.351264   
     26. B(C  26,C  23)                  1.5204         0.386971   
     27. B(H  27,C  26)                  1.0900         0.360061   
     28. B(H  28,C  26)                  1.0944         0.354277   
     29. B(N  29,C  26)                  1.4723         0.413656   
     30. B(H  30,N  29)                  1.0148         0.425198   
     31. B(C  31,N  29)                  1.3312         0.694426   
     32. B(N  32,C  31)                  1.3375         0.678520   
     33. B(N  33,C  31)                  1.3430         0.665095   
     34. B(H  34,N  32)                  1.0133         0.427459   
     35. B(H  35,N  32)                  1.0120         0.429575   
     36. B(H  36,N  33)                  1.0106         0.431771   
     37. B(H  37,N  33)                  1.0114         0.430555   
     38. B(H  38,C  21)                  1.0933         0.355729   
     39. A(H   3,C   0,C   4)          110.1945         0.324257   
     40. A(H   1,C   0,H   2)          110.1881         0.290524   
     41. A(H   1,C   0,H   3)          107.1968         0.289889   
     42. A(H   1,C   0,C   4)          113.7554         0.324602   
     43. A(H   2,C   0,C   4)          106.7096         0.325001   
     44. A(H   2,C   0,H   3)          108.7254         0.290229   
     45. A(C   0,C   4,O  12)          121.6903         0.433253   
     46. A(C   0,C   4,N   5)          116.7183         0.389707   
     47. A(N   5,C   4,O  12)          121.5914         0.464195   
     48. A(C   6,N   5,C  21)          118.4341         0.376331   
     49. A(C   4,N   5,C  21)          116.3197         0.396553   
     50. A(C   4,N   5,C   6)          124.3351         0.395186   
     51. A(H   7,C   6,C   9)          104.5104         0.322300   
     52. A(N   5,C   6,C   9)          116.3732         0.367972   
     53. A(H   7,C   6,H   8)          107.1198         0.289016   
     54. A(N   5,C   6,H   8)          107.3856         0.328172   
     55. A(H   8,C   6,C   9)          109.1551         0.322251   
     56. A(N   5,C   6,H   7)          111.9407         0.328222   
     57. A(C   6,C   9,N  10)          118.0550         0.392774   
     58. A(C   6,C   9,O  11)          118.2423         0.426482   
     59. A(N  10,C   9,O  11)          123.7023         0.465815   
     60. A(C  13,N  10,C  17)          116.0366         0.379115   
     61. A(C   9,N  10,C  17)          118.6476         0.401814   
     62. A(C   9,N  10,C  13)          125.3077         0.403567   
     63. A(H  15,C  13,H  16)          107.5803         0.290386   
     64. A(H  14,C  13,H  16)          109.1293         0.290002   
     65. A(N  10,C  13,H  16)          111.1171         0.331851   
     66. A(H  14,C  13,H  15)          108.6176         0.289238   
     67. A(N  10,C  13,H  15)          108.2524         0.330928   
     68. A(N  10,C  13,H  14)          112.0103         0.330466   
     69. A(H  18,C  17,H  19)          109.0426         0.289444   
     70. A(N  10,C  17,H  19)          109.6974         0.329402   
     71. A(N  10,C  17,H  18)          110.3042         0.329546   
     72. A(H  19,C  17,H  20)          110.0187         0.290340   
     73. A(H  18,C  17,H  20)          109.3738         0.290460   
     74. A(N  10,C  17,H  20)          108.3943         0.330621   
     75. A(H  22,C  21,C  23)          109.9345         0.322885   
     76. A(N   5,C  21,C  23)          114.2153         0.369477   
     77. A(N   5,C  21,H  22)          107.9302         0.329670   
     78. A(C  23,C  21,H  38)          108.4930         0.322906   
     79. A(H  22,C  21,H  38)          107.9595         0.289708   
     80. A(N   5,C  21,H  38)          108.1257         0.329692   
     81. A(H  25,C  23,C  26)          109.9874         0.324873   
     82. A(H  24,C  23,C  26)          109.6951         0.324570   
     83. A(C  21,C  23,C  26)          111.5920         0.364649   
     84. A(H  24,C  23,H  25)          107.6074         0.288326   
     85. A(C  21,C  23,H  25)          109.9602         0.322238   
     86. A(C  21,C  23,H  24)          107.8930         0.321939   
     87. A(H  28,C  26,N  29)          109.9995         0.326949   
     88. A(H  27,C  26,N  29)          107.7437         0.327823   
     89. A(C  23,C  26,N  29)          110.8409         0.369673   
     90. A(H  27,C  26,H  28)          108.1652         0.290091   
     91. A(C  23,C  26,H  28)          109.8852         0.325329   
     92. A(C  23,C  26,H  27)          110.1433         0.326197   
     93. A(H  30,N  29,C  31)          118.0484         0.364583   
     94. A(C  26,N  29,C  31)          122.4251         0.406753   
     95. A(C  26,N  29,H  30)          118.5519         0.334093   
     96. A(N  32,C  31,N  33)          119.3461         0.440960   
     97. A(N  29,C  31,N  33)          120.6270         0.442810   
     98. A(N  29,C  31,N  32)          120.0163         0.444414   
     99. A(H  34,N  32,H  35)          117.4235         0.302315   
    100. A(C  31,N  32,H  35)          121.0193         0.363778   
    101. A(C  31,N  32,H  34)          121.3811         0.363471   
    102. A(H  36,N  33,H  37)          117.3332         0.302910   
    103. A(C  31,N  33,H  37)          121.3050         0.362679   
    104. A(C  31,N  33,H  36)          121.1994         0.362854   
    105. D(O  12,C   4,C   0,H   3)   -106.7842         0.010684   
    106. D(O  12,C   4,C   0,H   1)    132.8136         0.010684   
    107. D(N   5,C   4,C   0,H   1)    -47.0966         0.010684   
    108. D(O  12,C   4,C   0,H   2)     11.0918         0.010684   
    109. D(N   5,C   4,C   0,H   3)     73.3056         0.010684   
    110. D(N   5,C   4,C   0,H   2)   -168.8184         0.010684   
    111. D(C  21,N   5,C   4,C   0)   -179.7394         0.026377   
    112. D(C   6,N   5,C   4,O  12)   -168.5185         0.026377   
    113. D(C  21,N   5,C   4,O  12)      0.3503         0.026377   
    114. D(C   6,N   5,C   4,C   0)     11.3918         0.026377   
    115. D(C   9,C   6,N   5,C   4)    -56.5868         0.015394   
    116. D(H   7,C   6,N   5,C  21)   -105.1567         0.015394   
    117. D(H   8,C   6,N   5,C   4)   -179.2039         0.015394   
    118. D(H   8,C   6,N   5,C  21)     12.1449         0.015394   
    119. D(H   7,C   6,N   5,C   4)     63.4945         0.015394   
    120. D(C   9,C   6,N   5,C  21)    134.7620         0.015394   
    121. D(O  11,C   9,C   6,H   8)   -111.6225         0.010084   
    122. D(O  11,C   9,C   6,H   7)      2.6949         0.010084   
    123. D(O  11,C   9,C   6,N   5)    126.6898         0.010084   
    124. D(N  10,C   9,C   6,H   7)   -177.5178         0.010084   
    125. D(N  10,C   9,C   6,H   8)     68.1648         0.010084   
    126. D(N  10,C   9,C   6,N   5)    -53.5228         0.010084   
    127. D(C  17,N  10,C   9,C   6)    175.8927         0.031026   
    128. D(C  13,N  10,C   9,O  11)    174.5934         0.031026   
    129. D(C  13,N  10,C   9,C   6)     -5.1814         0.031026   
    130. D(C  17,N  10,C   9,O  11)     -4.3325         0.031026   
    131. D(H  15,C  13,N  10,C   9)   -143.1923         0.016797   
    132. D(H  14,C  13,N  10,C  17)    -83.9708         0.016797   
    133. D(H  15,C  13,N  10,C  17)     35.7587         0.016797   
    134. D(H  14,C  13,N  10,C   9)     97.0782         0.016797   
    135. D(H  16,C  13,N  10,C   9)    -25.2676         0.016797   
    136. D(H  16,C  13,N  10,C  17)    153.6834         0.016797   
    137. D(H  20,C  17,N  10,C  13)    174.7005         0.015984   
    138. D(H  20,C  17,N  10,C   9)     -6.2750         0.015984   
    139. D(H  19,C  17,N  10,C  13)     54.5527         0.015984   
    140. D(H  19,C  17,N  10,C   9)   -126.4228         0.015984   
    141. D(H  18,C  17,N  10,C  13)    -65.5775         0.015984   
    142. D(H  18,C  17,N  10,C   9)    113.4470         0.015984   
    143. D(H  38,C  21,N   5,C   6)    -37.1855         0.016012   
    144. D(H  38,C  21,N   5,C   4)    153.2592         0.016012   
    145. D(C  23,C  21,N   5,C   6)     83.6899         0.016012   
    146. D(C  23,C  21,N   5,C   4)    -85.8655         0.016012   
    147. D(H  22,C  21,N   5,C   6)   -153.7322         0.016012   
    148. D(H  22,C  21,N   5,C   4)     36.7125         0.016012   
    149. D(C  26,C  23,C  21,H  38)   -172.4772         0.010846   
    150. D(C  26,C  23,C  21,H  22)    -54.6273         0.010846   
    151. D(C  26,C  23,C  21,N   5)     66.8515         0.010846   
    152. D(H  25,C  23,C  21,H  38)     65.1897         0.010846   
    153. D(H  25,C  23,C  21,H  22)   -176.9604         0.010846   
    154. D(H  25,C  23,C  21,N   5)    -55.4815         0.010846   
    155. D(H  24,C  23,C  21,H  38)    -51.9035         0.010846   
    156. D(H  24,C  23,C  21,H  22)     65.9464         0.010846   
    157. D(H  24,C  23,C  21,N   5)   -172.5747         0.010846   
    158. D(N  29,C  26,C  23,H  25)    -61.2173         0.011913   
    159. D(N  29,C  26,C  23,H  24)     56.9519         0.011913   
    160. D(N  29,C  26,C  23,C  21)    176.4652         0.011913   
    161. D(H  28,C  26,C  23,H  25)    176.9896         0.011913   
    162. D(H  28,C  26,C  23,H  24)    -64.8412         0.011913   
    163. D(H  28,C  26,C  23,C  21)     54.6721         0.011913   
    164. D(H  27,C  26,C  23,H  25)     57.9247         0.011913   
    165. D(H  27,C  26,C  23,H  24)    176.0940         0.011913   
    166. D(H  27,C  26,C  23,C  21)    -64.3927         0.011913   
    167. D(H  30,N  29,C  26,C  23)    -20.4254         0.014594   
    168. D(C  31,N  29,C  26,H  28)    -67.1766         0.014594   
    169. D(C  31,N  29,C  26,H  27)     50.5205         0.014594   
    170. D(C  31,N  29,C  26,C  23)    171.0973         0.014594   
    171. D(H  30,N  29,C  26,H  28)    101.3007         0.014594   
    172. D(H  30,N  29,C  26,H  27)   -141.0022         0.014594   
    173. D(N  33,C  31,N  29,H  30)     16.5425         0.039842   
    174. D(N  33,C  31,N  29,C  26)   -174.9251         0.039842   
    175. D(N  32,C  31,N  29,H  30)   -164.6468         0.039842   
    176. D(N  32,C  31,N  29,C  26)      3.8856         0.039842   
    177. D(H  35,N  32,C  31,N  33)     13.3819         0.037867   
    178. D(H  35,N  32,C  31,N  29)   -165.4440         0.037867   
    179. D(H  34,N  32,C  31,N  33)   -171.5648         0.037867   
    180. D(H  34,N  32,C  31,N  29)      9.6093         0.037867   
    181. D(H  37,N  33,C  31,N  32)     16.3438         0.036248   
    182. D(H  37,N  33,C  31,N  29)   -164.8376         0.036248   
    183. D(H  36,N  33,C  31,N  32)   -168.4112         0.036248   
    184. D(H  36,N  33,C  31,N  29)     10.4074         0.036248   
    -----------------------------------------------------------------

Number of atoms                         .... 39
Number of degrees of freedom            .... 184

         *************************************************************
         *                GEOMETRY OPTIMIZATION CYCLE   1            *
         *************************************************************
---------------------------------
CARTESIAN COORDINATES (ANGSTROEM)
---------------------------------
  C      1.894000    2.080000    0.542000
  H      1.869000    1.745000    1.581000
  H      1.542000    3.109000    0.470000
  H      2.937000    2.042000    0.215000
  C      1.018000    1.250000   -0.393000
  N      1.125000   -0.125000   -0.288000
  C      1.823000   -0.819000    0.797000
  H      1.352000   -0.637000    1.769000
  H      1.749000   -1.894000    0.599000
  C      3.297000   -0.446000    1.008000
  N      4.137000   -0.523000   -0.062000
  O      3.656000   -0.097000    2.138000
  O      0.259000    1.773000   -1.193000
  C      3.780000   -1.033000   -1.375000
  H      3.518000   -0.228000   -2.071000
  H      4.640000   -1.576000   -1.777000
  H      2.949000   -1.734000   -1.311000
  C      5.520000   -0.085000    0.101000
  H      6.201000   -0.936000    0.009000
  H      5.766000    0.654000   -0.668000
  H      5.626000    0.357000    1.090000
  C      0.288000   -0.910000   -1.190000
  H      0.241000   -0.385000   -2.148000
  C     -1.130000   -1.170000   -0.666000
  H     -1.620000   -1.873000   -1.353000
  H     -1.083000   -1.648000    0.320000
  C     -1.940000    0.114000   -0.583000
  H     -1.498000    0.790000    0.149000
  H     -1.941000    0.617000   -1.555000
  N     -3.322000   -0.165000   -0.159000
  H     -3.684000   -1.106000   -0.274000
  C     -4.181000    0.802000    0.156000
  N     -3.825000    2.084000    0.019000
  N     -5.400000    0.505000    0.635000
  H     -2.968000    2.346000   -0.454000
  H     -4.365000    2.824000    0.449000
  H     -5.638000   -0.437000    0.913000
  H     -6.136000    1.198000    0.665000
  H      0.778000   -1.873000   -1.357000

----------------------------
CARTESIAN COORDINATES (A.U.)
----------------------------
  NO LB      ZA    FRAG     MASS         X           Y           Z
   0 C     6.0000    0    12.011    3.579141    3.930630    1.024232
   1 H     1.0000    0     1.008    3.531898    3.297572    2.987657
   2 H     1.0000    0     1.008    2.913958    5.875159    0.888171
   3 H     1.0000    0     1.008    5.550126    3.858821    0.406291
   4 C     6.0000    0    12.011    1.923741    2.362158   -0.742662
   5 N     7.0000    0    14.007    2.125942   -0.236216   -0.544241
   6 C     6.0000    0    12.011    3.444971   -1.547686    1.506112
   7 H     1.0000    0     1.008    2.554910   -1.203756    3.342926
   8 H     1.0000    0     1.008    3.305131   -3.579141    1.131946
   9 C     6.0000    0    12.011    6.230427   -0.842818    1.904844
  10 N     7.0000    0    14.007    7.817797   -0.988327   -0.117163
  11 O     8.0000    0    15.999    6.908839   -0.183303    4.040234
  12 O     8.0000    0    15.999    0.489439    3.350484   -2.254443
  13 C     6.0000    0    12.011    7.143165   -1.952087   -2.598373
  14 H     1.0000    0     1.008    6.648057   -0.430858   -3.913623
  15 H     1.0000    0     1.008    8.768329   -2.978208   -3.358043
  16 H     1.0000    0     1.008    5.572802   -3.276785   -2.477431
  17 C     6.0000    0    12.011   10.431288   -0.160627    0.190862
  18 H     1.0000    0     1.008   11.718192   -1.768784    0.017008
  19 H     1.0000    0     1.008   10.896161    1.235881   -1.262337
  20 H     1.0000    0     1.008   10.631599    0.674632    2.059801
  21 C     6.0000    0    12.011    0.544241   -1.719651   -2.248774
  22 H     1.0000    0     1.008    0.455424   -0.727545   -4.059132
  23 C     6.0000    0    12.011   -2.135391   -2.210980   -1.258558
  24 H     1.0000    0     1.008   -3.061356   -3.539457   -2.556799
  25 H     1.0000    0     1.008   -2.046573   -3.114269    0.604712
  26 C     6.0000    0    12.011   -3.666069    0.215429   -1.101710
  27 H     1.0000    0     1.008   -2.830810    1.492884    0.281569
  28 H     1.0000    0     1.008   -3.667958    1.165961   -2.938524
  29 N     7.0000    0    14.007   -6.277670   -0.311805   -0.300466
  30 H     1.0000    0     1.008   -6.961751   -2.090037   -0.517785
  31 C     6.0000    0    12.011   -7.900945    1.515560    0.294797
  32 N     7.0000    0    14.007   -7.228202    3.938189    0.035905
  33 N     7.0000    0    14.007  -10.204521    0.954312    1.199976
  34 H     1.0000    0     1.008   -5.608707    4.433298   -0.857936
  35 H     1.0000    0     1.008   -8.248655    5.336587    0.848487
  36 H     1.0000    0     1.008  -10.654276   -0.825810    1.725320
  37 H     1.0000    0     1.008  -11.595360    2.263892    1.256668
  38 H     1.0000    0     1.008    1.470207   -3.539457   -2.564358

--------------------------------
INTERNAL COORDINATES (ANGSTROEM)
--------------------------------
 C      0   0   0     0.000000000000     0.00000000     0.00000000
 H      1   0   0     1.091957416752     0.00000000     0.00000000
 H      1   2   0     1.089921556810   110.18805158     0.00000000
 H      1   2   3     1.093719342427   107.19675427   118.15450329
 C      1   2   3     1.526597851433   113.75542193   240.22940067
 N      5   1   2     1.383148220546   116.71825440   312.90340151
 C      6   5   1     1.464945391474   124.33505451    11.39177437
 H      7   6   5     1.095330543717   111.94072292    63.49448726
 H      7   6   5     1.095584318982   107.38564007   180.79609710
 C      7   6   5     1.535032898670   116.37316090   303.41319699
 N     10   7   6     1.362508348598   118.05497749   306.47715234
 O     10   7   6     1.235953882635   118.24234789   126.68982536
 O      5   1   2     1.220495800894   121.69031143   132.81359183
 C     11  10   7     1.453106327837   125.30770598   354.81863341
 H     14  11  10     1.095940235597   112.01025900    97.07820790
 H     14  11  10     1.093642080390   108.25238780   216.80774312
 H     14  11  10     1.089062899928   111.11712825   334.73240785
 C     11  10   7     1.459829442092   118.64763753   175.89269008
 H     18  11  10     1.093812598209   110.30417586   113.44701741
 H     18  11  10     1.094530949768   109.69743241   233.57723534
 H     18  11  10     1.088448896366   108.39432048   353.72497202
 C      6   5   1     1.459588298117   116.31969076   180.26057648
 H     22   6   5     1.093434040077   107.93018565    36.71248520
 C     22   6   5     1.533916555749   114.21534211   274.13454726
 H     24  22   6     1.098306878791   107.89302716   187.42528797
 H     24  22   6     1.096762964364   109.96024121   304.51848947
 C     24  22   6     1.520409484317   111.59204187    66.85154482
 H     27  24  22     1.090029357403   110.14329538   295.60728998
 H     27  24  22     1.094437755197   109.88522943    54.67211676
 N     27  24  22     1.472257110698   110.84087475   176.46521514
 H     30  27  24     1.014765982875   118.55192194   339.57459310
 C     30  27  24     1.331238145487   122.42509736   171.09732458
 N     32  30  27     1.337545887063   120.01631080     3.88560761
 N     32  30  27     1.342985852494   120.62701416   185.07494830
 H     33  32  30     1.013322258711   121.38112095     9.60927798
 H     33  32  30     1.011978260636   121.01932415   194.55603950
 H     34  32  30     1.010589926726   121.19938860    10.40737588
 H     34  32  30     1.011357997941   121.30501752   195.16237409
 H     22   6   5     1.093324288580   108.12570719   153.25919147

---------------------------
INTERNAL COORDINATES (A.U.)
---------------------------
 C      0   0   0     0.000000000000     0.00000000     0.00000000
 H      1   0   0     2.063500467566     0.00000000     0.00000000
 H      1   2   0     2.059653249829   110.18805158     0.00000000
 H      1   2   3     2.066830024560   107.19675427   118.15450329
 C      1   2   3     2.884851855841   113.75542193   240.22940067
 N      5   1   2     2.613771339453   116.71825440   312.90340151
 C      6   5   1     2.768345591035   124.33505451    11.39177437
 H      7   6   5     2.069874753745   111.94072292    63.49448726
 H      7   6   5     2.070354319495   107.38564007   180.79609710
 C      7   6   5     2.900791785046   116.37316090   303.41319699
 N     10   7   6     2.574767634032   118.05497749   306.47715234
 O     10   7   6     2.335614352336   118.24234789   126.68982536
 O      5   1   2     2.306402811291   121.69031143   132.81359183
 C     11  10   7     2.745973003080   125.30770598   354.81863341
 H     14  11  10     2.071026904423   112.01025900    97.07820790
 H     14  11  10     2.066684020469   108.25238780   216.80774312
 H     14  11  10     2.058030623478   111.11712825   334.73240785
 C     11  10   7     2.758677847790   118.64763753   175.89269008
 H     18  11  10     2.067006252447   110.30417586   113.44701741
 H     18  11  10     2.068363740162   109.69743241   233.57723534
 H     18  11  10     2.056870324900   108.39432048   353.72497202
 C      6   5   1     2.758222151717   116.31969076   180.26057648
 H     22   6   5     2.066290881253   107.93018565    36.71248520
 C     22   6   5     2.898682202653   114.21534211   274.13454726
 H     24  22   6     2.075499211917   107.89302716   187.42528797
 H     24  22   6     2.072581636475   109.96024121   304.51848947
 C     24  22   6     2.873157536775   111.59204187    66.85154482
 H     27  24  22     2.059856963425   110.14329538   295.60728998
 H     27  24  22     2.068187627945   109.88522943    54.67211676
 N     27  24  22     2.782162737937   110.84087475   176.46521514
 H     30  27  24     1.917629797653   118.55192194   339.57459310
 C     30  27  24     2.515675514000   122.42509736   171.09732458
 N     32  30  27     2.527595418102   120.01631080     3.88560761
 N     32  30  27     2.537875462945   120.62701416   185.07494830
 H     33  32  30     1.914901554371   121.38112095     9.60927798
 H     33  32  30     1.912361766084   121.01932415   194.55603950
 H     34  32  30     1.909738195212   121.19938860    10.40737588
 H     34  32  30     1.911189639460   121.30501752   195.16237409
 H     22   6   5     2.066083480981   108.12570719   153.25919147

---------------------
BASIS SET INFORMATION
---------------------
There are 4 groups of distinct atoms

 Group   1 Type C   : 11s5p1d contracted to 4s3p1d pattern {6311/311/1}
 Group   2 Type H   : 4s contracted to 2s pattern {31}
 Group   3 Type N   : 11s5p1d contracted to 4s3p1d pattern {6311/311/1}
 Group   4 Type O   : 11s5p1d contracted to 4s3p1d pattern {6311/311/1}

Atom   0C    basis set group =>   1
Atom   1H    basis set group =>   2
Atom   2H    basis set group =>   2
Atom   3H    basis set group =>   2
Atom   4C    basis set group =>   1
Atom   5N    basis set group =>   3
Atom   6C    basis set group =>   1
Atom   7H    basis set group =>   2
Atom   8H    basis set group =>   2
Atom   9C    basis set group =>   1
Atom  10N    basis set group =>   3
Atom  11O    basis set group =>   4
Atom  12O    basis set group =>   4
Atom  13C    basis set group =>   1
Atom  14H    basis set group =>   2
Atom  15H    basis set group =>   2
Atom  16H    basis set group =>   2
Atom  17C    basis set group =>   1
Atom  18H    basis set group =>   2
Atom  19H    basis set group =>   2
Atom  20H    basis set group =>   2
Atom  21C    basis set group =>   1
Atom  22H    basis set group =>   2
Atom  23C    basis set group =>   1
Atom  24H    basis set group =>   2
Atom  25H    basis set group =>   2
Atom  26C    basis set group =>   1
Atom  27H    basis set group =>   2
Atom  28H    basis set group =>   2
Atom  29N    basis set group =>   3
Atom  30H    basis set group =>   2
Atom  31C    basis set group =>   1
Atom  32N    basis set group =>   3
Atom  33N    basis set group =>   3
Atom  34H    basis set group =>   2
Atom  35H    basis set group =>   2
Atom  36H    basis set group =>   2
Atom  37H    basis set group =>   2
Atom  38H    basis set group =>   2
---------------------------------
AUXILIARY/J BASIS SET INFORMATION
---------------------------------
There are 4 groups of distinct atoms

 Group   1 Type C   : 16s13p12d2f contracted to 16s13p12d2f pattern {1111111111111111/1111111111111/111111111111/11}
 Group   2 Type H   : 9s2p contracted to 9s2p pattern {111111111/11}
 Group   3 Type N   : 16s13p12d3f contracted to 16s13p12d3f pattern {1111111111111111/1111111111111/111111111111/111}
 Group   4 Type O   : 16s13p12d3f contracted to 16s13p12d3f pattern {1111111111111111/1111111111111/111111111111/111}

Atom   0C    basis set group =>   1
Atom   1H    basis set group =>   2
Atom   2H    basis set group =>   2
Atom   3H    basis set group =>   2
Atom   4C    basis set group =>   1
Atom   5N    basis set group =>   3
Atom   6C    basis set group =>   1
Atom   7H    basis set group =>   2
Atom   8H    basis set group =>   2
Atom   9C    basis set group =>   1
Atom  10N    basis set group =>   3
Atom  11O    basis set group =>   4
Atom  12O    basis set group =>   4
Atom  13C    basis set group =>   1
Atom  14H    basis set group =>   2
Atom  15H    basis set group =>   2
Atom  16H    basis set group =>   2
Atom  17C    basis set group =>   1
Atom  18H    basis set group =>   2
Atom  19H    basis set group =>   2
Atom  20H    basis set group =>   2
Atom  21C    basis set group =>   1
Atom  22H    basis set group =>   2
Atom  23C    basis set group =>   1
Atom  24H    basis set group =>   2
Atom  25H    basis set group =>   2
Atom  26C    basis set group =>   1
Atom  27H    basis set group =>   2
Atom  28H    basis set group =>   2
Atom  29N    basis set group =>   3
Atom  30H    basis set group =>   2
Atom  31C    basis set group =>   1
Atom  32N    basis set group =>   3
Atom  33N    basis set group =>   3
Atom  34H    basis set group =>   2
Atom  35H    basis set group =>   2
Atom  36H    basis set group =>   2
Atom  37H    basis set group =>   2
Atom  38H    basis set group =>   2
---------------------------------
AUXILIARY/C BASIS SET INFORMATION
---------------------------------
There are 4 groups of distinct atoms

 Group   1 Type C   : 16s13p12d2f contracted to 16s13p12d2f pattern {1111111111111111/1111111111111/111111111111/11}
 Group   2 Type H   : 9s2p contracted to 9s2p pattern {111111111/11}
 Group   3 Type N   : 16s13p12d3f contracted to 16s13p12d3f pattern {1111111111111111/1111111111111/111111111111/111}
 Group   4 Type O   : 16s13p12d3f contracted to 16s13p12d3f pattern {1111111111111111/1111111111111/111111111111/111}

Atom   0C    basis set group =>   1
Atom   1H    basis set group =>   2
Atom   2H    basis set group =>   2
Atom   3H    basis set group =>   2
Atom   4C    basis set group =>   1
Atom   5N    basis set group =>   3
Atom   6C    basis set group =>   1
Atom   7H    basis set group =>   2
Atom   8H    basis set group =>   2
Atom   9C    basis set group =>   1
Atom  10N    basis set group =>   3
Atom  11O    basis set group =>   4
Atom  12O    basis set group =>   4
Atom  13C    basis set group =>   1
Atom  14H    basis set group =>   2
Atom  15H    basis set group =>   2
Atom  16H    basis set group =>   2
Atom  17C    basis set group =>   1
Atom  18H    basis set group =>   2
Atom  19H    basis set group =>   2
Atom  20H    basis set group =>   2
Atom  21C    basis set group =>   1
Atom  22H    basis set group =>   2
Atom  23C    basis set group =>   1
Atom  24H    basis set group =>   2
Atom  25H    basis set group =>   2
Atom  26C    basis set group =>   1
Atom  27H    basis set group =>   2
Atom  28H    basis set group =>   2
Atom  29N    basis set group =>   3
Atom  30H    basis set group =>   2
Atom  31C    basis set group =>   1
Atom  32N    basis set group =>   3
Atom  33N    basis set group =>   3
Atom  34H    basis set group =>   2
Atom  35H    basis set group =>   2
Atom  36H    basis set group =>   2
Atom  37H    basis set group =>   2
Atom  38H    basis set group =>   2
----------------------------------
AUXILIARY/JK BASIS SET INFORMATION
----------------------------------
There are 4 groups of distinct atoms

 Group   1 Type C   : 16s13p12d2f contracted to 16s13p12d2f pattern {1111111111111111/1111111111111/111111111111/11}
 Group   2 Type H   : 9s2p contracted to 9s2p pattern {111111111/11}
 Group   3 Type N   : 16s13p12d3f contracted to 16s13p12d3f pattern {1111111111111111/1111111111111/111111111111/111}
 Group   4 Type O   : 16s13p12d3f contracted to 16s13p12d3f pattern {1111111111111111/1111111111111/111111111111/111}

Atom   0C    basis set group =>   1
Atom   1H    basis set group =>   2
Atom   2H    basis set group =>   2
Atom   3H    basis set group =>   2
Atom   4C    basis set group =>   1
Atom   5N    basis set group =>   3
Atom   6C    basis set group =>   1
Atom   7H    basis set group =>   2
Atom   8H    basis set group =>   2
Atom   9C    basis set group =>   1
Atom  10N    basis set group =>   3
Atom  11O    basis set group =>   4
Atom  12O    basis set group =>   4
Atom  13C    basis set group =>   1
Atom  14H    basis set group =>   2
Atom  15H    basis set group =>   2
Atom  16H    basis set group =>   2
Atom  17C    basis set group =>   1
Atom  18H    basis set group =>   2
Atom  19H    basis set group =>   2
Atom  20H    basis set group =>   2
Atom  21C    basis set group =>   1
Atom  22H    basis set group =>   2
Atom  23C    basis set group =>   1
Atom  24H    basis set group =>   2
Atom  25H    basis set group =>   2
Atom  26C    basis set group =>   1
Atom  27H    basis set group =>   2
Atom  28H    basis set group =>   2
Atom  29N    basis set group =>   3
Atom  30H    basis set group =>   2
Atom  31C    basis set group =>   1
Atom  32N    basis set group =>   3
Atom  33N    basis set group =>   3
Atom  34H    basis set group =>   2
Atom  35H    basis set group =>   2
Atom  36H    basis set group =>   2
Atom  37H    basis set group =>   2
Atom  38H    basis set group =>   2


           ************************************************************
           *        Program running with 4 parallel MPI-processes     *
           *              working on a common directory               *
           ************************************************************
------------------------------------------------------------------------------
                           ORCA GTO INTEGRAL CALCULATION
                           -- RI-GTO INTEGRALS CHOSEN --
------------------------------------------------------------------------------
------------------------------------------------------------------------------
                   ___                                                        
                  /   \      - P O W E R E D   B Y -                         
                 /     \                                                     
                 |  |  |   _    _      __       _____    __    __             
                 |  |  |  | |  | |    /  \     |  _  \  |  |  /  |          
                  \  \/   | |  | |   /    \    | | | |  |  | /  /          
                 / \  \   | |__| |  /  /\  \   | |_| |  |  |/  /          
                |  |  |   |  __  | /  /__\  \  |    /   |      \           
                |  |  |   | |  | | |   __   |  |    \   |  |\   \          
                \     /   | |  | | |  |  |  |  | |\  \  |  | \   \       
                 \___/    |_|  |_| |__|  |__|  |_| \__\ |__|  \__/        
                                                                              
                      - O R C A' S   B I G   F R I E N D -                    
                                      &                                       
                       - I N T E G R A L  F E E D E R -                       
                                                                              
 v1 FN, 2020, v2 2021                                                         
------------------------------------------------------------------------------


Reading SHARK input file Nr_water.SHARKINP.tmp ... ok
----------------------
SHARK INTEGRAL PACKAGE
----------------------

Number of atoms                             ...     39
Number of basis functions                   ...    350
Number of shells                            ...    180
Maximum angular momentum                    ...      2
Integral batch strategy                     ... SHARK/LIBINT Hybrid
RI-J (if used) integral strategy            ... SPLIT-RIJ (Revised 2003 algorithm where possible)
Printlevel                                  ...      1
Contraction scheme used                     ... SEGMENTED contraction
Coulomb Range Separation                    ... NOT USED
Exchange Range Separation                   ... NOT USED
Finite Nucleus Model                        ... NOT USED
Auxiliary Coulomb fitting basis             ... AVAILABLE
   # of basis functions in Aux-J            ...   2572
   # of shells in Aux-J                     ...    980
   Maximum angular momentum in Aux-J        ...      3
Auxiliary J/K fitting basis                 ... AVAILABLE
   # of basis functions in Aux-JK           ...   2572
   # of shells in Aux-JK                    ...    980
   Maximum angular momentum in Aux-JK       ...      3
Auxiliary Correlation fitting basis         ... AVAILABLE
   # of basis functions in Aux-C            ...   2572
   # of shells in Aux-C                     ...    980
   Maximum angular momentum in Aux-C        ...      3
Auxiliary 'external' fitting basis          ... NOT available
Integral threshold                          ...     2.500000e-11
Primitive cut-off                           ...     2.500000e-12
Primitive pair pre-selection threshold      ...     2.500000e-12

Calculating pre-screening integrals         ... done (  0.1 sec) Dimension = 180
Organizing shell pair data                  ... done (  2.0 sec)
Shell pair information
Total number of shell pairs                 ...     16290
Shell pairs after pre-screening             ...     13557
Total number of primitive shell pairs       ...     71676
Primitive shell pairs kept                  ...     37696
          la=0 lb=0:   5046 shell pairs
          la=1 lb=0:   5043 shell pairs
          la=1 lb=1:   1242 shell pairs
          la=2 lb=0:   1392 shell pairs
          la=2 lb=1:    731 shell pairs
          la=2 lb=2:    103 shell pairs

Calculating one electron integrals          ... done (  0.0 sec)
Calculating RI/J V-Matrix + Cholesky decomp.... done (  5.7 sec)
Calculating RI/JK V-Matrix + Cholesky decomp... done (  3.6 sec)
Calculating RI/C V-Matrix + Cholesky decomp.... done (  2.0 sec)
Calculating Nuclear repulsion               ... done (  0.0 sec) ENN=   1308.912334848613 Eh

SHARK setup successfully completed in  14.1 seconds

Maximum memory used throughout the entire GTOINT-calculation: 57.1 MB


           ************************************************************
           *        Program running with 4 parallel MPI-processes     *
           *              working on a common directory               *
           ************************************************************
-------------------------------------------------------------------------------
                                 ORCA SCF
-------------------------------------------------------------------------------

------------
SCF SETTINGS
------------
Hamiltonian:
 Density Functional     Method          .... DFT(GTOs)
 Exchange Functional    Exchange        .... B88
   X-Alpha parameter    XAlpha          ....  0.666667
   Becke's b parameter  XBeta           ....  0.004200
 Correlation Functional Correlation     .... LYP
 LDA part of GGA corr.  LDAOpt          .... VWN-5
 Gradients option       PostSCFGGA      .... off
 Hybrid DFT is turned on
   Fraction HF Exchange ScalHFX         ....  0.200000
   Scaling of DF-GGA-X  ScalDFX         ....  0.720000
   Scaling of DF-GGA-C  ScalDFC         ....  0.810000
   Scaling of DF-LDA-C  ScalLDAC        ....  1.000000
   Perturbative correction              ....  0.000000
   Density functional embedding theory  .... OFF
   NL short-range parameter             ....  4.800000
 RI-approximation to the Coulomb term is turned on
   Number of AuxJ basis functions       .... 2572
   RIJ-COSX (HFX calculated with COS-X)).... on


General Settings:
 Integral files         IntName         .... Nr_water
 Hartree-Fock type      HFTyp           .... RHF
 Total Charge           Charge          ....    1
 Multiplicity           Mult            ....    1
 Number of Electrons    NEL             ....  132
 Basis Dimension        Dim             ....  350
 Nuclear Repulsion      ENuc            ....   1308.9123348486 Eh

Convergence Acceleration:
 DIIS                   CNVDIIS         .... on
   Start iteration      DIISMaxIt       ....    12
   Startup error        DIISStart       ....  0.200000
   # of expansion vecs  DIISMaxEq       ....     5
   Bias factor          DIISBfac        ....   1.050
   Max. coefficient     DIISMaxC        ....  10.000
 Trust-Rad. Augm. Hess. CNVTRAH         .... auto
   Auto Start mean grad. ratio tolernc. ....  1.125000
   Auto Start start iteration           ....    20
   Auto Start num. interpolation iter.  ....    10
   Max. Number of Micro iterations      ....    16
   Max. Number of Macro iterations      .... Maxiter - #DIIS iter
   Number of Davidson start vectors     ....     2
   Converg. threshold I  (grad. norm)   ....   1.000e-05
   Converg. threshold II (energy diff.) ....   1.000e-08
   Grad. Scal. Fac. for Micro threshold ....   0.100
   Minimum threshold for Micro iter.    ....   0.010
   NR start threshold (gradient norm)   ....   0.001
   Initial trust radius                 ....   0.400
   Minimum AH scaling param. (alpha)    ....   1.000
   Maximum AH scaling param. (alpha)    .... 1000.000
   Orbital update algorithm             .... Taylor
   White noise on init. David. guess    .... on
   Maximum white noise                  ....   0.010
   Quad. conv. algorithm                .... NR
 SOSCF                  CNVSOSCF        .... on
   Start iteration      SOSCFMaxIt      ....   150
   Startup grad/error   SOSCFStart      ....  0.003300
 Level Shifting         CNVShift        .... on
   Level shift para.    LevelShift      ....    0.2500
   Turn off err/grad.   ShiftErr        ....    0.0010
 Zerner damping         CNVZerner       .... off
 Static damping         CNVDamp         .... on
   Fraction old density DampFac         ....    0.7000
   Max. Damping (<1)    DampMax         ....    0.9800
   Min. Damping (>=0)   DampMin         ....    0.0000
   Turn off err/grad.   DampErr         ....    0.1000
 Fernandez-Rico         CNVRico         .... off

SCF Procedure:
 Maximum # iterations   MaxIter         ....   125
 SCF integral mode      SCFMode         .... Direct
   Integral package                     .... SHARK and LIBINT hybrid scheme
 Reset frequency        DirectResetFreq ....    20
 Integral Threshold     Thresh          ....  2.500e-11 Eh
 Primitive CutOff       TCut            ....  2.500e-12 Eh

Convergence Tolerance:
 Convergence Check Mode ConvCheckMode   .... Total+1el-Energy
 Convergence forced     ConvForced      .... 0
 Energy Change          TolE            ....  1.000e-08 Eh
 1-El. energy change                    ....  1.000e-05 Eh
 Orbital Gradient       TolG            ....  1.000e-05
 Orbital Rotation angle TolX            ....  1.000e-05
 DIIS Error             TolErr          ....  5.000e-07


Diagonalization of the overlap matrix:
Smallest eigenvalue                        ... 1.116e-05
Time for diagonalization                   ...    0.020 sec
Threshold for overlap eigenvalues          ... 1.000e-08
Number of eigenvalues below threshold      ... 0
Time for construction of square roots      ...    0.009 sec
Total time needed                          ...    0.030 sec

Time for model grid setup =    0.378 sec

------------------------------
INITIAL GUESS: MODEL POTENTIAL
------------------------------
Loading Hartree-Fock densities                     ... done
Calculating cut-offs                               ... done
Initializing the effective Hamiltonian             ... done
Setting up the integral package (SHARK)            ... done
Starting the Coulomb interaction                   ... done (   0.4 sec)
Reading the grid                                   ... done
Mapping shells                                     ... done
Starting the XC term evaluation                    ... done (   0.3 sec)
  promolecular density results
     # of electrons  =    132.989045269
     EX              =   -107.339759107
     EC              =     -4.498259178
     EX+EC           =   -111.838018286
Transforming the Hamiltonian                       ... done (   0.0 sec)
Diagonalizing the Hamiltonian                      ... done (   0.0 sec)
Back transforming the eigenvectors                 ... done (   0.0 sec)
Now organizing SCF variables                       ... done
                      ------------------
                      INITIAL GUESS DONE (   1.6 sec)
                      ------------------
-------------------
DFT GRID GENERATION
-------------------

General Integration Accuracy     IntAcc      ... 4.388
Radial Grid Type                 RadialGrid  ... OptM3 with GC (2021)
Angular Grid (max. ang.)         AngularGrid ... 4 (Lebedev-302)
Angular grid pruning method      GridPruning ... 4 (adaptive)
Weight generation scheme         WeightScheme... Becke
Basis function cutoff            BFCut       ... 1.0000e-11
Integration weight cutoff        WCut        ... 1.0000e-14
Angular grids for H and He will be reduced by one unit
Partially contracted basis set               ... off
Rotationally invariant grid construction     ... off

Total number of grid points                  ...   175656
Total number of batches                      ...     2762
Average number of points per batch           ...       63
Average number of grid points per atom       ...     4504
Time for grid setup =    1.631 sec

--------------------
COSX GRID GENERATION
--------------------

GRIDX 1
-------
General Integration Accuracy     IntAcc      ... 3.816
Radial Grid Type                 RadialGrid  ... OptM3 with GC (2021)
Angular Grid (max. ang.)         AngularGrid ... 1 (Lebedev-50)
Angular grid pruning method      GridPruning ... 4 (adaptive)
Weight generation scheme         WeightScheme... Becke
Basis function cutoff            BFCut       ... 1.0000e-11
Integration weight cutoff        WCut        ... 1.0000e-14
Angular grids for H and He will be reduced by one unit
Partially contracted basis set               ... on
Rotationally invariant grid construction     ... off

Total number of grid points                  ...    22406
Total number of batches                      ...      368
Average number of points per batch           ...       60
Average number of grid points per atom       ...      575
UseSFitting                                  ... on

GRIDX 2
-------
General Integration Accuracy     IntAcc      ... 4.020
Radial Grid Type                 RadialGrid  ... OptM3 with GC (2021)
Angular Grid (max. ang.)         AngularGrid ... 2 (Lebedev-110)
Angular grid pruning method      GridPruning ... 4 (adaptive)
Weight generation scheme         WeightScheme... Becke
Basis function cutoff            BFCut       ... 1.0000e-11
Integration weight cutoff        WCut        ... 1.0000e-14
Angular grids for H and He will be reduced by one unit
Partially contracted basis set               ... on
Rotationally invariant grid construction     ... off

Total number of grid points                  ...    50399
Total number of batches                      ...      806
Average number of points per batch           ...       62
Average number of grid points per atom       ...     1292
UseSFitting                                  ... on

GRIDX 3
-------
General Integration Accuracy     IntAcc      ... 4.338
Radial Grid Type                 RadialGrid  ... OptM3 with GC (2021)
Angular Grid (max. ang.)         AngularGrid ... 3 (Lebedev-194)
Angular grid pruning method      GridPruning ... 4 (adaptive)
Weight generation scheme         WeightScheme... Becke
Basis function cutoff            BFCut       ... 1.0000e-11
Integration weight cutoff        WCut        ... 1.0000e-14
Angular grids for H and He will be reduced by one unit
Partially contracted basis set               ... on
Rotationally invariant grid construction     ... off

Total number of grid points                  ...   108460
Total number of batches                      ...     1714
Average number of points per batch           ...       63
Average number of grid points per atom       ...     2781
UseSFitting                                  ... on

Time for X-Grid setup             =    2.187 sec


--------------------
CPCM SOLVATION MODEL
--------------------
CPCM parameters:
  Epsilon                                         ...      80.4000
  Refrac                                          ...       1.3300
  Rsolv                                           ...       1.3000
  Surface type                                    ... GAUSSIAN VDW
  Epsilon function type                           ...         CPCM
Radii:
 Radius for C  used is    3.8550 Bohr (=   2.0400 Ang.)
 Radius for H  used is    2.4944 Bohr (=   1.3200 Ang.)
 Radius for N  used is    3.5149 Bohr (=   1.8600 Ang.)
 Radius for O  used is    3.4469 Bohr (=   1.8240 Ang.)
Calculating surface                               ...        done! (  0.0s)
GEPOL surface points                              ...         2070
GEPOL Volume                                      ...    2053.1991
GEPOL Surface-area                                ...    1097.3847
Calculating surface distance matrix               ...        done! (  0.0s)
Performing Cholesky decomposition & store         ...        done! (  0.4s)
Overall time for CPCM initialization              ...                 0.4s
--------------
SCF ITERATIONS
--------------
ITER       Energy         Delta-E        Max-DP      RMS-DP      [F,P]     Damp
               ***  Starting incremental Fock matrix formation  ***
  0   -817.4544156450   0.000000000000 0.21295348  0.00243786  0.2721045 0.7000
  1   -817.6982017891  -0.243786144078 0.13490797  0.00169767  0.1075052 0.7000
                               ***Turning on DIIS***
  2   -817.7888437025  -0.090641913372 0.23407936  0.00278721  0.0351029 0.0000
  3   -817.9333427850  -0.144499082511 0.10502332  0.00121577  0.0539284 0.0000
  4   -817.9655182156  -0.032175430634 0.03959445  0.00050548  0.0119912 0.0000
  5   -817.9673838368  -0.001865621238 0.06063815  0.00037093  0.0063484 0.0000
                      *** Initiating the SOSCF procedure ***
                           *** Shutting down DIIS ***
                      *** Re-Reading the Fockian *** 
                      *** Removing any level shift *** 
ITER      Energy       Delta-E        Grad      Rot      Max-DP    RMS-DP
  6   -817.96753114  -0.0001473020  0.000342  0.000342  0.044510  0.000274
               *** Restarting incremental Fock matrix formation ***
  7   -817.96753162  -0.0000004772  0.000255  0.001011  0.013493  0.000093
  8   -817.96752370   0.0000079192  0.000511  0.000746  0.001397  0.000020
  9   -817.96753638  -0.0000126821  0.000061  0.000171  0.000972  0.000012
 10   -817.96753583   0.0000005474  0.000106  0.000100  0.000699  0.000007
 11   -817.96753661  -0.0000007833  0.000009  0.000017  0.001395  0.000010
 12   -817.96753662  -0.0000000029  0.000011  0.000012  0.000660  0.000005
                  ***Gradient check signals convergence***
              ***Rediagonalizing the Fockian in SOSCF/NRSCF***

               *****************************************************
               *                     SUCCESS                       *
               *           SCF CONVERGED AFTER  13 CYCLES          *
               *****************************************************

Old exchange energy                            =    -21.799205857 Eh
New exchange energy                            =    -21.799231407 Eh
Exchange energy change after final integration =     -0.000025550 Eh
Total energy after final integration           =   -817.967562168 Eh
Final COS-X integration done in                =    22.670 sec

----------------
TOTAL SCF ENERGY
----------------

Total Energy       :         -817.96756217 Eh          -22258.02894 eV

Components:
Nuclear Repulsion  :         1308.91233485 Eh           35617.31538 eV
Electronic Energy  :        -2126.87989702 Eh          -57875.34432 eV
One Electron Energy:        -3693.58485734 Eh         -100507.55367 eV
Two Electron Energy:         1566.70496033 Eh           42632.20935 eV
Max COSX asymmetry :            0.00000609 Eh               0.00017 eV
CPCM Dielectric    :           -0.11506618 Eh              -3.13111 eV

Virial components:
Potential Energy   :        -1630.92017192 Eh          -44379.59409 eV
Kinetic Energy     :          812.95260976 Eh           22121.56515 eV
Virial Ratio       :            2.00616881


DFT components:
N(Alpha)           :       66.000032560619 electrons
N(Beta)            :       66.000032560619 electrons
N(Total)           :      132.000065121239 electrons
E(X)               :      -86.589852972115 Eh       
E(C)               :       -5.260890403350 Eh       
E(XC)              :      -91.850743375465 Eh       
DFET-embed. en.    :        0.000000000000 Eh       
CPCM Solvation Model Properties:
Surface-charge          :           -1.03241770
Charge-correction       :            0.00318047 Eh               0.08654 eV
Free-energy (cav+disp)  :  This term is not implemented in the current solvation scheme

---------------
SCF CONVERGENCE
---------------

  Last Energy change         ...   -3.8085e-10  Tolerance :   1.0000e-08
  Last MAX-Density change    ...    3.1086e-15  Tolerance :   1.0000e-07
  Last RMS-Density change    ...    3.7775e-17  Tolerance :   5.0000e-09
  Last Orbital Gradient      ...    8.5397e-07  Tolerance :   1.0000e-05
  Last Orbital Rotation      ...    1.4596e-06  Tolerance :   1.0000e-05

             **** THE GBW FILE WAS UPDATED (Nr_water.gbw) ****
             **** DENSITY Nr_water.scfp WAS UPDATED ****
             **** ENERGY FILE WAS UPDATED (Nr_water.en.tmp) ****
             **** THE GBW FILE WAS UPDATED (Nr_water.gbw) ****
             **** DENSITY Nr_water.scfp WAS UPDATED ****
----------------
ORBITAL ENERGIES
----------------

  NO   OCC          E(Eh)            E(eV) 
   0   2.0000     -19.129579      -520.5423 
   1   2.0000     -19.127379      -520.4824 
   2   2.0000     -14.384285      -391.4163 
   3   2.0000     -14.379690      -391.2912 
   4   2.0000     -14.375451      -391.1759 
   5   2.0000     -14.373208      -391.1149 
   6   2.0000     -14.370660      -391.0455 
   7   2.0000     -10.347110      -281.5592 
   8   2.0000     -10.295979      -280.1678 
   9   2.0000     -10.295530      -280.1556 
  10   2.0000     -10.229294      -278.3532 
  11   2.0000     -10.223856      -278.2053 
  12   2.0000     -10.215647      -277.9819 
  13   2.0000     -10.209414      -277.8123 
  14   2.0000     -10.202357      -277.6202 
  15   2.0000     -10.188226      -277.2357 
  16   2.0000     -10.177149      -276.9343 
  17   2.0000      -1.056107       -28.7381 
  18   2.0000      -1.046660       -28.4811 
  19   2.0000      -1.037482       -28.2313 
  20   2.0000      -0.948867       -25.8200 
  21   2.0000      -0.938048       -25.5256 
  22   2.0000      -0.929725       -25.2991 
  23   2.0000      -0.914660       -24.8892 
  24   2.0000      -0.798989       -21.7416 
  25   2.0000      -0.751368       -20.4458 
  26   2.0000      -0.744823       -20.2677 
  27   2.0000      -0.721815       -19.6416 
  28   2.0000      -0.700517       -19.0620 
  29   2.0000      -0.685984       -18.6666 
  30   2.0000      -0.655923       -17.8486 
  31   2.0000      -0.629218       -17.1219 
  32   2.0000      -0.601637       -16.3714 
  33   2.0000      -0.574501       -15.6330 
  34   2.0000      -0.570577       -15.5262 
  35   2.0000      -0.543060       -14.7774 
  36   2.0000      -0.520207       -14.1555 
  37   2.0000      -0.512745       -13.9525 
  38   2.0000      -0.507097       -13.7988 
  39   2.0000      -0.505250       -13.7485 
  40   2.0000      -0.493300       -13.4234 
  41   2.0000      -0.484665       -13.1884 
  42   2.0000      -0.473153       -12.8752 
  43   2.0000      -0.469222       -12.7682 
  44   2.0000      -0.465910       -12.6780 
  45   2.0000      -0.451246       -12.2790 
  46   2.0000      -0.436545       -11.8790 
  47   2.0000      -0.425336       -11.5740 
  48   2.0000      -0.420540       -11.4435 
  49   2.0000      -0.415345       -11.3021 
  50   2.0000      -0.408494       -11.1157 
  51   2.0000      -0.404321       -11.0021 
  52   2.0000      -0.401601       -10.9281 
  53   2.0000      -0.398718       -10.8497 
  54   2.0000      -0.386875       -10.5274 
  55   2.0000      -0.380809       -10.3623 
  56   2.0000      -0.369708       -10.0603 
  57   2.0000      -0.367316        -9.9952 
  58   2.0000      -0.354851        -9.6560 
  59   2.0000      -0.352655        -9.5962 
  60   2.0000      -0.298974        -8.1355 
  61   2.0000      -0.281561        -7.6617 
  62   2.0000      -0.275957        -7.5092 
  63   2.0000      -0.268937        -7.3181 
  64   2.0000      -0.253093        -6.8870 
  65   2.0000      -0.247580        -6.7370 
  66   0.0000      -0.002125        -0.0578 
  67   0.0000      -0.000545        -0.0148 
  68   0.0000       0.002046         0.0557 
  69   0.0000       0.005228         0.1423 
  70   0.0000       0.008261         0.2248 
  71   0.0000       0.015814         0.4303 
  72   0.0000       0.022639         0.6160 
  73   0.0000       0.024040         0.6542 
  74   0.0000       0.032963         0.8970 
  75   0.0000       0.038936         1.0595 
  76   0.0000       0.043885         1.1942 
  77   0.0000       0.048888         1.3303 
  78   0.0000       0.049576         1.3490 
  79   0.0000       0.057981         1.5777 
  80   0.0000       0.060714         1.6521 
  81   0.0000       0.065915         1.7936 
  82   0.0000       0.069829         1.9002 
  83   0.0000       0.073070         1.9883 
  84   0.0000       0.077145         2.0992 
  85   0.0000       0.083220         2.2645 
  86   0.0000       0.087168         2.3720 
  87   0.0000       0.092260         2.5105 
  88   0.0000       0.093033         2.5315 
  89   0.0000       0.096573         2.6279 
  90   0.0000       0.101334         2.7574 
  91   0.0000       0.109297         2.9741 
  92   0.0000       0.112011         3.0480 
  93   0.0000       0.116957         3.1826 
  94   0.0000       0.125536         3.4160 
  95   0.0000       0.128055         3.4846 
  96   0.0000       0.133195         3.6244 
  97   0.0000       0.135190         3.6787 
  98   0.0000       0.136842         3.7237 
  99   0.0000       0.137536         3.7425 
 100   0.0000       0.144557         3.9336 
 101   0.0000       0.148038         4.0283 
 102   0.0000       0.155803         4.2396 
 103   0.0000       0.157336         4.2813 
 104   0.0000       0.161926         4.4062 
 105   0.0000       0.166530         4.5315 
 106   0.0000       0.169888         4.6229 
 107   0.0000       0.173290         4.7155 
 108   0.0000       0.177765         4.8372 
 109   0.0000       0.178152         4.8478 
 110   0.0000       0.184325         5.0157 
 111   0.0000       0.186787         5.0827 
 112   0.0000       0.193481         5.2649 
 113   0.0000       0.197319         5.3693 
 114   0.0000       0.201471         5.4823 
 115   0.0000       0.202073         5.4987 
 116   0.0000       0.204301         5.5593 
 117   0.0000       0.208083         5.6622 
 118   0.0000       0.212293         5.7768 
 119   0.0000       0.215125         5.8539 
 120   0.0000       0.218459         5.9446 
 121   0.0000       0.222080         6.0431 
 122   0.0000       0.224267         6.1026 
 123   0.0000       0.232869         6.3367 
 124   0.0000       0.235136         6.3984 
 125   0.0000       0.237500         6.4627 
 126   0.0000       0.241999         6.5851 
 127   0.0000       0.244622         6.6565 
 128   0.0000       0.246971         6.7204 
 129   0.0000       0.254063         6.9134 
 130   0.0000       0.256904         6.9907 
 131   0.0000       0.259567         7.0632 
 132   0.0000       0.264795         7.2054 
 133   0.0000       0.268519         7.3068 
 134   0.0000       0.275749         7.5035 
 135   0.0000       0.279236         7.5984 
 136   0.0000       0.281042         7.6475 
 137   0.0000       0.285587         7.7712 
 138   0.0000       0.287348         7.8191 
 139   0.0000       0.298422         8.1205 
 140   0.0000       0.300926         8.1886 
 141   0.0000       0.302345         8.2272 
 142   0.0000       0.305163         8.3039 
 143   0.0000       0.308767         8.4020 
 144   0.0000       0.312763         8.5107 
 145   0.0000       0.315861         8.5950 
 146   0.0000       0.317711         8.6454 
 147   0.0000       0.320574         8.7233 
 148   0.0000       0.333456         9.0738 
 149   0.0000       0.340747         9.2722 
 150   0.0000       0.343096         9.3361 
 151   0.0000       0.349335         9.5059 
 152   0.0000       0.350064         9.5257 
 153   0.0000       0.356298         9.6954 
 154   0.0000       0.358967         9.7680 
 155   0.0000       0.361822         9.8457 
 156   0.0000       0.373428        10.1615 
 157   0.0000       0.374202        10.1825 
 158   0.0000       0.379554        10.3282 
 159   0.0000       0.386712        10.5230 
 160   0.0000       0.392569        10.6824 
 161   0.0000       0.401565        10.9271 
 162   0.0000       0.409607        11.1460 
 163   0.0000       0.412421        11.2225 
 164   0.0000       0.420666        11.4469 
 165   0.0000       0.427545        11.6341 
 166   0.0000       0.439608        11.9623 
 167   0.0000       0.446371        12.1464 
 168   0.0000       0.454269        12.3613 
 169   0.0000       0.463017        12.5993 
 170   0.0000       0.467069        12.7096 
 171   0.0000       0.495179        13.4745 
 172   0.0000       0.499286        13.5863 
 173   0.0000       0.522086        14.2067 
 174   0.0000       0.541674        14.7397 
 175   0.0000       0.645449        17.5636 
 176   0.0000       0.662284        18.0217 
 177   0.0000       0.666452        18.1351 
 178   0.0000       0.672561        18.3013 
 179   0.0000       0.682466        18.5709 
 180   0.0000       0.691886        18.8272 
 181   0.0000       0.700247        19.0547 
 182   0.0000       0.702530        19.1168 
 183   0.0000       0.710722        19.3397 
 184   0.0000       0.719310        19.5734 
 185   0.0000       0.727788        19.8041 
 186   0.0000       0.744612        20.2619 
 187   0.0000       0.751923        20.4609 
 188   0.0000       0.755404        20.5556 
 189   0.0000       0.767992        20.8981 
 190   0.0000       0.786783        21.4095 
 191   0.0000       0.788271        21.4499 
 192   0.0000       0.813632        22.1400 
 193   0.0000       0.816933        22.2299 
 194   0.0000       0.825610        22.4660 
 195   0.0000       0.832244        22.6465 
 196   0.0000       0.853411        23.2225 
 197   0.0000       0.860114        23.4049 
 198   0.0000       0.874890        23.8070 
 199   0.0000       0.881929        23.9985 
 200   0.0000       0.888878        24.1876 
 201   0.0000       0.898839        24.4587 
 202   0.0000       0.922208        25.0946 
 203   0.0000       0.924133        25.1469 
 204   0.0000       0.934353        25.4250 
 205   0.0000       0.938835        25.5470 
 206   0.0000       0.948311        25.8048 
 207   0.0000       0.959286        26.1035 
 208   0.0000       0.962697        26.1963 
 209   0.0000       0.978982        26.6394 
 210   0.0000       0.981735        26.7144 
 211   0.0000       0.983422        26.7603 
 212   0.0000       0.991297        26.9746 
 213   0.0000       1.001182        27.2435 
 214   0.0000       1.011742        27.5309 
 215   0.0000       1.017895        27.6983 
 216   0.0000       1.025818        27.9139 
 217   0.0000       1.041163        28.3315 
 218   0.0000       1.042966        28.3806 
 219   0.0000       1.048863        28.5410 
 220   0.0000       1.054827        28.7033 
 221   0.0000       1.057306        28.7707 
 222   0.0000       1.070165        29.1207 
 223   0.0000       1.081228        29.4217 
 224   0.0000       1.094268        29.7765 
 225   0.0000       1.097931        29.8762 
 226   0.0000       1.107718        30.1425 
 227   0.0000       1.122704        30.5503 
 228   0.0000       1.135994        30.9120 
 229   0.0000       1.142450        31.0876 
 230   0.0000       1.158716        31.5303 
 231   0.0000       1.159522        31.5522 
 232   0.0000       1.173388        31.9295 
 233   0.0000       1.186275        32.2802 
 234   0.0000       1.191298        32.4169 
 235   0.0000       1.197456        32.5844 
 236   0.0000       1.210323        32.9346 
 237   0.0000       1.218467        33.1562 
 238   0.0000       1.247342        33.9419 
 239   0.0000       1.254106        34.1260 
 240   0.0000       1.266580        34.4654 
 241   0.0000       1.270876        34.5823 
 242   0.0000       1.279290        34.8112 
 243   0.0000       1.294488        35.2248 
 244   0.0000       1.310377        35.6572 
 245   0.0000       1.321788        35.9677 
 246   0.0000       1.335207        36.3328 
 247   0.0000       1.344898        36.5965 
 248   0.0000       1.355583        36.8873 
 249   0.0000       1.368410        37.2363 
 250   0.0000       1.377201        37.4755 
 251   0.0000       1.389833        37.8193 
 252   0.0000       1.392624        37.8952 
 253   0.0000       1.408616        38.3304 
 254   0.0000       1.427817        38.8529 
 255   0.0000       1.439167        39.1617 
 256   0.0000       1.450270        39.4638 
 257   0.0000       1.467840        39.9419 
 258   0.0000       1.477977        40.2178 
 259   0.0000       1.487828        40.4859 
 260   0.0000       1.516147        41.2565 
 261   0.0000       1.542661        41.9779 
 262   0.0000       1.549941        42.1760 
 263   0.0000       1.570969        42.7482 
 264   0.0000       1.611508        43.8514 
 265   0.0000       1.625978        44.2451 
 266   0.0000       1.629544        44.3422 
 267   0.0000       1.657166        45.0938 
 268   0.0000       1.668280        45.3962 
 269   0.0000       1.678769        45.6816 
 270   0.0000       1.684652        45.8417 
 271   0.0000       1.700990        46.2863 
 272   0.0000       1.715762        46.6883 
 273   0.0000       1.743695        47.4484 
 274   0.0000       1.770288        48.1720 
 275   0.0000       1.798223        48.9321 
 276   0.0000       1.803800        49.0839 
 277   0.0000       1.818594        49.4865 
 278   0.0000       1.833016        49.8789 
 279   0.0000       1.843294        50.1586 
 280   0.0000       1.851249        50.3750 
 281   0.0000       1.862692        50.6864 
 282   0.0000       1.873486        50.9801 
 283   0.0000       1.882769        51.2328 
 284   0.0000       1.899915        51.6993 
 285   0.0000       1.919202        52.2241 
 286   0.0000       1.944268        52.9062 
 287   0.0000       1.953891        53.1681 
 288   0.0000       1.963813        53.4381 
 289   0.0000       1.970322        53.6152 
 290   0.0000       1.987422        54.0805 
 291   0.0000       2.002348        54.4867 
 292   0.0000       2.004287        54.5394 
 293   0.0000       2.016743        54.8784 
 294   0.0000       2.035080        55.3773 
 295   0.0000       2.056530        55.9610 
 296   0.0000       2.061290        56.0905 
 297   0.0000       2.068824        56.2956 
 298   0.0000       2.084415        56.7198 
 299   0.0000       2.093725        56.9732 
 300   0.0000       2.101775        57.1922 
 301   0.0000       2.125952        57.8501 
 302   0.0000       2.128843        57.9288 
 303   0.0000       2.148333        58.4591 
 304   0.0000       2.175121        59.1881 
 305   0.0000       2.191215        59.6260 
 306   0.0000       2.211814        60.1865 
 307   0.0000       2.221126        60.4399 
 308   0.0000       2.225385        60.5558 
 309   0.0000       2.257353        61.4257 
 310   0.0000       2.266674        61.6793 
 311   0.0000       2.286591        62.2213 
 312   0.0000       2.306324        62.7583 
 313   0.0000       2.326003        63.2938 
 314   0.0000       2.334333        63.5204 
 315   0.0000       2.348093        63.8949 
 316   0.0000       2.373406        64.5837 
 317   0.0000       2.380921        64.7881 
 318   0.0000       2.389983        65.0347 
 319   0.0000       2.394794        65.1657 
 320   0.0000       2.410792        65.6010 
 321   0.0000       2.440727        66.4156 
 322   0.0000       2.456540        66.8458 
 323   0.0000       2.474405        67.3320 
 324   0.0000       2.500892        68.0527 
 325   0.0000       2.513681        68.4007 
 326   0.0000       2.524436        68.6934 
 327   0.0000       2.547337        69.3166 
 328   0.0000       2.589355        70.4599 
 329   0.0000       2.599663        70.7404 
 330   0.0000       2.620503        71.3075 
 331   0.0000       2.632045        71.6216 
 332   0.0000       2.645978        72.0007 
 333   0.0000       2.661310        72.4179 
 334   0.0000       2.680600        72.9428 
 335   0.0000       2.698620        73.4332 
 336   0.0000       2.706225        73.6401 
 337   0.0000       2.734034        74.3968 
 338   0.0000       2.772668        75.4481 
 339   0.0000       2.785131        75.7873 
 340   0.0000       2.835051        77.1457 
 341   0.0000       2.869963        78.0957 
 342   0.0000       2.942726        80.0756 
 343   0.0000       3.030445        82.4626 
 344   0.0000       3.078546        83.7715 
 345   0.0000       3.123733        85.0011 
 346   0.0000       3.148494        85.6749 
[...]
    109       0.374079   0.107492   0.656983
    110      -0.024560  -0.007099  -0.046006
    111       0.263356  -0.081383  -0.524547
    112      -0.232727   0.072077   0.457889
    113      -0.090694   0.027234   0.178998
    114       0.000317  -0.000043  -0.000019
    115      -0.000253  -0.000006   0.000029
    116      -0.000120   0.000013  -0.000011


-----------
IR SPECTRUM
-----------

 Mode   freq       eps      Int      T**2         TX        TY        TZ
       cm**-1   L/(mol*cm) km/mol    a.u.
----------------------------------------------------------------------------
  7:     26.66   0.002300   11.62  0.026914  (-0.071170  0.016587 -0.146880)
  8:     35.57   0.000507    2.56  0.004443  ( 0.002551  0.060623 -0.027600)
  9:     41.01   0.001595    8.06  0.012134  (-0.054899 -0.088366 -0.036220)
 10:     59.12   0.002157   10.90  0.011388  (-0.046310  0.077301 -0.057169)
 11:     75.84   0.001552    7.84  0.006387  ( 0.029269 -0.017312 -0.072323)
 12:     77.12   0.002404   12.15  0.009730  (-0.090305 -0.005091  0.039357)
 13:     87.00   0.000513    2.59  0.001841  ( 0.004055  0.019827 -0.037836)
 14:     97.26   0.000795    4.02  0.002551  ( 0.043376 -0.025796  0.001991)
 15:    110.26   0.002036   10.29  0.005761  ( 0.051368  0.006954 -0.055446)
 16:    129.99   0.001885    9.52  0.004525  (-0.029434 -0.038647 -0.046529)
 17:    141.88   0.001491    7.53  0.003279  (-0.029758  0.043843 -0.021716)
 18:    162.90   0.003333   16.84  0.006385  ( 0.010652  0.018326 -0.077045)
 19:    175.03   0.000128    0.65  0.000228  ( 0.001429 -0.014723 -0.003007)
 20:    180.27   0.000076    0.38  0.000131  ( 0.002591  0.010621  0.003415)
 21:    201.50   0.000296    1.49  0.000458  (-0.004761 -0.014794 -0.014709)
 22:    239.89   0.002143   10.83  0.002787  ( 0.012337 -0.044967  0.024761)
 23:    262.24   0.097966  495.08  0.116577  ( 0.164288  0.074782  0.289817)
 24:    282.05   0.004164   21.05  0.004607  (-0.035684  0.027521 -0.050762)
 25:    289.69   0.012182   61.56  0.013122  ( 0.062114 -0.009482  0.095783)
 26:    307.25   0.003651   18.45  0.003708  (-0.045143 -0.013718 -0.038499)
 27:    323.17   0.002063   10.43  0.001992  (-0.027952  0.000637  0.034796)
 28:    337.49   0.001190    6.01  0.001100  ( 0.024868 -0.014310  0.016644)
 29:    390.70   0.002279   11.52  0.001820  (-0.037948  0.007847  0.017850)
 30:    417.47   0.001514    7.65  0.001132  (-0.027558 -0.019232 -0.001503)
 31:    442.82   0.005618   28.39  0.003959  ( 0.048836 -0.015437  0.036548)
 32:    457.97   0.002355   11.90  0.001605  (-0.025184 -0.026133 -0.016954)
 33:    481.97   0.023905  120.80  0.015477  ( 0.058172 -0.028599  0.106186)
 34:    507.49   0.004611   23.30  0.002835  (-0.034723 -0.025034 -0.031670)
 35:    552.02   0.000949    4.80  0.000537  ( 0.015827 -0.016666  0.002907)
 36:    570.72   0.004669   23.60  0.002553  (-0.003213 -0.015359  0.048031)
 37:    580.59   0.002641   13.35  0.001420  ( 0.004971 -0.028952  0.023598)
 38:    601.53   0.002172   10.98  0.001127  (-0.032102  0.001650  0.009681)
 39:    605.52   0.003108   15.71  0.001602  (-0.020732  0.027793  0.019992)
 40:    622.49   0.002215   11.19  0.001110  (-0.025980  0.019685  0.006912)
 41:    675.66   0.003830   19.36  0.001769  ( 0.029970 -0.023881 -0.017332)
 42:    713.99   0.000434    2.20  0.000190  (-0.001283 -0.003108  0.013362)
 43:    739.69   0.002852   14.41  0.001203  (-0.026695  0.018354  0.012392)
 44:    795.61   0.003171   16.02  0.001244  (-0.005884  0.019542  0.028760)
 45:    815.85   0.000493    2.49  0.000189  ( 0.000491  0.005485  0.012579)
 46:    896.36   0.001772    8.96  0.000617  ( 0.006968 -0.018483  0.015058)
 47:    932.23   0.000333    1.68  0.000111  ( 0.009127  0.004797 -0.002276)
 48:    979.82   0.000595    3.01  0.000190  ( 0.007014  0.006734  0.009746)
 49:    994.55   0.002945   14.88  0.000924  ( 0.016095 -0.020600 -0.015509)
 50:   1005.27   0.007886   39.85  0.002448  ( 0.027745  0.027598 -0.030273)
 51:   1036.77   0.003033   15.33  0.000913  (-0.021772  0.015641 -0.013940)
 52:   1061.43   0.003303   16.69  0.000971  ( 0.029791 -0.002997 -0.008637)
 53:   1068.53   0.005713   28.87  0.001669  (-0.006512  0.036850 -0.016376)
 54:   1083.83   0.004296   21.71  0.001237  (-0.025457 -0.009791 -0.022205)
 55:   1090.05   0.000256    1.29  0.000073  ( 0.004673  0.007155  0.000557)
 56:   1102.65   0.000888    4.49  0.000251  (-0.005567 -0.014811  0.001019)
 57:   1122.72   0.000952    4.81  0.000265  (-0.013566  0.005580  0.007037)
 58:   1129.54   0.001345    6.80  0.000372  (-0.007935 -0.001563  0.017496)
 59:   1143.72   0.001956    9.88  0.000534  (-0.012840  0.011787 -0.015161)
 60:   1165.00   0.000489    2.47  0.000131  (-0.007237 -0.007715 -0.004381)
 61:   1187.36   0.007614   38.48  0.002001  ( 0.044307  0.005921 -0.001719)
 62:   1193.81   0.016167   81.70  0.004226  ( 0.045490 -0.008994 -0.045560)
 63:   1205.54   0.009075   45.86  0.002349  (-0.031844 -0.010199 -0.035087)
 64:   1263.94   0.013913   70.31  0.003435  ( 0.008587  0.055286  0.017457)
 65:   1286.71   0.006500   32.85  0.001576  (-0.036251  0.016044 -0.002203)
 66:   1294.46   0.013295   67.19  0.003205  ( 0.032529  0.046329 -0.000800)
 67:   1312.96   0.007405   37.42  0.001760  (-0.002646 -0.035330  0.022470)
 68:   1341.57   0.008745   44.19  0.002034  (-0.019274 -0.034417  0.021866)
 69:   1358.80   0.016902   85.41  0.003882  (-0.003264 -0.050946  0.035714)
 70:   1377.64   0.007958   40.21  0.001803  ( 0.024433 -0.022602  0.026358)
 71:   1408.25   0.008885   44.90  0.001969  (-0.035201 -0.025068  0.010070)
 72:   1409.34   0.002058   10.40  0.000456  (-0.011490 -0.003336 -0.017676)
 73:   1424.27   0.003033   15.33  0.000665  ( 0.015367 -0.017473 -0.011101)
 74:   1441.22   0.026809  135.48  0.005805  (-0.056454  0.018648  0.047646)
 75:   1456.51   0.027886  140.93  0.005975  ( 0.027651  0.069276 -0.020271)
 76:   1460.25   0.016326   82.50  0.003489  (-0.009685  0.056369 -0.014750)
 77:   1477.28   0.010206   51.58  0.002156  ( 0.013788  0.044200 -0.003498)
 78:   1480.11   0.002535   12.81  0.000534  ( 0.001188  0.022047 -0.006848)
 79:   1485.05   0.006351   32.09  0.001335  (-0.025977 -0.006540 -0.024838)
 80:   1488.63   0.002587   13.08  0.000542  (-0.004501  0.012242  0.019294)
 81:   1493.06   0.004078   20.61  0.000852  ( 0.003385 -0.021332  0.019645)
 82:   1498.54   0.001595    8.06  0.000332  (-0.018104  0.001168  0.001732)
 83:   1501.27   0.011730   59.28  0.002438  ( 0.017117 -0.026022 -0.038317)
 84:   1507.70   0.001156    5.84  0.000239  ( 0.011194 -0.010600 -0.001262)
 85:   1510.63   0.004084   20.64  0.000844  (-0.025110  0.003843 -0.014087)
 86:   1524.23   0.023928  120.92  0.004899  ( 0.020530  0.066102  0.010385)
 87:   1527.41   0.005994   30.29  0.001225  ( 0.034278 -0.003664 -0.006011)
 88:   1543.39   0.019430   98.19  0.003929  ( 0.058820 -0.021494 -0.002639)
 89:   1614.24   0.021152  106.89  0.004089  ( 0.010731 -0.061827 -0.012303)
 90:   1656.93   0.097791  494.19  0.018418  (-0.078850  0.079245  0.076946)
 91:   1659.69   0.230149  1163.08  0.043274  (-0.040307  0.083604 -0.186170)
 92:   1662.94   0.100911  509.96  0.018937  ( 0.058719 -0.103219 -0.069531)
 93:   1683.32   0.158134  799.14  0.029316  (-0.146528 -0.061736  0.063514)
 94:   1702.42   0.033875  171.19  0.006210  (-0.014554  0.077373  0.003339)
 95:   3044.05   0.011971   60.50  0.001227  ( 0.033351 -0.007970  0.007172)
 96:   3044.82   0.002396   12.11  0.000246  (-0.002040 -0.015531  0.000474)
 97:   3054.22   0.009798   49.52  0.001001  ( 0.014601  0.025876 -0.010880)
 98:   3058.03   0.011315   57.18  0.001155  ( 0.008096 -0.003951 -0.032764)
 99:   3066.31   0.000734    3.71  0.000075  (-0.004442 -0.005141 -0.005342)
100:   3079.09   0.001872    9.46  0.000190  (-0.006365  0.007140  0.009912)
101:   3082.27   0.005541   28.00  0.000561  (-0.000615  0.006804 -0.022679)
102:   3090.46   0.008669   43.81  0.000875  (-0.007909  0.026069  0.011541)
103:   3107.11   0.009497   47.99  0.000954  (-0.011196 -0.006738 -0.027984)
104:   3113.87   0.009533   48.17  0.000955  (-0.002496  0.027720 -0.013443)
105:   3122.27   0.003348   16.92  0.000335  ( 0.014624 -0.010093 -0.004352)
106:   3125.17   0.001371    6.93  0.000137  (-0.004465  0.002249  0.010581)
107:   3132.82   0.001720    8.69  0.000171  ( 0.007798 -0.003737 -0.009825)
108:   3155.64   0.002554   12.91  0.000253  (-0.007903  0.003800 -0.013255)
109:   3162.71   0.002544   12.85  0.000251  (-0.002511  0.014237 -0.006480)
110:   3172.72   0.001847    9.33  0.000182  ( 0.000576  0.008411  0.010514)
111:   3183.43   0.004095   20.70  0.000401  (-0.013213 -0.015060  0.000202)
112:   3586.30   0.045042  227.62  0.003919  ( 0.043144  0.040466 -0.020506)
113:   3587.32   0.049035  247.80  0.004266  (-0.018565  0.061863  0.009689)
114:   3596.03   0.009859   49.82  0.000856  ( 0.024711  0.015635 -0.000720)
115:   3697.15   0.036959  186.77  0.003120  (-0.045905  0.014781  0.028176)
116:   3701.83   0.026722  135.04  0.002253  (-0.010812  0.046195  0.001311)

* The epsilon (eps) is given for a Dirac delta lineshape.
** The dipole moment derivative (T) already includes vibrational overlap.

The first frequency considered to be a vibration is 7
The total number of vibrations considered is 110


--------------------------
THERMOCHEMISTRY AT 298.15K
--------------------------

Temperature         ... 298.15 K
Pressure            ... 1.00 atm
Total Mass          ... 244.32 AMU

Throughout the following assumptions are being made:
  (1) The electronic state is orbitally nondegenerate
  (2) There are no thermally accessible electronically excited states
  (3) Hindered rotations indicated by low frequency modes are not
      treated as such but are treated as vibrations and this may
      cause some error
  (4) All equations used are the standard statistical mechanics
      equations for an ideal gas
  (5) All vibrations are strictly harmonic

freq.      26.66  E(vib)   ...       0.56 
freq.      35.57  E(vib)   ...       0.54 
freq.      41.01  E(vib)   ...       0.54 
freq.      59.12  E(vib)   ...       0.51 
freq.      75.84  E(vib)   ...       0.49 
freq.      77.12  E(vib)   ...       0.49 
freq.      87.00  E(vib)   ...       0.48 
freq.      97.26  E(vib)   ...       0.46 
freq.     110.26  E(vib)   ...       0.45 
freq.     129.99  E(vib)   ...       0.43 
freq.     141.88  E(vib)   ...       0.41 
freq.     162.90  E(vib)   ...       0.39 
freq.     175.03  E(vib)   ...       0.38 
freq.     180.27  E(vib)   ...       0.37 
freq.     201.50  E(vib)   ...       0.35 
freq.     239.89  E(vib)   ...       0.31 
freq.     262.24  E(vib)   ...       0.29 
freq.     282.05  E(vib)   ...       0.28 
freq.     289.69  E(vib)   ...       0.27 
freq.     307.25  E(vib)   ...       0.26 
freq.     323.17  E(vib)   ...       0.25 
freq.     337.49  E(vib)   ...       0.24 
freq.     390.70  E(vib)   ...       0.20 
freq.     417.47  E(vib)   ...       0.18 
freq.     442.82  E(vib)   ...       0.17 
freq.     457.97  E(vib)   ...       0.16 
freq.     481.97  E(vib)   ...       0.15 
freq.     507.49  E(vib)   ...       0.14 
freq.     552.02  E(vib)   ...       0.12 
freq.     570.72  E(vib)   ...       0.11 
freq.     580.59  E(vib)   ...       0.11 
freq.     601.53  E(vib)   ...       0.10 
freq.     605.52  E(vib)   ...       0.10 
freq.     622.49  E(vib)   ...       0.09 
freq.     675.66  E(vib)   ...       0.08 
freq.     713.99  E(vib)   ...       0.07 
freq.     739.69  E(vib)   ...       0.06 
freq.     795.61  E(vib)   ...       0.05 
freq.     815.85  E(vib)   ...       0.05 
freq.     896.36  E(vib)   ...       0.03 
freq.     932.23  E(vib)   ...       0.03 
freq.     979.82  E(vib)   ...       0.02 
freq.     994.55  E(vib)   ...       0.02 
freq.    1005.27  E(vib)   ...       0.02 
freq.    1036.77  E(vib)   ...       0.02 
freq.    1061.43  E(vib)   ...       0.02 
freq.    1068.53  E(vib)   ...       0.02 
freq.    1083.83  E(vib)   ...       0.02 
freq.    1090.05  E(vib)   ...       0.02 
freq.    1102.65  E(vib)   ...       0.02 
freq.    1122.72  E(vib)   ...       0.01 
freq.    1129.54  E(vib)   ...       0.01 
freq.    1143.72  E(vib)   ...       0.01 
freq.    1165.00  E(vib)   ...       0.01 
freq.    1187.36  E(vib)   ...       0.01 
freq.    1193.81  E(vib)   ...       0.01 
freq.    1205.54  E(vib)   ...       0.01 
freq.    1263.94  E(vib)   ...       0.01 
freq.    1286.71  E(vib)   ...       0.01 
freq.    1294.46  E(vib)   ...       0.01 
freq.    1312.96  E(vib)   ...       0.01 
freq.    1341.57  E(vib)   ...       0.01 
freq.    1358.80  E(vib)   ...       0.01 
freq.    1377.64  E(vib)   ...       0.01 
freq.    1408.25  E(vib)   ...       0.00 
freq.    1409.34  E(vib)   ...       0.00 
freq.    1424.27  E(vib)   ...       0.00 
freq.    1441.22  E(vib)   ...       0.00 
freq.    1456.51  E(vib)   ...       0.00 
freq.    1460.25  E(vib)   ...       0.00 
freq.    1477.28  E(vib)   ...       0.00 
freq.    1480.11  E(vib)   ...       0.00 
freq.    1485.05  E(vib)   ...       0.00 
freq.    1488.63  E(vib)   ...       0.00 
freq.    1493.06  E(vib)   ...       0.00 
freq.    1498.54  E(vib)   ...       0.00 
freq.    1501.27  E(vib)   ...       0.00 
freq.    1507.70  E(vib)   ...       0.00 
freq.    1510.63  E(vib)   ...       0.00 
freq.    1524.23  E(vib)   ...       0.00 
freq.    1527.41  E(vib)   ...       0.00 
freq.    1543.39  E(vib)   ...       0.00 
freq.    1614.24  E(vib)   ...       0.00 
freq.    1656.93  E(vib)   ...       0.00 
freq.    1659.69  E(vib)   ...       0.00 
freq.    1662.94  E(vib)   ...       0.00 
freq.    1683.32  E(vib)   ...       0.00 
freq.    1702.42  E(vib)   ...       0.00 
freq.    3044.05  E(vib)   ...       0.00 
freq.    3044.82  E(vib)   ...       0.00 
freq.    3054.22  E(vib)   ...       0.00 
freq.    3058.03  E(vib)   ...       0.00 
freq.    3066.31  E(vib)   ...       0.00 
freq.    3079.09  E(vib)   ...       0.00 
freq.    3082.27  E(vib)   ...       0.00 
freq.    3090.46  E(vib)   ...       0.00 
freq.    3107.11  E(vib)   ...       0.00 
freq.    3113.87  E(vib)   ...       0.00 
freq.    3122.27  E(vib)   ...       0.00 
freq.    3125.17  E(vib)   ...       0.00 
freq.    3132.82  E(vib)   ...       0.00 
freq.    3155.64  E(vib)   ...       0.00 
freq.    3162.71  E(vib)   ...       0.00 
freq.    3172.72  E(vib)   ...       0.00 
freq.    3183.43  E(vib)   ...       0.00 
freq.    3586.30  E(vib)   ...       0.00 
freq.    3587.32  E(vib)   ...       0.00 
freq.    3596.03  E(vib)   ...       0.00 
freq.    3697.15  E(vib)   ...       0.00 
freq.    3701.83  E(vib)   ...       0.00 

------------
INNER ENERGY
------------

The inner energy is: U= E(el) + E(ZPE) + E(vib) + E(rot) + E(trans)
    E(el)   - is the total energy from the electronic structure calculation
              = E(kin-el) + E(nuc-el) + E(el-el) + E(nuc-nuc)
    E(ZPE)  - the the zero temperature vibrational energy from the frequency calculation
    E(vib)  - the the finite temperature correction to E(ZPE) due to population
              of excited vibrational states
    E(rot)  - is the rotational thermal energy
    E(trans)- is the translational thermal energy

Summary of contributions to the inner energy U:
Electronic energy                ...   -818.03702082 Eh
Zero point energy                ...      0.34133987 Eh     214.19 kcal/mol
Thermal vibrational correction   ...      0.01771201 Eh      11.11 kcal/mol
Thermal rotational correction    ...      0.00141627 Eh       0.89 kcal/mol
Thermal translational correction ...      0.00141627 Eh       0.89 kcal/mol
-----------------------------------------------------------------------
Total thermal energy                   -817.67513640 Eh


Summary of corrections to the electronic energy:
(perhaps to be used in another calculation)
Total thermal correction                  0.02054455 Eh      12.89 kcal/mol
Non-thermal (ZPE) correction              0.34133987 Eh     214.19 kcal/mol
-----------------------------------------------------------------------
Total correction                          0.36188442 Eh     227.09 kcal/mol


--------
ENTHALPY
--------

The enthalpy is H = U + kB*T
                kB is Boltzmann's constant
Total free energy                 ...   -817.67513640 Eh 
Thermal Enthalpy correction       ...      0.00094421 Eh       0.59 kcal/mol
-----------------------------------------------------------------------
Total Enthalpy                    ...   -817.67419219 Eh


Note: Only C1 symmetry has been detected, increase convergence thresholds 
      if your molecule has a higher symmetry. Symmetry factor of 1.0 is   
      used for the rotational entropy correction. 
 

Note: Rotational entropy computed according to Herzberg 
Infrared and Raman Spectra, Chapter V,1, Van Nostrand Reinhold, 1945 
Point Group:  C1, Symmetry Number:   1  
Rotational constants in cm-1:     0.031932     0.006169     0.006137 

Vibrational entropy computed according to the QRRHO of S. Grimme
Chem.Eur.J. 2012 18 9955


-------
ENTROPY
-------

The entropy contributions are T*S = T*(S(el)+S(vib)+S(rot)+S(trans))
     S(el)   - electronic entropy
     S(vib)  - vibrational entropy
     S(rot)  - rotational entropy
     S(trans)- translational entropy
The entropies will be listed as multiplied by the temperature to get
units of energy

Electronic entropy                ...      0.00000000 Eh      0.00 kcal/mol
Vibrational entropy               ...      0.03208843 Eh     20.14 kcal/mol
Rotational entropy                ...      0.01594335 Eh     10.00 kcal/mol
Translational entropy             ...      0.02013640 Eh     12.64 kcal/mol
-----------------------------------------------------------------------
Final entropy term                ...      0.06816819 Eh     42.78 kcal/mol

In case the symmetry of your molecule has not been determined correctly
or in case you have a reason to use a different symmetry number we print 
out the resulting rotational entropy values for sn=1,12 :
 --------------------------------------------------------
|  sn= 1 | S(rot)=       0.01594335 Eh     10.00 kcal/mol|
|  sn= 2 | S(rot)=       0.01528890 Eh      9.59 kcal/mol|
|  sn= 3 | S(rot)=       0.01490607 Eh      9.35 kcal/mol|
|  sn= 4 | S(rot)=       0.01463444 Eh      9.18 kcal/mol|
|  sn= 5 | S(rot)=       0.01442375 Eh      9.05 kcal/mol|
|  sn= 6 | S(rot)=       0.01425161 Eh      8.94 kcal/mol|
|  sn= 7 | S(rot)=       0.01410606 Eh      8.85 kcal/mol|
|  sn= 8 | S(rot)=       0.01397999 Eh      8.77 kcal/mol|
|  sn= 9 | S(rot)=       0.01386878 Eh      8.70 kcal/mol|
|  sn=10 | S(rot)=       0.01376930 Eh      8.64 kcal/mol|
|  sn=11 | S(rot)=       0.01367931 Eh      8.58 kcal/mol|
|  sn=12 | S(rot)=       0.01359715 Eh      8.53 kcal/mol|
 --------------------------------------------------------


-------------------
GIBBS FREE ENERGY
-------------------

The Gibbs free energy is G = H - T*S

Total enthalpy                    ...   -817.67419219 Eh 
Total entropy correction          ...     -0.06816819 Eh    -42.78 kcal/mol
-----------------------------------------------------------------------
Final Gibbs free energy         ...   -817.74236037 Eh

For completeness - the Gibbs free energy minus the electronic energy
G-E(el)                           ...      0.29466045 Eh    184.90 kcal/mol


Timings for individual modules:

Sum of individual times         ...     4685.318 sec (=  78.089 min)
GTO integral calculation        ...       60.037 sec (=   1.001 min)   1.3 %
SCF iterations                  ...     2497.697 sec (=  41.628 min)  53.3 %
SCF Gradient evaluation         ...      651.726 sec (=  10.862 min)  13.9 %
Geometry relaxation             ...        4.299 sec (=   0.072 min)   0.1 %
Analytical frequency calculation...     1471.558 sec (=  24.526 min)  31.4 %
                             ****ORCA TERMINATED NORMALLY****
TOTAL RUN TIME: 0 days 1 hours 18 minutes 20 seconds 112 msec
